%VERSION  VERSION_STAMP = V0001.000  DATE = 04/14/26  12:53:45                  
%FLAG TITLE                                                                     
%FORMAT(20a4)                                                                   
default_name                                                                    
%FLAG POINTERS                                                                  
%FORMAT(10I8)                                                                   
   53526      14   52250    1312    2760    1776    5576    4280       0       0
   81732   17174    1312    1776    4280      34      72      38      22       0
       0       0       0       0       0       0       0       1      24       0
       0
%FLAG ATOM_NAME                                                                 
%FORMAT(20a4)                                                                   
HH31CH3 HH32HH33C   O   N   H   CA  HA  CB  HB2 HB3 CG  HG2 HG3 CD  OE1 NE2 HE21
HE22C   O   N   H   CA  HA  CB  HB2 HB3 SG  C   O   N   H   CA  HA  CB  HB2 HB3 
SG  C   O   N   H   CA  HA  CB  HB  CG2 HG21HG22HG23OG1 HG1 C   O   N   H   CA  
HA  CB  HB2 HB3 OG  HG  C   O   N   H   CA  HA  CB  HB  CG2 HG21HG22HG23CG1 HG12
HG13CD1 HD11HD12HD13C   O   N   H   CA  HA  CB  HB2 HB3 SG  C   O   N   H   CA  
HA  CB  HB2 HB3 OG  HG  C   O   N   H   CA  HA  CB  HB2 HB3 CG  HG  CD1 HD11HD12
HD13CD2 HD21HD22HD23C   O   N   H   CA  HA  CB  HB2 HB3 CG  CD1 HD1 CE1 HE1 CZ  
OH  HH  CE2 HE2 CD2 HD2 C   O   N   H   CA  HA  CB  HB2 HB3 CG  HG2 HG3 CD  OE1 
NE2 HE21HE22C   O   N   H   CA  HA  CB  HB2 HB3 CG  HG  CD1 HD11HD12HD13CD2 HD21
HD22HD23C   O   N   H   CA  HA  CB  HB2 HB3 CG  HG2 HG3 CD  OE1 OE2 HE21C   O   
HE22HE11HE12N   H   CA  HA  CB  HB2 HB3 CG  OD1 ND2 HD21HD22C   O   N   H   CA  
HA  CB  HB2 HB3 CG  CD1 HD1 CE1 HE1 CZ  OH  HH  CE2 HE2 CD2 HD2 C   O   N   H   
CA  HA  CB  HB2 HB3 SG  C   O   N   H   CH3 HH31HH32HH33HH31CH3 HH32HH33C   O   
N   H   CA  HA  CB  HB2 HB3 CG  ND1 HD1 CE1 HE1 NE2 HE2 CD2 HD2 C   O   N   H   
CA  HA  CB  HB2 HB3 CG  HG  CD1 HD11HD12HD13CD2 HD21HD22HD23C   O   N   H   CA  
HA  CB  HB2 HB3 SG  C   O   N   H   CA  HA2 HA3 C   O   N   H   CA  HA  CB  HB2 
HB3 OG  HG  C   O   N   H   CA  HA  CB  HB2 HB3 CG  ND1 HD1 CE1 HE1 NE2 HE2 CD2 
HD2 C   O   N   H   CA  HA  CB  HB2 HB3 CG  HG  CD1 HD11HD12HD13CD2 HD21HD22HD23
C   O   N   H   CA  HA  CB  HB  CG1 HG11HG12HG13CG2 HG21HG22HG23C   O   N   H   
CA  HA  CB  HB2 HB3 CG  HG2 HG3 CD  OE1 OE2 HE21C   O   HE22HE11HE12N   H   CA  
HA  CB  HB1 HB2 HB3 C   O   N   H   CA  HA  CB  HB2 HB3 CG  HG  CD1 HD11HD12HD13
CD2 HD21HD22HD23C   O   N   H   CA  HA  CB  HB2 HB3 CG  CD1 HD1 CE1 HE1 CZ  OH  
HH  CE2 HE2 CD2 HD2 C   O   N   H   CA  HA  CB  HB2 HB3 CG  HG  CD1 HD11HD12HD13
CD2 HD21HD22HD23C   O   N   H   CA  HA  CB  HB  CG1 HG11HG12HG13CG2 HG21HG22HG23
C   O   N   H   CA  HA  CB  HB2 HB3 SG  C   O   N   H   CA  HA2 HA3 C   O   N   
H   CA  HA  CB  HB2 HB3 CG  HG2 HG3 CD  OE1 OE2 HE21C   O   HE22HE11HE12N   H   
CA  HA  CB  HB2 HB3 CG  HG2 HG3 CD  HD2 HD3 NE  HE  CZ  NH1 HH11HH12NH2 HH21HH22
C   O   N   H   CA  HA2 HA3 C   O   N   H   CA  HA  CB  HB2 HB3 CG  CD1 HD1 CE1 
HE1 CZ  HZ  CE2 HE2 CD2 HD2 C   O   N   H   CA  HA  CB  HB2 HB3 CG  CD1 HD1 CE1 
HE1 CZ  HZ  CE2 HE2 CD2 HD2 C   O   N   H   CA  HA  CB  HB2 HB3 CG  CD1 HD1 CE1 
HE1 CZ  OH  HH  CE2 HE2 CD2 HD2 C   O   N   H   CA  HA  CB  HB  CG2 HG21HG22HG23
OG1 HG1 C   O   N   H   CH3 HH31HH32HH33HH31CH3 HH32HH33C   O   N   H   CA  HA  
CB  HB2 HB3 CG  HG2 HG3 CD  OE1 NE2 HE21HE22C   O   N   H   CA  HA  CB  HB2 HB3 
SG  C   O   N   H   CA  HA  CB  HB2 HB3 SG  C   O   N   H   CA  HA  CB  HB  CG2 
HG21HG22HG23OG1 HG1 C   O   N   H   CA  HA  CB  HB2 HB3 OG  HG  C   O   N   H   
CA  HA  CB  HB  CG2 HG21HG22HG23CG1 HG12HG13CD1 HD11HD12HD13C   O   N   H   CA  
HA  CB  HB2 HB3 SG  C   O   N   H   CA  HA  CB  HB2 HB3 OG  HG  C   O   N   H   
CA  HA  CB  HB2 HB3 CG  HG  CD1 HD11HD12HD13CD2 HD21HD22HD23C   O   N   H   CA  
HA  CB  HB2 HB3 CG  CD1 HD1 CE1 HE1 CZ  OH  HH  CE2 HE2 CD2 HD2 C   O   N   H   
CA  HA  CB  HB2 HB3 CG  HG2 HG3 CD  OE1 NE2 HE21HE22C   O   N   H   CA  HA  CB  
HB2 HB3 CG  HG  CD1 HD11HD12HD13CD2 HD21HD22HD23C   O   N   H   CA  HA  CB  HB2 
HB3 CG  HG2 HG3 CD  OE1 OE2 HE21C   O   HE22HE11HE12N   H   CA  HA  CB  HB2 HB3 
CG  OD1 ND2 HD21HD22C   O   N   H   CA  HA  CB  HB2 HB3 CG  CD1 HD1 CE1 HE1 CZ  
OH  HH  CE2 HE2 CD2 HD2 C   O   N   H   CA  HA  CB  HB2 HB3 SG  C   O   N   H   
CH3 HH31HH32HH33HH31CH3 HH32HH33C   O   N   H   CA  HA  CB  HB2 HB3 CG  ND1 HD1 
CE1 HE1 NE2 HE2 CD2 HD2 C   O   N   H   CA  HA  CB  HB2 HB3 CG  HG  CD1 HD11HD12
HD13CD2 HD21HD22HD23C   O   N   H   CA  HA  CB  HB2 HB3 SG  C   O   N   H   CA  
HA2 HA3 C   O   N   H   CA  HA  CB  HB2 HB3 OG  HG  C   O   N   H   CA  HA  CB  
HB2 HB3 CG  ND1 HD1 CE1 HE1 NE2 HE2 CD2 HD2 C   O   N   H   CA  HA  CB  HB2 HB3 
CG  HG  CD1 HD11HD12HD13CD2 HD21HD22HD23C   O   N   H   CA  HA  CB  HB  CG1 HG11
HG12HG13CG2 HG21HG22HG23C   O   N   H   CA  HA  CB  HB2 HB3 CG  HG2 HG3 CD  OE1 
OE2 HE21C   O   HE22HE11HE12N   H   CA  HA  CB  HB1 HB2 HB3 C   O   N   H   CA  
HA  CB  HB2 HB3 CG  HG  CD1 HD11HD12HD13CD2 HD21HD22HD23C   O   N   H   CA  HA  
CB  HB2 HB3 CG  CD1 HD1 CE1 HE1 CZ  OH  HH  CE2 HE2 CD2 HD2 C   O   N   H   CA  
HA  CB  HB2 HB3 CG  HG  CD1 HD11HD12HD13CD2 HD21HD22HD23C   O   N   H   CA  HA  
CB  HB  CG1 HG11HG12HG13CG2 HG21HG22HG23C   O   N   H   CA  HA  CB  HB2 HB3 SG  
C   O   N   H   CA  HA2 HA3 C   O   N   H   CA  HA  CB  HB2 HB3 CG  HG2 HG3 CD  
OE1 OE2 HE21C   O   HE22HE11HE12N   H   CA  HA  CB  HB2 HB3 CG  HG2 HG3 CD  HD2 
HD3 NE  HE  CZ  NH1 HH11HH12NH2 HH21HH22C   O   N   H   CA  HA2 HA3 C   O   N   
H   CA  HA  CB  HB2 HB3 CG  CD1 HD1 CE1 HE1 CZ  HZ  CE2 HE2 CD2 HD2 C   O   N   
H   CA  HA  CB  HB2 HB3 CG  CD1 HD1 CE1 HE1 CZ  HZ  CE2 HE2 CD2 HD2 C   O   N   
H   CA  HA  CB  HB2 HB3 CG  CD1 HD1 CE1 HE1 CZ  OH  HH  CE2 HE2 CD2 HD2 C   O   
N   H   CA  HA  CB  HB  CG2 HG21HG22HG23OG1 HG1 C   O   N   H   CH3 HH31HH32HH33
HH31CH3 HH32HH33C   O   N   H   CA  HA  CB  HB2 HB3 CG  HG2 HG3 CD  OE1 NE2 HE21
HE22C   O   N   H   CA  HA  CB  HB2 HB3 SG  C   O   N   H   CA  HA  CB  HB2 HB3 
SG  C   O   N   H   CA  HA  CB  HB  CG2 HG21HG22HG23OG1 HG1 C   O   N   H   CA  
HA  CB  HB2 HB3 OG  HG  C   O   N   H   CA  HA  CB  HB  CG2 HG21HG22HG23CG1 HG12
HG13CD1 HD11HD12HD13C   O   N   H   CA  HA  CB  HB2 HB3 SG  C   O   N   H   CA  
HA  CB  HB2 HB3 OG  HG  C   O   N   H   CA  HA  CB  HB2 HB3 CG  HG  CD1 HD11HD12
HD13CD2 HD21HD22HD23C   O   N   H   CA  HA  CB  HB2 HB3 CG  CD1 HD1 CE1 HE1 CZ  
OH  HH  CE2 HE2 CD2 HD2 C   O   N   H   CA  HA  CB  HB2 HB3 CG  HG2 HG3 CD  OE1 
NE2 HE21HE22C   O   N   H   CA  HA  CB  HB2 HB3 CG  HG  CD1 HD11HD12HD13CD2 HD21
HD22HD23C   O   N   H   CA  HA  CB  HB2 HB3 CG  HG2 HG3 CD  OE1 OE2 HE21C   O   
HE22HE11HE12N   H   CA  HA  CB  HB2 HB3 CG  OD1 ND2 HD21HD22C   O   N   H   CA  
HA  CB  HB2 HB3 CG  CD1 HD1 CE1 HE1 CZ  OH  HH  CE2 HE2 CD2 HD2 C   O   N   H   
CA  HA  CB  HB2 HB3 SG  C   O   N   H   CH3 HH31HH32HH33HH31CH3 HH32HH33C   O   
N   H   CA  HA  CB  HB2 HB3 CG  ND1 HD1 CE1 HE1 NE2 HE2 CD2 HD2 C   O   N   H   
CA  HA  CB  HB2 HB3 CG  HG  CD1 HD11HD12HD13CD2 HD21HD22HD23C   O   N   H   CA  
HA  CB  HB2 HB3 SG  C   O   N   H   CA  HA2 HA3 C   O   N   H   CA  HA  CB  HB2 
HB3 OG  HG  C   O   N   H   CA  HA  CB  HB2 HB3 CG  ND1 HD1 CE1 HE1 NE2 HE2 CD2 
HD2 C   O   N   H   CA  HA  CB  HB2 HB3 CG  HG  CD1 HD11HD12HD13CD2 HD21HD22HD23
C   O   N   H   CA  HA  CB  HB  CG1 HG11HG12HG13CG2 HG21HG22HG23C   O   N   H   
CA  HA  CB  HB2 HB3 CG  HG2 HG3 CD  OE1 OE2 HE21C   O   HE22HE11HE12N   H   CA  
HA  CB  HB1 HB2 HB3 C   O   N   H   CA  HA  CB  HB2 HB3 CG  HG  CD1 HD11HD12HD13
CD2 HD21HD22HD23C   O   N   H   CA  HA  CB  HB2 HB3 CG  CD1 HD1 CE1 HE1 CZ  OH  
HH  CE2 HE2 CD2 HD2 C   O   N   H   CA  HA  CB  HB2 HB3 CG  HG  CD1 HD11HD12HD13
CD2 HD21HD22HD23C   O   N   H   CA  HA  CB  HB  CG1 HG11HG12HG13CG2 HG21HG22HG23
C   O   N   H   CA  HA  CB  HB2 HB3 SG  C   O   N   H   CA  HA2 HA3 C   O   N   
H   CA  HA  CB  HB2 HB3 CG  HG2 HG3 CD  OE1 OE2 HE21C   O   HE22HE11HE12N   H   
CA  HA  CB  HB2 HB3 CG  HG2 HG3 CD  HD2 HD3 NE  HE  CZ  NH1 HH11HH12NH2 HH21HH22
C   O   N   H   CA  HA2 HA3 C   O   N   H   CA  HA  CB  HB2 HB3 CG  CD1 HD1 CE1 
HE1 CZ  HZ  CE2 HE2 CD2 HD2 C   O   N   H   CA  HA  CB  HB2 HB3 CG  CD1 HD1 CE1 
HE1 CZ  HZ  CE2 HE2 CD2 HD2 C   O   N   H   CA  HA  CB  HB2 HB3 CG  CD1 HD1 CE1 
HE1 CZ  OH  HH  CE2 HE2 CD2 HD2 C   O   N   H   CA  HA  CB  HB  CG2 HG21HG22HG23
OG1 HG1 C   O   N   H   CH3 HH31HH32HH33HH31CH3 HH32HH33C   O   N   H   CA  HA  
CB  HB2 HB3 CG  HG2 HG3 CD  OE1 NE2 HE21HE22C   O   N   H   CA  HA  CB  HB2 HB3 
SG  C   O   N   H   CA  HA  CB  HB2 HB3 SG  C   O   N   H   CA  HA  CB  HB  CG2 
HG21HG22HG23OG1 HG1 C   O   N   H   CA  HA  CB  HB2 HB3 OG  HG  C   O   N   H   
CA  HA  CB  HB  CG2 HG21HG22HG23CG1 HG12HG13CD1 HD11HD12HD13C   O   N   H   CA  
HA  CB  HB2 HB3 SG  C   O   N   H   CA  HA  CB  HB2 HB3 OG  HG  C   O   N   H   
CA  HA  CB  HB2 HB3 CG  HG  CD1 HD11HD12HD13CD2 HD21HD22HD23C   O   N   H   CA  
HA  CB  HB2 HB3 CG  CD1 HD1 CE1 HE1 CZ  OH  HH  CE2 HE2 CD2 HD2 C   O   N   H   
CA  HA  CB  HB2 HB3 CG  HG2 HG3 CD  OE1 NE2 HE21HE22C   O   N   H   CA  HA  CB  
HB2 HB3 CG  HG  CD1 HD11HD12HD13CD2 HD21HD22HD23C   O   N   H   CA  HA  CB  HB2 
HB3 CG  HG2 HG3 CD  OE1 OE2 HE21C   O   HE22HE11HE12N   H   CA  HA  CB  HB2 HB3 
CG  OD1 ND2 HD21HD22C   O   N   H   CA  HA  CB  HB2 HB3 CG  CD1 HD1 CE1 HE1 CZ  
OH  HH  CE2 HE2 CD2 HD2 C   O   N   H   CA  HA  CB  HB2 HB3 SG  C   O   N   H   
CH3 HH31HH32HH33HH31CH3 HH32HH33C   O   N   H   CA  HA  CB  HB2 HB3 CG  ND1 HD1 
CE1 HE1 NE2 HE2 CD2 HD2 C   O   N   H   CA  HA  CB  HB2 HB3 CG  HG  CD1 HD11HD12
HD13CD2 HD21HD22HD23C   O   N   H   CA  HA  CB  HB2 HB3 SG  C   O   N   H   CA  
HA2 HA3 C   O   N   H   CA  HA  CB  HB2 HB3 OG  HG  C   O   N   H   CA  HA  CB  
HB2 HB3 CG  ND1 HD1 CE1 HE1 NE2 HE2 CD2 HD2 C   O   N   H   CA  HA  CB  HB2 HB3 
CG  HG  CD1 HD11HD12HD13CD2 HD21HD22HD23C   O   N   H   CA  HA  CB  HB  CG1 HG11
HG12HG13CG2 HG21HG22HG23C   O   N   H   CA  HA  CB  HB2 HB3 CG  HG2 HG3 CD  OE1 
OE2 HE21C   O   HE22HE11HE12N   H   CA  HA  CB  HB1 HB2 HB3 C   O   N   H   CA  
HA  CB  HB2 HB3 CG  HG  CD1 HD11HD12HD13CD2 HD21HD22HD23C   O   N   H   CA  HA  
CB  HB2 HB3 CG  CD1 HD1 CE1 HE1 CZ  OH  HH  CE2 HE2 CD2 HD2 C   O   N   H   CA  
HA  CB  HB2 HB3 CG  HG  CD1 HD11HD12HD13CD2 HD21HD22HD23C   O   N   H   CA  HA  
CB  HB  CG1 HG11HG12HG13CG2 HG21HG22HG23C   O   N   H   CA  HA  CB  HB2 HB3 SG  
C   O   N   H   CA  HA2 HA3 C   O   N   H   CA  HA  CB  HB2 HB3 CG  HG2 HG3 CD  
OE1 OE2 HE21C   O   HE22HE11HE12N   H   CA  HA  CB  HB2 HB3 CG  HG2 HG3 CD  HD2 
HD3 NE  HE  CZ  NH1 HH11HH12NH2 HH21HH22C   O   N   H   CA  HA2 HA3 C   O   N   
H   CA  HA  CB  HB2 HB3 CG  CD1 HD1 CE1 HE1 CZ  HZ  CE2 HE2 CD2 HD2 C   O   N   
H   CA  HA  CB  HB2 HB3 CG  CD1 HD1 CE1 HE1 CZ  HZ  CE2 HE2 CD2 HD2 C   O   N   
H   CA  HA  CB  HB2 HB3 CG  CD1 HD1 CE1 HE1 CZ  OH  HH  CE2 HE2 CD2 HD2 C   O   
N   H   CA  HA  CB  HB  CG2 HG21HG22HG23OG1 HG1 C   O   N   H   CH3 HH31HH32HH33
O   H1  H2  O   H1  H2  O   H1  H2  O   H1  H2  O   H1  H2  O   H1  H2  O   H1  
H2  O   H1  H2  O   H1  H2  O   H1  H2  O   H1  H2  O   H1  H2  O   H1  H2  O   
H1  H2  O   H1  H2  O   H1  H2  O   H1  H2  O   H1  H2  O   H1  H2  O   H1  H2  
O   H1  H2  O   H1  H2  O   H1  H2  O   H1  H2  O   H1  H2  O   H1  H2  O   H1  
H2  O   H1  H2  O   H1  H2  O   H1  H2  O   H1  H2  O   H1  H2  O   H1  H2  O   
H1  H2  O   H1  H2  O   H1  H2  O   H1  H2  O   H1  H2  O   H1  H2  O   H1  H2  
O   H1  H2  O   H1  H2  O   H1  H2  O   H1  H2  O   H1  H2  O   H1  H2  O   H1  
H2  O   H1  H2  O   H1  H2  O   H1  H2  O   H1  H2  O   H1  H2  O   H1  H2  O   
H1  H2  O   H1  H2  O   H1  H2  O   H1  H2  O   H1  H2  O   H1  H2  O   H1  H2  
O   H1  H2  O   H1  H2  O   H1  H2  O   H1  H2  O   H1  H2  O   H1  H2  O   H1  
H2  O   H1  H2  O   H1  H2  O   H1  H2  O   H1  H2  O   H1  H2  O   H1  H2  O   
H1  H2  O   H1  H2  O   H1  H2  O   H1  H2  O   H1  H2  O   H1  H2  O   H1  H2  
O   H1  H2  O   H1  H2  O   H1  H2  O   H1  H2  O   H1  H2  O   H1  H2  O   H1  
H2  O   H1  H2  O   H1  H2  O   H1  H2  O   H1  H2  O   H1  H2  O   H1  H2  O   
H1  H2  O   H1  H2  O   H1  H2  O   H1  H2  O   H1  H2  O   H1  H2  O   H1  H2  
O   H1  H2  O   H1  H2  O   H1  H2  O   H1  H2  O   H1  H2  O   H1  H2  O   H1  
H2  O   H1  H2  O   H1  H2  O   H1  H2  O   H1  H2  O   H1  H2  O   H1  H2  O   
H1  H2  O   H1  H2  O   H1  H2  O   H1  H2  O   H1  H2  O   H1  H2  O   H1  H2  
O   H1  H2  O   H1  H2  O   H1  H2  O   H1  H2  O   H1  H2  O   H1  H2  O   H1  
H2  O   H1  H2  O   H1  H2  O   H1  H2  O   H1  H2  O   H1  H2  O   H1  H2  O   
H1  H2  O   H1  H2  O   H1  H2  O   H1  H2  O   H1  H2  O   H1  H2  O   H1  H2  
O   H1  H2  O   H1  H2  O   H1  H2  O   H1  H2  O   H1  H2  O   H1  H2  O   H1  
H2  O   H1  H2  O   H1  H2  O   H1  H2  O   H1  H2  O   H1  H2  O   H1  H2  O   
H1  H2  O   H1  H2  O   H1  H2  O   H1  H2  O   H1  H2  O   H1  H2  O   H1  H2  
O   H1  H2  O   H1  H2  O   H1  H2  O   H1  H2  O   H1  H2  O   H1  H2  O   H1  
H2  O   H1  H2  O   H1  H2  O   H1  H2  O   H1  H2  O   H1  H2  O   H1  H2  O   
H1  H2  O   H1  H2  O   H1  H2  O   H1  H2  O   H1  H2  O   H1  H2  O   H1  H2  
O   H1  H2  O   H1  H2  O   H1  H2  O   H1  H2  O   H1  H2  O   H1  H2  O   H1  
H2  O   H1  H2  O   H1  H2  O   H1  H2  O   H1  H2  O   H1  H2  O   H1  H2  O   
H1  H2  O   H1  H2  O   H1  H2  O   H1  H2  O   H1  H2  O   H1  H2  O   H1  H2  
O   H1  H2  O   H1  H2  O   H1  H2  O   H1  H2  O   H1  H2  O   H1  H2  O   H1  
H2  O   H1  H2  O   H1  H2  O   H1  H2  O   H1  H2  O   H1  H2  O   H1  H2  O   
H1  H2  O   H1  H2  O   H1  H2  O   H1  H2  O   H1  H2  O   H1  H2  O   H1  H2  
O   H1  H2  O   H1  H2  O   H1  H2  O   H1  H2  O   H1  H2  O   H1  H2  O   H1  
H2  O   H1  H2  O   H1  H2  O   H1  H2  O   H1  H2  O   H1  H2  O   H1  H2  O   
H1  H2  O   H1  H2  O   H1  H2  O   H1  H2  O   H1  H2  O   H1  H2  O   H1  H2  
O   H1  H2  O   H1  H2  O   H1  H2  O   H1  H2  O   H1  H2  O   H1  H2  O   H1  
H2  O   H1  H2  O   H1  H2  O   H1  H2  O   H1  H2  O   H1  H2  O   H1  H2  O   
H1  H2  O   H1  H2  O   H1  H2  O   H1  H2  O   H1  H2  O   H1  H2  O   H1  H2  
O   H1  H2  O   H1  H2  O   H1  H2  O   H1  H2  O   H1  H2  O   H1  H2  O   H1  
H2  O   H1  H2  O   H1  H2  O   H1  H2  O   H1  H2  O   H1  H2  O   H1  H2  O   
H1  H2  O   H1  H2  O   H1  H2  O   H1  H2  O   H1  H2  O   H1  H2  O   H1  H2  
O   H1  H2  O   H1  H2  O   H1  H2  O   H1  H2  O   H1  H2  O   H1  H2  O   H1  
H2  O   H1  H2  O   H1  H2  O   H1  H2  O   H1  H2  O   H1  H2  O   H1  H2  O   
H1  H2  O   H1  H2  O   H1  H2  O   H1  H2  O   H1  H2  O   H1  H2  O   H1  H2  
O   H1  H2  O   H1  H2  O   H1  H2  O   H1  H2  O   H1  H2  O   H1  H2  O   H1  
H2  O   H1  H2  O   H1  H2  O   H1  H2  O   H1  H2  O   H1  H2  O   H1  H2  O   
H1  H2  O   H1  H2  O   H1  H2  O   H1  H2  O   H1  H2  O   H1  H2  O   H1  H2  
O   H1  H2  O   H1  H2  O   H1  H2  O   H1  H2  O   H1  H2  O   H1  H2  O   H1  
H2  O   H1  H2  O   H1  H2  O   H1  H2  O   H1  H2  O   H1  H2  O   H1  H2  O   
H1  H2  O   H1  H2  O   H1  H2  O   H1  H2  O   H1  H2  O   H1  H2  O   H1  H2  
O   H1  H2  O   H1  H2  O   H1  H2  O   H1  H2  O   H1  H2  O   H1  H2  O   H1  
H2  O   H1  H2  O   H1  H2  O   H1  H2  O   H1  H2  O   H1  H2  O   H1  H2  O   
H1  H2  O   H1  H2  O   H1  H2  O   H1  H2  O   H1  H2  O   H1  H2  O   H1  H2  
O   H1  H2  O   H1  H2  O   H1  H2  O   H1  H2  O   H1  H2  O   H1  H2  O   H1  
H2  O   H1  H2  O   H1  H2  O   H1  H2  O   H1  H2  O   H1  H2  O   H1  H2  O   
H1  H2  O   H1  H2  O   H1  H2  O   H1  H2  O   H1  H2  O   H1  H2  O   H1  H2  
O   H1  H2  O   H1  H2  O   H1  H2  O   H1  H2  O   H1  H2  O   H1  H2  O   H1  
H2  O   H1  H2  O   H1  H2  O   H1  H2  O   H1  H2  O   H1  H2  O   H1  H2  O   
H1  H2  O   H1  H2  O   H1  H2  O   H1  H2  O   H1  H2  O   H1  H2  O   H1  H2  
O   H1  H2  O   H1  H2  O   H1  H2  O   H1  H2  O   H1  H2  O   H1  H2  O   H1  
H2  O   H1  H2  O   H1  H2  O   H1  H2  O   H1  H2  O   H1  H2  O   H1  H2  O   
H1  H2  O   H1  H2  O   H1  H2  O   H1  H2  O   H1  H2  O   H1  H2  O   H1  H2  
O   H1  H2  O   H1  H2  O   H1  H2  O   H1  H2  O   H1  H2  O   H1  H2  O   H1  
H2  O   H1  H2  O   H1  H2  O   H1  H2  O   H1  H2  O   H1  H2  O   H1  H2  O   
H1  H2  O   H1  H2  O   H1  H2  O   H1  H2  O   H1  H2  O   H1  H2  O   H1  H2  
O   H1  H2  O   H1  H2  O   H1  H2  O   H1  H2  O   H1  H2  O   H1  H2  O   H1  
H2  O   H1  H2  O   H1  H2  O   H1  H2  O   H1  H2  O   H1  H2  O   H1  H2  O   
H1  H2  O   H1  H2  O   H1  H2  O   H1  H2  O   H1  H2  O   H1  H2  O   H1  H2  
O   H1  H2  O   H1  H2  O   H1  H2  O   H1  H2  O   H1  H2  O   H1  H2  O   H1  
H2  O   H1  H2  O   H1  H2  O   H1  H2  O   H1  H2  O   H1  H2  O   H1  H2  O   
H1  H2  O   H1  H2  O   H1  H2  O   H1  H2  O   H1  H2  O   H1  H2  O   H1  H2  
O   H1  H2  O   H1  H2  O   H1  H2  O   H1  H2  O   H1  H2  O   H1  H2  O   H1  
H2  O   H1  H2  O   H1  H2  O   H1  H2  O   H1  H2  O   H1  H2  O   H1  H2  O   
H1  H2  O   H1  H2  O   H1  H2  O   H1  H2  O   H1  H2  O   H1  H2  O   H1  H2  
O   H1  H2  O   H1  H2  O   H1  H2  O   H1  H2  O   H1  H2  O   H1  H2  O   H1  
H2  O   H1  H2  O   H1  H2  O   H1  H2  O   H1  H2  O   H1  H2  O   H1  H2  O   
H1  H2  O   H1  H2  O   H1  H2  O   H1  H2  O   H1  H2  O   H1  H2  O   H1  H2  
O   H1  H2  O   H1  H2  O   H1  H2  O   H1  H2  O   H1  H2  O   H1  H2  O   H1  
H2  O   H1  H2  O   H1  H2  O   H1  H2  O   H1  H2  O   H1  H2  O   H1  H2  O   
H1  H2  O   H1  H2  O   H1  H2  O   H1  H2  O   H1  H2  O   H1  H2  O   H1  H2  
O   H1  H2  O   H1  H2  O   H1  H2  O   H1  H2  O   H1  H2  O   H1  H2  O   H1  
H2  O   H1  H2  O   H1  H2  O   H1  H2  O   H1  H2  O   H1  H2  O   H1  H2  O   
H1  H2  O   H1  H2  O   H1  H2  O   H1  H2  O   H1  H2  O   H1  H2  O   H1  H2  
O   H1  H2  O   H1  H2  O   H1  H2  O   H1  H2  O   H1  H2  O   H1  H2  O   H1  
H2  O   H1  H2  O   H1  H2  O   H1  H2  O   H1  H2  O   H1  H2  O   H1  H2  O   
H1  H2  O   H1  H2  O   H1  H2  O   H1  H2  O   H1  H2  O   H1  H2  O   H1  H2  
O   H1  H2  O   H1  H2  O   H1  H2  O   H1  H2  O   H1  H2  O   H1  H2  O   H1  
H2  O   H1  H2  O   H1  H2  O   H1  H2  O   H1  H2  O   H1  H2  O   H1  H2  O   
H1  H2  O   H1  H2  O   H1  H2  O   H1  H2  O   H1  H2  O   H1  H2  O   H1  H2  
O   H1  H2  O   H1  H2  O   H1  H2  O   H1  H2  O   H1  H2  O   H1  H2  O   H1  
H2  O   H1  H2  O   H1  H2  O   H1  H2  O   H1  H2  O   H1  H2  O   H1  H2  O   
H1  H2  O   H1  H2  O   H1  H2  O   H1  H2  O   H1  H2  O   H1  H2  O   H1  H2  
O   H1  H2  O   H1  H2  O   H1  H2  O   H1  H2  O   H1  H2  O   H1  H2  O   H1  
H2  O   H1  H2  O   H1  H2  O   H1  H2  O   H1  H2  O   H1  H2  O   H1  H2  O   
H1  H2  O   H1  H2  O   H1  H2  O   H1  H2  O   H1  H2  O   H1  H2  O   H1  H2  
O   H1  H2  O   H1  H2  O   H1  H2  O   H1  H2  O   H1  H2  O   H1  H2  O   H1  
H2  O   H1  H2  O   H1  H2  O   H1  H2  O   H1  H2  O   H1  H2  O   H1  H2  O   
H1  H2  O   H1  H2  O   H1  H2  O   H1  H2  O   H1  H2  O   H1  H2  O   H1  H2  
O   H1  H2  O   H1  H2  O   H1  H2  O   H1  H2  O   H1  H2  O   H1  H2  O   H1  
H2  O   H1  H2  O   H1  H2  O   H1  H2  O   H1  H2  O   H1  H2  O   H1  H2  O   
H1  H2  O   H1  H2  O   H1  H2  O   H1  H2  O   H1  H2  O   H1  H2  O   H1  H2  
O   H1  H2  O   H1  H2  O   H1  H2  O   H1  H2  O   H1  H2  O   H1  H2  O   H1  
H2  O   H1  H2  O   H1  H2  O   H1  H2  O   H1  H2  O   H1  H2  O   H1  H2  O   
H1  H2  O   H1  H2  O   H1  H2  O   H1  H2  O   H1  H2  O   H1  H2  O   H1  H2  
O   H1  H2  O   H1  H2  O   H1  H2  O   H1  H2  O   H1  H2  O   H1  H2  O   H1  
H2  O   H1  H2  O   H1  H2  O   H1  H2  O   H1  H2  O   H1  H2  O   H1  H2  O   
H1  H2  O   H1  H2  O   H1  H2  O   H1  H2  O   H1  H2  O   H1  H2  O   H1  H2  
O   H1  H2  O   H1  H2  O   H1  H2  O   H1  H2  O   H1  H2  O   H1  H2  O   H1  
H2  O   H1  H2  O   H1  H2  O   H1  H2  O   H1  H2  O   H1  H2  O   H1  H2  O   
H1  H2  O   H1  H2  O   H1  H2  O   H1  H2  O   H1  H2  O   H1  H2  O   H1  H2  
O   H1  H2  O   H1  H2  O   H1  H2  O   H1  H2  O   H1  H2  O   H1  H2  O   H1  
H2  O   H1  H2  O   H1  H2  O   H1  H2  O   H1  H2  O   H1  H2  O   H1  H2  O   
H1  H2  O   H1  H2  O   H1  H2  O   H1  H2  O   H1  H2  O   H1  H2  O   H1  H2  
O   H1  H2  O   H1  H2  O   H1  H2  O   H1  H2  O   H1  H2  O   H1  H2  O   H1  
H2  O   H1  H2  O   H1  H2  O   H1  H2  O   H1  H2  O   H1  H2  O   H1  H2  O   
H1  H2  O   H1  H2  O   H1  H2  O   H1  H2  O   H1  H2  O   H1  H2  O   H1  H2  
O   H1  H2  O   H1  H2  O   H1  H2  O   H1  H2  O   H1  H2  O   H1  H2  O   H1  
H2  O   H1  H2  O   H1  H2  O   H1  H2  O   H1  H2  O   H1  H2  O   H1  H2  O   
H1  H2  O   H1  H2  O   H1  H2  O   H1  H2  O   H1  H2  O   H1  H2  O   H1  H2  
O   H1  H2  O   H1  H2  O   H1  H2  O   H1  H2  O   H1  H2  O   H1  H2  O   H1  
H2  O   H1  H2  O   H1  H2  O   H1  H2  O   H1  H2  O   H1  H2  O   H1  H2  O   
H1  H2  O   H1  H2  O   H1  H2  O   H1  H2  O   H1  H2  O   H1  H2  O   H1  H2  
O   H1  H2  O   H1  H2  O   H1  H2  O   H1  H2  O   H1  H2  O   H1  H2  O   H1  
H2  O   H1  H2  O   H1  H2  O   H1  H2  O   H1  H2  O   H1  H2  O   H1  H2  O   
H1  H2  O   H1  H2  O   H1  H2  O   H1  H2  O   H1  H2  O   H1  H2  O   H1  H2  
O   H1  H2  O   H1  H2  O   H1  H2  O   H1  H2  O   H1  H2  O   H1  H2  O   H1  
H2  O   H1  H2  O   H1  H2  O   H1  H2  O   H1  H2  O   H1  H2  O   H1  H2  O   
H1  H2  O   H1  H2  O   H1  H2  O   H1  H2  O   H1  H2  O   H1  H2  O   H1  H2  
O   H1  H2  O   H1  H2  O   H1  H2  O   H1  H2  O   H1  H2  O   H1  H2  O   H1  
H2  O   H1  H2  O   H1  H2  O   H1  H2  O   H1  H2  O   H1  H2  O   H1  H2  O   
H1  H2  O   H1  H2  O   H1  H2  O   H1  H2  O   H1  H2  O   H1  H2  O   H1  H2  
O   H1  H2  O   H1  H2  O   H1  H2  O   H1  H2  O   H1  H2  O   H1  H2  O   H1  
H2  O   H1  H2  O   H1  H2  O   H1  H2  O   H1  H2  O   H1  H2  O   H1  H2  O   
H1  H2  O   H1  H2  O   H1  H2  O   H1  H2  O   H1  H2  O   H1  H2  O   H1  H2  
O   H1  H2  O   H1  H2  O   H1  H2  O   H1  H2  O   H1  H2  O   H1  H2  O   H1  
H2  O   H1  H2  O   H1  H2  O   H1  H2  O   H1  H2  O   H1  H2  O   H1  H2  O   
H1  H2  O   H1  H2  O   H1  H2  O   H1  H2  O   H1  H2  O   H1  H2  O   H1  H2  
O   H1  H2  O   H1  H2  O   H1  H2  O   H1  H2  O   H1  H2  O   H1  H2  O   H1  
H2  O   H1  H2  O   H1  H2  O   H1  H2  O   H1  H2  O   H1  H2  O   H1  H2  O   
H1  H2  O   H1  H2  O   H1  H2  O   H1  H2  O   H1  H2  O   H1  H2  O   H1  H2  
O   H1  H2  O   H1  H2  O   H1  H2  O   H1  H2  O   H1  H2  O   H1  H2  O   H1  
H2  O   H1  H2  O   H1  H2  O   H1  H2  O   H1  H2  O   H1  H2  O   H1  H2  O   
H1  H2  O   H1  H2  O   H1  H2  O   H1  H2  O   H1  H2  O   H1  H2  O   H1  H2  
O   H1  H2  O   H1  H2  O   H1  H2  O   H1  H2  O   H1  H2  O   H1  H2  O   H1  
H2  O   H1  H2  O   H1  H2  O   H1  H2  O   H1  H2  O   H1  H2  O   H1  H2  O   
H1  H2  O   H1  H2  O   H1  H2  O   H1  H2  O   H1  H2  O   H1  H2  O   H1  H2  
O   H1  H2  O   H1  H2  O   H1  H2  O   H1  H2  O   H1  H2  O   H1  H2  O   H1  
H2  O   H1  H2  O   H1  H2  O   H1  H2  O   H1  H2  O   H1  H2  O   H1  H2  O   
H1  H2  O   H1  H2  O   H1  H2  O   H1  H2  O   H1  H2  O   H1  H2  O   H1  H2  
O   H1  H2  O   H1  H2  O   H1  H2  O   H1  H2  O   H1  H2  O   H1  H2  O   H1  
H2  O   H1  H2  O   H1  H2  O   H1  H2  O   H1  H2  O   H1  H2  O   H1  H2  O   
H1  H2  O   H1  H2  O   H1  H2  O   H1  H2  O   H1  H2  O   H1  H2  O   H1  H2  
O   H1  H2  O   H1  H2  O   H1  H2  O   H1  H2  O   H1  H2  O   H1  H2  O   H1  
H2  O   H1  H2  O   H1  H2  O   H1  H2  O   H1  H2  O   H1  H2  O   H1  H2  O   
H1  H2  O   H1  H2  O   H1  H2  O   H1  H2  O   H1  H2  O   H1  H2  O   H1  H2  
O   H1  H2  O   H1  H2  O   H1  H2  O   H1  H2  O   H1  H2  O   H1  H2  O   H1  
H2  O   H1  H2  O   H1  H2  O   H1  H2  O   H1  H2  O   H1  H2  O   H1  H2  O   
H1  H2  O   H1  H2  O   H1  H2  O   H1  H2  O   H1  H2  O   H1  H2  O   H1  H2  
O   H1  H2  O   H1  H2  O   H1  H2  O   H1  H2  O   H1  H2  O   H1  H2  O   H1  
H2  O   H1  H2  O   H1  H2  O   H1  H2  O   H1  H2  O   H1  H2  O   H1  H2  O   
H1  H2  O   H1  H2  O   H1  H2  O   H1  H2  O   H1  H2  O   H1  H2  O   H1  H2  
O   H1  H2  O   H1  H2  O   H1  H2  O   H1  H2  O   H1  H2  O   H1  H2  O   H1  
H2  O   H1  H2  O   H1  H2  O   H1  H2  O   H1  H2  O   H1  H2  O   H1  H2  O   
H1  H2  O   H1  H2  O   H1  H2  O   H1  H2  O   H1  H2  O   H1  H2  O   H1  H2  
O   H1  H2  O   H1  H2  O   H1  H2  O   H1  H2  O   H1  H2  O   H1  H2  O   H1  
H2  O   H1  H2  O   H1  H2  O   H1  H2  O   H1  H2  O   H1  H2  O   H1  H2  O   
H1  H2  O   H1  H2  O   H1  H2  O   H1  H2  O   H1  H2  O   H1  H2  O   H1  H2  
O   H1  H2  O   H1  H2  O   H1  H2  O   H1  H2  O   H1  H2  O   H1  H2  O   H1  
H2  O   H1  H2  O   H1  H2  O   H1  H2  O   H1  H2  O   H1  H2  O   H1  H2  O   
H1  H2  O   H1  H2  O   H1  H2  O   H1  H2  O   H1  H2  O   H1  H2  O   H1  H2  
O   H1  H2  O   H1  H2  O   H1  H2  O   H1  H2  O   H1  H2  O   H1  H2  O   H1  
H2  O   H1  H2  O   H1  H2  O   H1  H2  O   H1  H2  O   H1  H2  O   H1  H2  O   
H1  H2  O   H1  H2  O   H1  H2  O   H1  H2  O   H1  H2  O   H1  H2  O   H1  H2  
O   H1  H2  O   H1  H2  O   H1  H2  O   H1  H2  O   H1  H2  O   H1  H2  O   H1  
H2  O   H1  H2  O   H1  H2  O   H1  H2  O   H1  H2  O   H1  H2  O   H1  H2  O   
H1  H2  O   H1  H2  O   H1  H2  O   H1  H2  O   H1  H2  O   H1  H2  O   H1  H2  
O   H1  H2  O   H1  H2  O   H1  H2  O   H1  H2  O   H1  H2  O   H1  H2  O   H1  
H2  O   H1  H2  O   H1  H2  O   H1  H2  O   H1  H2  O   H1  H2  O   H1  H2  O   
H1  H2  O   H1  H2  O   H1  H2  O   H1  H2  O   H1  H2  O   H1  H2  O   H1  H2  
O   H1  H2  O   H1  H2  O   H1  H2  O   H1  H2  O   H1  H2  O   H1  H2  O   H1  
H2  O   H1  H2  O   H1  H2  O   H1  H2  O   H1  H2  O   H1  H2  O   H1  H2  O   
H1  H2  O   H1  H2  O   H1  H2  O   H1  H2  O   H1  H2  O   H1  H2  O   H1  H2  
O   H1  H2  O   H1  H2  O   H1  H2  O   H1  H2  O   H1  H2  O   H1  H2  O   H1  
H2  O   H1  H2  O   H1  H2  O   H1  H2  O   H1  H2  O   H1  H2  O   H1  H2  O   
H1  H2  O   H1  H2  O   H1  H2  O   H1  H2  O   H1  H2  O   H1  H2  O   H1  H2  
O   H1  H2  O   H1  H2  O   H1  H2  O   H1  H2  O   H1  H2  O   H1  H2  O   H1  
H2  O   H1  H2  O   H1  H2  O   H1  H2  O   H1  H2  O   H1  H2  O   H1  H2  O   
H1  H2  O   H1  H2  O   H1  H2  O   H1  H2  O   H1  H2  O   H1  H2  O   H1  H2  
O   H1  H2  O   H1  H2  O   H1  H2  O   H1  H2  O   H1  H2  O   H1  H2  O   H1  
H2  O   H1  H2  O   H1  H2  O   H1  H2  O   H1  H2  O   H1  H2  O   H1  H2  O   
H1  H2  O   H1  H2  O   H1  H2  O   H1  H2  O   H1  H2  O   H1  H2  O   H1  H2  
O   H1  H2  O   H1  H2  O   H1  H2  O   H1  H2  O   H1  H2  O   H1  H2  O   H1  
H2  O   H1  H2  O   H1  H2  O   H1  H2  O   H1  H2  O   H1  H2  O   H1  H2  O   
H1  H2  O   H1  H2  O   H1  H2  O   H1  H2  O   H1  H2  O   H1  H2  O   H1  H2  
O   H1  H2  O   H1  H2  O   H1  H2  O   H1  H2  O   H1  H2  O   H1  H2  O   H1  
H2  O   H1  H2  O   H1  H2  O   H1  H2  O   H1  H2  O   H1  H2  O   H1  H2  O   
H1  H2  O   H1  H2  O   H1  H2  O   H1  H2  O   H1  H2  O   H1  H2  O   H1  H2  
O   H1  H2  O   H1  H2  O   H1  H2  O   H1  H2  O   H1  H2  O   H1  H2  O   H1  
H2  O   H1  H2  O   H1  H2  O   H1  H2  O   H1  H2  O   H1  H2  O   H1  H2  O   
H1  H2  O   H1  H2  O   H1  H2  O   H1  H2  O   H1  H2  O   H1  H2  O   H1  H2  
O   H1  H2  O   H1  H2  O   H1  H2  O   H1  H2  O   H1  H2  O   H1  H2  O   H1  
H2  O   H1  H2  O   H1  H2  O   H1  H2  O   H1  H2  O   H1  H2  O   H1  H2  O   
H1  H2  O   H1  H2  O   H1  H2  O   H1  H2  O   H1  H2  O   H1  H2  O   H1  H2  
O   H1  H2  O   H1  H2  O   H1  H2  O   H1  H2  O   H1  H2  O   H1  H2  O   H1  
H2  O   H1  H2  O   H1  H2  O   H1  H2  O   H1  H2  O   H1  H2  O   H1  H2  O   
H1  H2  O   H1  H2  O   H1  H2  O   H1  H2  O   H1  H2  O   H1  H2  O   H1  H2  
O   H1  H2  O   H1  H2  O   H1  H2  O   H1  H2  O   H1  H2  O   H1  H2  O   H1  
H2  O   H1  H2  O   H1  H2  O   H1  H2  O   H1  H2  O   H1  H2  O   H1  H2  O   
H1  H2  O   H1  H2  O   H1  H2  O   H1  H2  O   H1  H2  O   H1  H2  O   H1  H2  
O   H1  H2  O   H1  H2  O   H1  H2  O   H1  H2  O   H1  H2  O   H1  H2  O   H1  
H2  O   H1  H2  O   H1  H2  O   H1  H2  O   H1  H2  O   H1  H2  O   H1  H2  O   
H1  H2  O   H1  H2  O   H1  H2  O   H1  H2  O   H1  H2  O   H1  H2  O   H1  H2  
O   H1  H2  O   H1  H2  O   H1  H2  O   H1  H2  O   H1  H2  O   H1  H2  O   H1  
H2  O   H1  H2  O   H1  H2  O   H1  H2  O   H1  H2  O   H1  H2  O   H1  H2  O   
H1  H2  O   H1  H2  O   H1  H2  O   H1  H2  O   H1  H2  O   H1  H2  O   H1  H2  
O   H1  H2  O   H1  H2  O   H1  H2  O   H1  H2  O   H1  H2  O   H1  H2  O   H1  
H2  O   H1  H2  O   H1  H2  O   H1  H2  O   H1  H2  O   H1  H2  O   H1  H2  O   
H1  H2  O   H1  H2  O   H1  H2  O   H1  H2  O   H1  H2  O   H1  H2  O   H1  H2  
O   H1  H2  O   H1  H2  O   H1  H2  O   H1  H2  O   H1  H2  O   H1  H2  O   H1  
H2  O   H1  H2  O   H1  H2  O   H1  H2  O   H1  H2  O   H1  H2  O   H1  H2  O   
H1  H2  O   H1  H2  O   H1  H2  O   H1  H2  O   H1  H2  O   H1  H2  O   H1  H2  
O   H1  H2  O   H1  H2  O   H1  H2  O   H1  H2  O   H1  H2  O   H1  H2  O   H1  
H2  O   H1  H2  O   H1  H2  O   H1  H2  O   H1  H2  O   H1  H2  O   H1  H2  O   
H1  H2  O   H1  H2  O   H1  H2  O   H1  H2  O   H1  H2  O   H1  H2  O   H1  H2  
O   H1  H2  O   H1  H2  O   H1  H2  O   H1  H2  O   H1  H2  O   H1  H2  O   H1  
H2  O   H1  H2  O   H1  H2  O   H1  H2  O   H1  H2  O   H1  H2  O   H1  H2  O   
H1  H2  O   H1  H2  O   H1  H2  O   H1  H2  O   H1  H2  O   H1  H2  O   H1  H2  
O   H1  H2  O   H1  H2  O   H1  H2  O   H1  H2  O   H1  H2  O   H1  H2  O   H1  
H2  O   H1  H2  O   H1  H2  O   H1  H2  O   H1  H2  O   H1  H2  O   H1  H2  O   
H1  H2  O   H1  H2  O   H1  H2  O   H1  H2  O   H1  H2  O   H1  H2  O   H1  H2  
O   H1  H2  O   H1  H2  O   H1  H2  O   H1  H2  O   H1  H2  O   H1  H2  O   H1  
H2  O   H1  H2  O   H1  H2  O   H1  H2  O   H1  H2  O   H1  H2  O   H1  H2  O   
H1  H2  O   H1  H2  O   H1  H2  O   H1  H2  O   H1  H2  O   H1  H2  O   H1  H2  
O   H1  H2  O   H1  H2  O   H1  H2  O   H1  H2  O   H1  H2  O   H1  H2  O   H1  
H2  O   H1  H2  O   H1  H2  O   H1  H2  O   H1  H2  O   H1  H2  O   H1  H2  O   
H1  H2  O   H1  H2  O   H1  H2  O   H1  H2  O   H1  H2  O   H1  H2  O   H1  H2  
O   H1  H2  O   H1  H2  O   H1  H2  O   H1  H2  O   H1  H2  O   H1  H2  O   H1  
H2  O   H1  H2  O   H1  H2  O   H1  H2  O   H1  H2  O   H1  H2  O   H1  H2  O   
H1  H2  O   H1  H2  O   H1  H2  O   H1  H2  O   H1  H2  O   H1  H2  O   H1  H2  
O   H1  H2  O   H1  H2  O   H1  H2  O   H1  H2  O   H1  H2  O   H1  H2  O   H1  
H2  O   H1  H2  O   H1  H2  O   H1  H2  O   H1  H2  O   H1  H2  O   H1  H2  O   
H1  H2  O   H1  H2  O   H1  H2  O   H1  H2  O   H1  H2  O   H1  H2  O   H1  H2  
O   H1  H2  O   H1  H2  O   H1  H2  O   H1  H2  O   H1  H2  O   H1  H2  O   H1  
H2  O   H1  H2  O   H1  H2  O   H1  H2  O   H1  H2  O   H1  H2  O   H1  H2  O   
H1  H2  O   H1  H2  O   H1  H2  O   H1  H2  O   H1  H2  O   H1  H2  O   H1  H2  
O   H1  H2  O   H1  H2  O   H1  H2  O   H1  H2  O   H1  H2  O   H1  H2  O   H1  
H2  O   H1  H2  O   H1  H2  O   H1  H2  O   H1  H2  O   H1  H2  O   H1  H2  O   
H1  H2  O   H1  H2  O   H1  H2  O   H1  H2  O   H1  H2  O   H1  H2  O   H1  H2  
O   H1  H2  O   H1  H2  O   H1  H2  O   H1  H2  O   H1  H2  O   H1  H2  O   H1  
H2  O   H1  H2  O   H1  H2  O   H1  H2  O   H1  H2  O   H1  H2  O   H1  H2  O   
H1  H2  O   H1  H2  O   H1  H2  O   H1  H2  O   H1  H2  O   H1  H2  O   H1  H2  
O   H1  H2  O   H1  H2  O   H1  H2  O   H1  H2  O   H1  H2  O   H1  H2  O   H1  
H2  O   H1  H2  O   H1  H2  O   H1  H2  O   H1  H2  O   H1  H2  O   H1  H2  O   
H1  H2  O   H1  H2  O   H1  H2  O   H1  H2  O   H1  H2  O   H1  H2  O   H1  H2  
O   H1  H2  O   H1  H2  O   H1  H2  O   H1  H2  O   H1  H2  O   H1  H2  O   H1  
H2  O   H1  H2  O   H1  H2  O   H1  H2  O   H1  H2  O   H1  H2  O   H1  H2  O   
H1  H2  O   H1  H2  O   H1  H2  O   H1  H2  O   H1  H2  O   H1  H2  O   H1  H2  
O   H1  H2  O   H1  H2  O   H1  H2  O   H1  H2  O   H1  H2  O   H1  H2  O   H1  
H2  O   H1  H2  O   H1  H2  O   H1  H2  O   H1  H2  O   H1  H2  O   H1  H2  O   
H1  H2  O   H1  H2  O   H1  H2  O   H1  H2  O   H1  H2  O   H1  H2  O   H1  H2  
O   H1  H2  O   H1  H2  O   H1  H2  O   H1  H2  O   H1  H2  O   H1  H2  O   H1  
H2  O   H1  H2  O   H1  H2  O   H1  H2  O   H1  H2  O   H1  H2  O   H1  H2  O   
H1  H2  O   H1  H2  O   H1  H2  O   H1  H2  O   H1  H2  O   H1  H2  O   H1  H2  
O   H1  H2  O   H1  H2  O   H1  H2  O   H1  H2  O   H1  H2  O   H1  H2  O   H1  
H2  O   H1  H2  O   H1  H2  O   H1  H2  O   H1  H2  O   H1  H2  O   H1  H2  O   
H1  H2  O   H1  H2  O   H1  H2  O   H1  H2  O   H1  H2  O   H1  H2  O   H1  H2  
O   H1  H2  O   H1  H2  O   H1  H2  O   H1  H2  O   H1  H2  O   H1  H2  O   H1  
H2  O   H1  H2  O   H1  H2  O   H1  H2  O   H1  H2  O   H1  H2  O   H1  H2  O   
H1  H2  O   H1  H2  O   H1  H2  O   H1  H2  O   H1  H2  O   H1  H2  O   H1  H2  
O   H1  H2  O   H1  H2  O   H1  H2  O   H1  H2  O   H1  H2  O   H1  H2  O   H1  
H2  O   H1  H2  O   H1  H2  O   H1  H2  O   H1  H2  O   H1  H2  O   H1  H2  O   
H1  H2  O   H1  H2  O   H1  H2  O   H1  H2  O   H1  H2  O   H1  H2  O   H1  H2  
O   H1  H2  O   H1  H2  O   H1  H2  O   H1  H2  O   H1  H2  O   H1  H2  O   H1  
H2  O   H1  H2  O   H1  H2  O   H1  H2  O   H1  H2  O   H1  H2  O   H1  H2  O   
H1  H2  O   H1  H2  O   H1  H2  O   H1  H2  O   H1  H2  O   H1  H2  O   H1  H2  
O   H1  H2  O   H1  H2  O   H1  H2  O   H1  H2  O   H1  H2  O   H1  H2  O   H1  
H2  O   H1  H2  O   H1  H2  O   H1  H2  O   H1  H2  O   H1  H2  O   H1  H2  O   
H1  H2  O   H1  H2  O   H1  H2  O   H1  H2  O   H1  H2  O   H1  H2  O   H1  H2  
O   H1  H2  O   H1  H2  O   H1  H2  O   H1  H2  O   H1  H2  O   H1  H2  O   H1  
H2  O   H1  H2  O   H1  H2  O   H1  H2  O   H1  H2  O   H1  H2  O   H1  H2  O   
H1  H2  O   H1  H2  O   H1  H2  O   H1  H2  O   H1  H2  O   H1  H2  O   H1  H2  
O   H1  H2  O   H1  H2  O   H1  H2  O   H1  H2  O   H1  H2  O   H1  H2  O   H1  
H2  O   H1  H2  O   H1  H2  O   H1  H2  O   H1  H2  O   H1  H2  O   H1  H2  O   
H1  H2  O   H1  H2  O   H1  H2  O   H1  H2  O   H1  H2  O   H1  H2  O   H1  H2  
O   H1  H2  O   H1  H2  O   H1  H2  O   H1  H2  O   H1  H2  O   H1  H2  O   H1  
H2  O   H1  H2  O   H1  H2  O   H1  H2  O   H1  H2  O   H1  H2  O   H1  H2  O   
H1  H2  O   H1  H2  O   H1  H2  O   H1  H2  O   H1  H2  O   H1  H2  O   H1  H2  
O   H1  H2  O   H1  H2  O   H1  H2  O   H1  H2  O   H1  H2  O   H1  H2  O   H1  
H2  O   H1  H2  O   H1  H2  O   H1  H2  O   H1  H2  O   H1  H2  O   H1  H2  O   
H1  H2  O   H1  H2  O   H1  H2  O   H1  H2  O   H1  H2  O   H1  H2  O   H1  H2  
O   H1  H2  O   H1  H2  O   H1  H2  O   H1  H2  O   H1  H2  O   H1  H2  O   H1  
H2  O   H1  H2  O   H1  H2  O   H1  H2  O   H1  H2  O   H1  H2  O   H1  H2  O   
H1  H2  O   H1  H2  O   H1  H2  O   H1  H2  O   H1  H2  O   H1  H2  O   H1  H2  
O   H1  H2  O   H1  H2  O   H1  H2  O   H1  H2  O   H1  H2  O   H1  H2  O   H1  
H2  O   H1  H2  O   H1  H2  O   H1  H2  O   H1  H2  O   H1  H2  O   H1  H2  O   
H1  H2  O   H1  H2  O   H1  H2  O   H1  H2  O   H1  H2  O   H1  H2  O   H1  H2  
O   H1  H2  O   H1  H2  O   H1  H2  O   H1  H2  O   H1  H2  O   H1  H2  O   H1  
H2  O   H1  H2  O   H1  H2  O   H1  H2  O   H1  H2  O   H1  H2  O   H1  H2  O   
H1  H2  O   H1  H2  O   H1  H2  O   H1  H2  O   H1  H2  O   H1  H2  O   H1  H2  
O   H1  H2  O   H1  H2  O   H1  H2  O   H1  H2  O   H1  H2  O   H1  H2  O   H1  
H2  O   H1  H2  O   H1  H2  O   H1  H2  O   H1  H2  O   H1  H2  O   H1  H2  O   
H1  H2  O   H1  H2  O   H1  H2  O   H1  H2  O   H1  H2  O   H1  H2  O   H1  H2  
O   H1  H2  O   H1  H2  O   H1  H2  O   H1  H2  O   H1  H2  O   H1  H2  O   H1  
H2  O   H1  H2  O   H1  H2  O   H1  H2  O   H1  H2  O   H1  H2  O   H1  H2  O   
H1  H2  O   H1  H2  O   H1  H2  O   H1  H2  O   H1  H2  O   H1  H2  O   H1  H2  
O   H1  H2  O   H1  H2  O   H1  H2  O   H1  H2  O   H1  H2  O   H1  H2  O   H1  
H2  O   H1  H2  O   H1  H2  O   H1  H2  O   H1  H2  O   H1  H2  O   H1  H2  O   
H1  H2  O   H1  H2  O   H1  H2  O   H1  H2  O   H1  H2  O   H1  H2  O   H1  H2  
O   H1  H2  O   H1  H2  O   H1  H2  O   H1  H2  O   H1  H2  O   H1  H2  O   H1  
H2  O   H1  H2  O   H1  H2  O   H1  H2  O   H1  H2  O   H1  H2  O   H1  H2  O   
H1  H2  O   H1  H2  O   H1  H2  O   H1  H2  O   H1  H2  O   H1  H2  O   H1  H2  
O   H1  H2  O   H1  H2  O   H1  H2  O   H1  H2  O   H1  H2  O   H1  H2  O   H1  
H2  O   H1  H2  O   H1  H2  O   H1  H2  O   H1  H2  O   H1  H2  O   H1  H2  O   
H1  H2  O   H1  H2  O   H1  H2  O   H1  H2  O   H1  H2  O   H1  H2  O   H1  H2  
O   H1  H2  O   H1  H2  O   H1  H2  O   H1  H2  O   H1  H2  O   H1  H2  O   H1  
H2  O   H1  H2  O   H1  H2  O   H1  H2  O   H1  H2  O   H1  H2  O   H1  H2  O   
H1  H2  O   H1  H2  O   H1  H2  O   H1  H2  O   H1  H2  O   H1  H2  O   H1  H2  
O   H1  H2  O   H1  H2  O   H1  H2  O   H1  H2  O   H1  H2  O   H1  H2  O   H1  
H2  O   H1  H2  O   H1  H2  O   H1  H2  O   H1  H2  O   H1  H2  O   H1  H2  O   
H1  H2  O   H1  H2  O   H1  H2  O   H1  H2  O   H1  H2  O   H1  H2  O   H1  H2  
O   H1  H2  O   H1  H2  O   H1  H2  O   H1  H2  O   H1  H2  O   H1  H2  O   H1  
H2  O   H1  H2  O   H1  H2  O   H1  H2  O   H1  H2  O   H1  H2  O   H1  H2  O   
H1  H2  O   H1  H2  O   H1  H2  O   H1  H2  O   H1  H2  O   H1  H2  O   H1  H2  
O   H1  H2  O   H1  H2  O   H1  H2  O   H1  H2  O   H1  H2  O   H1  H2  O   H1  
H2  O   H1  H2  O   H1  H2  O   H1  H2  O   H1  H2  O   H1  H2  O   H1  H2  O   
H1  H2  O   H1  H2  O   H1  H2  O   H1  H2  O   H1  H2  O   H1  H2  O   H1  H2  
O   H1  H2  O   H1  H2  O   H1  H2  O   H1  H2  O   H1  H2  O   H1  H2  O   H1  
H2  O   H1  H2  O   H1  H2  O   H1  H2  O   H1  H2  O   H1  H2  O   H1  H2  O   
H1  H2  O   H1  H2  O   H1  H2  O   H1  H2  O   H1  H2  O   H1  H2  O   H1  H2  
O   H1  H2  O   H1  H2  O   H1  H2  O   H1  H2  O   H1  H2  O   H1  H2  O   H1  
H2  O   H1  H2  O   H1  H2  O   H1  H2  O   H1  H2  O   H1  H2  O   H1  H2  O   
H1  H2  O   H1  H2  O   H1  H2  O   H1  H2  O   H1  H2  O   H1  H2  O   H1  H2  
O   H1  H2  O   H1  H2  O   H1  H2  O   H1  H2  O   H1  H2  O   H1  H2  O   H1  
H2  O   H1  H2  O   H1  H2  O   H1  H2  O   H1  H2  O   H1  H2  O   H1  H2  O   
H1  H2  O   H1  H2  O   H1  H2  O   H1  H2  O   H1  H2  O   H1  H2  O   H1  H2  
O   H1  H2  O   H1  H2  O   H1  H2  O   H1  H2  O   H1  H2  O   H1  H2  O   H1  
H2  O   H1  H2  O   H1  H2  O   H1  H2  O   H1  H2  O   H1  H2  O   H1  H2  O   
H1  H2  O   H1  H2  O   H1  H2  O   H1  H2  O   H1  H2  O   H1  H2  O   H1  H2  
O   H1  H2  O   H1  H2  O   H1  H2  O   H1  H2  O   H1  H2  O   H1  H2  O   H1  
H2  O   H1  H2  O   H1  H2  O   H1  H2  O   H1  H2  O   H1  H2  O   H1  H2  O   
H1  H2  O   H1  H2  O   H1  H2  O   H1  H2  O   H1  H2  O   H1  H2  O   H1  H2  
O   H1  H2  O   H1  H2  O   H1  H2  O   H1  H2  O   H1  H2  O   H1  H2  O   H1  
H2  O   H1  H2  O   H1  H2  O   H1  H2  O   H1  H2  O   H1  H2  O   H1  H2  O   
H1  H2  O   H1  H2  O   H1  H2  O   H1  H2  O   H1  H2  O   H1  H2  O   H1  H2  
O   H1  H2  O   H1  H2  O   H1  H2  O   H1  H2  O   H1  H2  O   H1  H2  O   H1  
H2  O   H1  H2  O   H1  H2  O   H1  H2  O   H1  H2  O   H1  H2  O   H1  H2  O   
H1  H2  O   H1  H2  O   H1  H2  O   H1  H2  O   H1  H2  O   H1  H2  O   H1  H2  
O   H1  H2  O   H1  H2  O   H1  H2  O   H1  H2  O   H1  H2  O   H1  H2  O   H1  
H2  O   H1  H2  O   H1  H2  O   H1  H2  O   H1  H2  O   H1  H2  O   H1  H2  O   
H1  H2  O   H1  H2  O   H1  H2  O   H1  H2  O   H1  H2  O   H1  H2  O   H1  H2  
O   H1  H2  O   H1  H2  O   H1  H2  O   H1  H2  O   H1  H2  O   H1  H2  O   H1  
H2  O   H1  H2  O   H1  H2  O   H1  H2  O   H1  H2  O   H1  H2  O   H1  H2  O   
H1  H2  O   H1  H2  O   H1  H2  O   H1  H2  O   H1  H2  O   H1  H2  O   H1  H2  
O   H1  H2  O   H1  H2  O   H1  H2  O   H1  H2  O   H1  H2  O   H1  H2  O   H1  
H2  O   H1  H2  O   H1  H2  O   H1  H2  O   H1  H2  O   H1  H2  O   H1  H2  O   
H1  H2  O   H1  H2  O   H1  H2  O   H1  H2  O   H1  H2  O   H1  H2  O   H1  H2  
O   H1  H2  O   H1  H2  O   H1  H2  O   H1  H2  O   H1  H2  O   H1  H2  O   H1  
H2  O   H1  H2  O   H1  H2  O   H1  H2  O   H1  H2  O   H1  H2  O   H1  H2  O   
H1  H2  O   H1  H2  O   H1  H2  O   H1  H2  O   H1  H2  O   H1  H2  O   H1  H2  
O   H1  H2  O   H1  H2  O   H1  H2  O   H1  H2  O   H1  H2  O   H1  H2  O   H1  
H2  O   H1  H2  O   H1  H2  O   H1  H2  O   H1  H2  O   H1  H2  O   H1  H2  O   
H1  H2  O   H1  H2  O   H1  H2  O   H1  H2  O   H1  H2  O   H1  H2  O   H1  H2  
O   H1  H2  O   H1  H2  O   H1  H2  O   H1  H2  O   H1  H2  O   H1  H2  O   H1  
H2  O   H1  H2  O   H1  H2  O   H1  H2  O   H1  H2  O   H1  H2  O   H1  H2  O   
H1  H2  O   H1  H2  O   H1  H2  O   H1  H2  O   H1  H2  O   H1  H2  O   H1  H2  
O   H1  H2  O   H1  H2  O   H1  H2  O   H1  H2  O   H1  H2  O   H1  H2  O   H1  
H2  O   H1  H2  O   H1  H2  O   H1  H2  O   H1  H2  O   H1  H2  O   H1  H2  O   
H1  H2  O   H1  H2  O   H1  H2  O   H1  H2  O   H1  H2  O   H1  H2  O   H1  H2  
O   H1  H2  O   H1  H2  O   H1  H2  O   H1  H2  O   H1  H2  O   H1  H2  O   H1  
H2  O   H1  H2  O   H1  H2  O   H1  H2  O   H1  H2  O   H1  H2  O   H1  H2  O   
H1  H2  O   H1  H2  O   H1  H2  O   H1  H2  O   H1  H2  O   H1  H2  O   H1  H2  
O   H1  H2  O   H1  H2  O   H1  H2  O   H1  H2  O   H1  H2  O   H1  H2  O   H1  
H2  O   H1  H2  O   H1  H2  O   H1  H2  O   H1  H2  O   H1  H2  O   H1  H2  O   
H1  H2  O   H1  H2  O   H1  H2  O   H1  H2  O   H1  H2  O   H1  H2  O   H1  H2  
O   H1  H2  O   H1  H2  O   H1  H2  O   H1  H2  O   H1  H2  O   H1  H2  O   H1  
H2  O   H1  H2  O   H1  H2  O   H1  H2  O   H1  H2  O   H1  H2  O   H1  H2  O   
H1  H2  O   H1  H2  O   H1  H2  O   H1  H2  O   H1  H2  O   H1  H2  O   H1  H2  
O   H1  H2  O   H1  H2  O   H1  H2  O   H1  H2  O   H1  H2  O   H1  H2  O   H1  
H2  O   H1  H2  O   H1  H2  O   H1  H2  O   H1  H2  O   H1  H2  O   H1  H2  O   
H1  H2  O   H1  H2  O   H1  H2  O   H1  H2  O   H1  H2  O   H1  H2  O   H1  H2  
O   H1  H2  O   H1  H2  O   H1  H2  O   H1  H2  O   H1  H2  O   H1  H2  O   H1  
H2  O   H1  H2  O   H1  H2  O   H1  H2  O   H1  H2  O   H1  H2  O   H1  H2  O   
H1  H2  O   H1  H2  O   H1  H2  O   H1  H2  O   H1  H2  O   H1  H2  O   H1  H2  
O   H1  H2  O   H1  H2  O   H1  H2  O   H1  H2  O   H1  H2  O   H1  H2  O   H1  
H2  O   H1  H2  O   H1  H2  O   H1  H2  O   H1  H2  O   H1  H2  O   H1  H2  O   
H1  H2  O   H1  H2  O   H1  H2  O   H1  H2  O   H1  H2  O   H1  H2  O   H1  H2  
O   H1  H2  O   H1  H2  O   H1  H2  O   H1  H2  O   H1  H2  O   H1  H2  O   H1  
H2  O   H1  H2  O   H1  H2  O   H1  H2  O   H1  H2  O   H1  H2  O   H1  H2  O   
H1  H2  O   H1  H2  O   H1  H2  O   H1  H2  O   H1  H2  O   H1  H2  O   H1  H2  
O   H1  H2  O   H1  H2  O   H1  H2  O   H1  H2  O   H1  H2  O   H1  H2  O   H1  
H2  O   H1  H2  O   H1  H2  O   H1  H2  O   H1  H2  O   H1  H2  O   H1  H2  O   
H1  H2  O   H1  H2  O   H1  H2  O   H1  H2  O   H1  H2  O   H1  H2  O   H1  H2  
O   H1  H2  O   H1  H2  O   H1  H2  O   H1  H2  O   H1  H2  O   H1  H2  O   H1  
H2  O   H1  H2  O   H1  H2  O   H1  H2  O   H1  H2  O   H1  H2  O   H1  H2  O   
H1  H2  O   H1  H2  O   H1  H2  O   H1  H2  O   H1  H2  O   H1  H2  O   H1  H2  
O   H1  H2  O   H1  H2  O   H1  H2  O   H1  H2  O   H1  H2  O   H1  H2  O   H1  
H2  O   H1  H2  O   H1  H2  O   H1  H2  O   H1  H2  O   H1  H2  O   H1  H2  O   
H1  H2  O   H1  H2  O   H1  H2  O   H1  H2  O   H1  H2  O   H1  H2  O   H1  H2  
O   H1  H2  O   H1  H2  O   H1  H2  O   H1  H2  O   H1  H2  O   H1  H2  O   H1  
H2  O   H1  H2  O   H1  H2  O   H1  H2  O   H1  H2  O   H1  H2  O   H1  H2  O   
H1  H2  O   H1  H2  O   H1  H2  O   H1  H2  O   H1  H2  O   H1  H2  O   H1  H2  
O   H1  H2  O   H1  H2  O   H1  H2  O   H1  H2  O   H1  H2  O   H1  H2  O   H1  
H2  O   H1  H2  O   H1  H2  O   H1  H2  O   H1  H2  O   H1  H2  O   H1  H2  O   
H1  H2  O   H1  H2  O   H1  H2  O   H1  H2  O   H1  H2  O   H1  H2  O   H1  H2  
O   H1  H2  O   H1  H2  O   H1  H2  O   H1  H2  O   H1  H2  O   H1  H2  O   H1  
H2  O   H1  H2  O   H1  H2  O   H1  H2  O   H1  H2  O   H1  H2  O   H1  H2  O   
H1  H2  O   H1  H2  O   H1  H2  O   H1  H2  O   H1  H2  O   H1  H2  O   H1  H2  
O   H1  H2  O   H1  H2  O   H1  H2  O   H1  H2  O   H1  H2  O   H1  H2  O   H1  
H2  O   H1  H2  O   H1  H2  O   H1  H2  O   H1  H2  O   H1  H2  O   H1  H2  O   
H1  H2  O   H1  H2  O   H1  H2  O   H1  H2  O   H1  H2  O   H1  H2  O   H1  H2  
O   H1  H2  O   H1  H2  O   H1  H2  O   H1  H2  O   H1  H2  O   H1  H2  O   H1  
H2  O   H1  H2  O   H1  H2  O   H1  H2  O   H1  H2  O   H1  H2  O   H1  H2  O   
H1  H2  O   H1  H2  O   H1  H2  O   H1  H2  O   H1  H2  O   H1  H2  O   H1  H2  
O   H1  H2  O   H1  H2  O   H1  H2  O   H1  H2  O   H1  H2  O   H1  H2  O   H1  
H2  O   H1  H2  O   H1  H2  O   H1  H2  O   H1  H2  O   H1  H2  O   H1  H2  O   
H1  H2  O   H1  H2  O   H1  H2  O   H1  H2  O   H1  H2  O   H1  H2  O   H1  H2  
O   H1  H2  O   H1  H2  O   H1  H2  O   H1  H2  O   H1  H2  O   H1  H2  O   H1  
H2  O   H1  H2  O   H1  H2  O   H1  H2  O   H1  H2  O   H1  H2  O   H1  H2  O   
H1  H2  O   H1  H2  O   H1  H2  O   H1  H2  O   H1  H2  O   H1  H2  O   H1  H2  
O   H1  H2  O   H1  H2  O   H1  H2  O   H1  H2  O   H1  H2  O   H1  H2  O   H1  
H2  O   H1  H2  O   H1  H2  O   H1  H2  O   H1  H2  O   H1  H2  O   H1  H2  O   
H1  H2  O   H1  H2  O   H1  H2  O   H1  H2  O   H1  H2  O   H1  H2  O   H1  H2  
O   H1  H2  O   H1  H2  O   H1  H2  O   H1  H2  O   H1  H2  O   H1  H2  O   H1  
H2  O   H1  H2  O   H1  H2  O   H1  H2  O   H1  H2  O   H1  H2  O   H1  H2  O   
H1  H2  O   H1  H2  O   H1  H2  O   H1  H2  O   H1  H2  O   H1  H2  O   H1  H2  
O   H1  H2  O   H1  H2  O   H1  H2  O   H1  H2  O   H1  H2  O   H1  H2  O   H1  
H2  O   H1  H2  O   H1  H2  O   H1  H2  O   H1  H2  O   H1  H2  O   H1  H2  O   
H1  H2  O   H1  H2  O   H1  H2  O   H1  H2  O   H1  H2  O   H1  H2  O   H1  H2  
O   H1  H2  O   H1  H2  O   H1  H2  O   H1  H2  O   H1  H2  O   H1  H2  O   H1  
H2  O   H1  H2  O   H1  H2  O   H1  H2  O   H1  H2  O   H1  H2  O   H1  H2  O   
H1  H2  O   H1  H2  O   H1  H2  O   H1  H2  O   H1  H2  O   H1  H2  O   H1  H2  
O   H1  H2  O   H1  H2  O   H1  H2  O   H1  H2  O   H1  H2  O   H1  H2  O   H1  
H2  O   H1  H2  O   H1  H2  O   H1  H2  O   H1  H2  O   H1  H2  O   H1  H2  O   
H1  H2  O   H1  H2  O   H1  H2  O   H1  H2  O   H1  H2  O   H1  H2  O   H1  H2  
O   H1  H2  O   H1  H2  O   H1  H2  O   H1  H2  O   H1  H2  O   H1  H2  O   H1  
H2  O   H1  H2  O   H1  H2  O   H1  H2  O   H1  H2  O   H1  H2  O   H1  H2  O   
H1  H2  O   H1  H2  O   H1  H2  O   H1  H2  O   H1  H2  O   H1  H2  O   H1  H2  
O   H1  H2  O   H1  H2  O   H1  H2  O   H1  H2  O   H1  H2  O   H1  H2  O   H1  
H2  O   H1  H2  O   H1  H2  O   H1  H2  O   H1  H2  O   H1  H2  O   H1  H2  O   
H1  H2  O   H1  H2  O   H1  H2  O   H1  H2  O   H1  H2  O   H1  H2  O   H1  H2  
O   H1  H2  O   H1  H2  O   H1  H2  O   H1  H2  O   H1  H2  O   H1  H2  O   H1  
H2  O   H1  H2  O   H1  H2  O   H1  H2  O   H1  H2  O   H1  H2  O   H1  H2  O   
H1  H2  O   H1  H2  O   H1  H2  O   H1  H2  O   H1  H2  O   H1  H2  O   H1  H2  
O   H1  H2  O   H1  H2  O   H1  H2  O   H1  H2  O   H1  H2  O   H1  H2  O   H1  
H2  O   H1  H2  O   H1  H2  O   H1  H2  O   H1  H2  O   H1  H2  O   H1  H2  O   
H1  H2  O   H1  H2  O   H1  H2  O   H1  H2  O   H1  H2  O   H1  H2  O   H1  H2  
O   H1  H2  O   H1  H2  O   H1  H2  O   H1  H2  O   H1  H2  O   H1  H2  O   H1  
H2  O   H1  H2  O   H1  H2  O   H1  H2  O   H1  H2  O   H1  H2  O   H1  H2  O   
H1  H2  O   H1  H2  O   H1  H2  O   H1  H2  O   H1  H2  O   H1  H2  O   H1  H2  
O   H1  H2  O   H1  H2  O   H1  H2  O   H1  H2  O   H1  H2  O   H1  H2  O   H1  
H2  O   H1  H2  O   H1  H2  O   H1  H2  O   H1  H2  O   H1  H2  O   H1  H2  O   
H1  H2  O   H1  H2  O   H1  H2  O   H1  H2  O   H1  H2  O   H1  H2  O   H1  H2  
O   H1  H2  O   H1  H2  O   H1  H2  O   H1  H2  O   H1  H2  O   H1  H2  O   H1  
H2  O   H1  H2  O   H1  H2  O   H1  H2  O   H1  H2  O   H1  H2  O   H1  H2  O   
H1  H2  O   H1  H2  O   H1  H2  O   H1  H2  O   H1  H2  O   H1  H2  O   H1  H2  
O   H1  H2  O   H1  H2  O   H1  H2  O   H1  H2  O   H1  H2  O   H1  H2  O   H1  
H2  O   H1  H2  O   H1  H2  O   H1  H2  O   H1  H2  O   H1  H2  O   H1  H2  O   
H1  H2  O   H1  H2  O   H1  H2  O   H1  H2  O   H1  H2  O   H1  H2  O   H1  H2  
O   H1  H2  O   H1  H2  O   H1  H2  O   H1  H2  O   H1  H2  O   H1  H2  O   H1  
H2  O   H1  H2  O   H1  H2  O   H1  H2  O   H1  H2  O   H1  H2  O   H1  H2  O   
H1  H2  O   H1  H2  O   H1  H2  O   H1  H2  O   H1  H2  O   H1  H2  O   H1  H2  
O   H1  H2  O   H1  H2  O   H1  H2  O   H1  H2  O   H1  H2  O   H1  H2  O   H1  
H2  O   H1  H2  O   H1  H2  O   H1  H2  O   H1  H2  O   H1  H2  O   H1  H2  O   
H1  H2  O   H1  H2  O   H1  H2  O   H1  H2  O   H1  H2  O   H1  H2  O   H1  H2  
O   H1  H2  O   H1  H2  O   H1  H2  O   H1  H2  O   H1  H2  O   H1  H2  O   H1  
H2  O   H1  H2  O   H1  H2  O   H1  H2  O   H1  H2  O   H1  H2  O   H1  H2  O   
H1  H2  O   H1  H2  O   H1  H2  O   H1  H2  O   H1  H2  O   H1  H2  O   H1  H2  
O   H1  H2  O   H1  H2  O   H1  H2  O   H1  H2  O   H1  H2  O   H1  H2  O   H1  
H2  O   H1  H2  O   H1  H2  O   H1  H2  O   H1  H2  O   H1  H2  O   H1  H2  O   
H1  H2  O   H1  H2  O   H1  H2  O   H1  H2  O   H1  H2  O   H1  H2  O   H1  H2  
O   H1  H2  O   H1  H2  O   H1  H2  O   H1  H2  O   H1  H2  O   H1  H2  O   H1  
H2  O   H1  H2  O   H1  H2  O   H1  H2  O   H1  H2  O   H1  H2  O   H1  H2  O   
H1  H2  O   H1  H2  O   H1  H2  O   H1  H2  O   H1  H2  O   H1  H2  O   H1  H2  
O   H1  H2  O   H1  H2  O   H1  H2  O   H1  H2  O   H1  H2  O   H1  H2  O   H1  
H2  O   H1  H2  O   H1  H2  O   H1  H2  O   H1  H2  O   H1  H2  O   H1  H2  O   
H1  H2  O   H1  H2  O   H1  H2  O   H1  H2  O   H1  H2  O   H1  H2  O   H1  H2  
O   H1  H2  O   H1  H2  O   H1  H2  O   H1  H2  O   H1  H2  O   H1  H2  O   H1  
H2  O   H1  H2  O   H1  H2  O   H1  H2  O   H1  H2  O   H1  H2  O   H1  H2  O   
H1  H2  O   H1  H2  O   H1  H2  O   H1  H2  O   H1  H2  O   H1  H2  O   H1  H2  
O   H1  H2  O   H1  H2  O   H1  H2  O   H1  H2  O   H1  H2  O   H1  H2  O   H1  
H2  O   H1  H2  O   H1  H2  O   H1  H2  O   H1  H2  O   H1  H2  O   H1  H2  O   
H1  H2  O   H1  H2  O   H1  H2  O   H1  H2  O   H1  H2  O   H1  H2  O   H1  H2  
O   H1  H2  O   H1  H2  O   H1  H2  O   H1  H2  O   H1  H2  O   H1  H2  O   H1  
H2  O   H1  H2  O   H1  H2  O   H1  H2  O   H1  H2  O   H1  H2  O   H1  H2  O   
H1  H2  O   H1  H2  O   H1  H2  O   H1  H2  O   H1  H2  O   H1  H2  O   H1  H2  
O   H1  H2  O   H1  H2  O   H1  H2  O   H1  H2  O   H1  H2  O   H1  H2  O   H1  
H2  O   H1  H2  O   H1  H2  O   H1  H2  O   H1  H2  O   H1  H2  O   H1  H2  O   
H1  H2  O   H1  H2  O   H1  H2  O   H1  H2  O   H1  H2  O   H1  H2  O   H1  H2  
O   H1  H2  O   H1  H2  O   H1  H2  O   H1  H2  O   H1  H2  O   H1  H2  O   H1  
H2  O   H1  H2  O   H1  H2  O   H1  H2  O   H1  H2  O   H1  H2  O   H1  H2  O   
H1  H2  O   H1  H2  O   H1  H2  O   H1  H2  O   H1  H2  O   H1  H2  O   H1  H2  
O   H1  H2  O   H1  H2  O   H1  H2  O   H1  H2  O   H1  H2  O   H1  H2  O   H1  
H2  O   H1  H2  O   H1  H2  O   H1  H2  O   H1  H2  O   H1  H2  O   H1  H2  O   
H1  H2  O   H1  H2  O   H1  H2  O   H1  H2  O   H1  H2  O   H1  H2  O   H1  H2  
O   H1  H2  O   H1  H2  O   H1  H2  O   H1  H2  O   H1  H2  O   H1  H2  O   H1  
H2  O   H1  H2  O   H1  H2  O   H1  H2  O   H1  H2  O   H1  H2  O   H1  H2  O   
H1  H2  O   H1  H2  O   H1  H2  O   H1  H2  O   H1  H2  O   H1  H2  O   H1  H2  
O   H1  H2  O   H1  H2  O   H1  H2  O   H1  H2  O   H1  H2  O   H1  H2  O   H1  
H2  O   H1  H2  O   H1  H2  O   H1  H2  O   H1  H2  O   H1  H2  O   H1  H2  O   
H1  H2  O   H1  H2  O   H1  H2  O   H1  H2  O   H1  H2  O   H1  H2  O   H1  H2  
O   H1  H2  O   H1  H2  O   H1  H2  O   H1  H2  O   H1  H2  O   H1  H2  O   H1  
H2  O   H1  H2  O   H1  H2  O   H1  H2  O   H1  H2  O   H1  H2  O   H1  H2  O   
H1  H2  O   H1  H2  O   H1  H2  O   H1  H2  O   H1  H2  O   H1  H2  O   H1  H2  
O   H1  H2  O   H1  H2  O   H1  H2  O   H1  H2  O   H1  H2  O   H1  H2  O   H1  
H2  O   H1  H2  O   H1  H2  O   H1  H2  O   H1  H2  O   H1  H2  O   H1  H2  O   
H1  H2  O   H1  H2  O   H1  H2  O   H1  H2  O   H1  H2  O   H1  H2  O   H1  H2  
O   H1  H2  O   H1  H2  O   H1  H2  O   H1  H2  O   H1  H2  O   H1  H2  O   H1  
H2  O   H1  H2  O   H1  H2  O   H1  H2  O   H1  H2  O   H1  H2  O   H1  H2  O   
H1  H2  O   H1  H2  O   H1  H2  O   H1  H2  O   H1  H2  O   H1  H2  O   H1  H2  
O   H1  H2  O   H1  H2  O   H1  H2  O   H1  H2  O   H1  H2  O   H1  H2  O   H1  
H2  O   H1  H2  O   H1  H2  O   H1  H2  O   H1  H2  O   H1  H2  O   H1  H2  O   
H1  H2  O   H1  H2  O   H1  H2  O   H1  H2  O   H1  H2  O   H1  H2  O   H1  H2  
O   H1  H2  O   H1  H2  O   H1  H2  O   H1  H2  O   H1  H2  O   H1  H2  O   H1  
H2  O   H1  H2  O   H1  H2  O   H1  H2  O   H1  H2  O   H1  H2  O   H1  H2  O   
H1  H2  O   H1  H2  O   H1  H2  O   H1  H2  O   H1  H2  O   H1  H2  O   H1  H2  
O   H1  H2  O   H1  H2  O   H1  H2  O   H1  H2  O   H1  H2  O   H1  H2  O   H1  
H2  O   H1  H2  O   H1  H2  O   H1  H2  O   H1  H2  O   H1  H2  O   H1  H2  O   
H1  H2  O   H1  H2  O   H1  H2  O   H1  H2  O   H1  H2  O   H1  H2  O   H1  H2  
O   H1  H2  O   H1  H2  O   H1  H2  O   H1  H2  O   H1  H2  O   H1  H2  O   H1  
H2  O   H1  H2  O   H1  H2  O   H1  H2  O   H1  H2  O   H1  H2  O   H1  H2  O   
H1  H2  O   H1  H2  O   H1  H2  O   H1  H2  O   H1  H2  O   H1  H2  O   H1  H2  
O   H1  H2  O   H1  H2  O   H1  H2  O   H1  H2  O   H1  H2  O   H1  H2  O   H1  
H2  O   H1  H2  O   H1  H2  O   H1  H2  O   H1  H2  O   H1  H2  O   H1  H2  O   
H1  H2  O   H1  H2  O   H1  H2  O   H1  H2  O   H1  H2  O   H1  H2  O   H1  H2  
O   H1  H2  O   H1  H2  O   H1  H2  O   H1  H2  O   H1  H2  O   H1  H2  O   H1  
H2  O   H1  H2  O   H1  H2  O   H1  H2  O   H1  H2  O   H1  H2  O   H1  H2  O   
H1  H2  O   H1  H2  O   H1  H2  O   H1  H2  O   H1  H2  O   H1  H2  O   H1  H2  
O   H1  H2  O   H1  H2  O   H1  H2  O   H1  H2  O   H1  H2  O   H1  H2  O   H1  
H2  O   H1  H2  O   H1  H2  O   H1  H2  O   H1  H2  O   H1  H2  O   H1  H2  O   
H1  H2  O   H1  H2  O   H1  H2  O   H1  H2  O   H1  H2  O   H1  H2  O   H1  H2  
O   H1  H2  O   H1  H2  O   H1  H2  O   H1  H2  O   H1  H2  O   H1  H2  O   H1  
H2  O   H1  H2  O   H1  H2  O   H1  H2  O   H1  H2  O   H1  H2  O   H1  H2  O   
H1  H2  O   H1  H2  O   H1  H2  O   H1  H2  O   H1  H2  O   H1  H2  O   H1  H2  
O   H1  H2  O   H1  H2  O   H1  H2  O   H1  H2  O   H1  H2  O   H1  H2  O   H1  
H2  O   H1  H2  O   H1  H2  O   H1  H2  O   H1  H2  O   H1  H2  O   H1  H2  O   
H1  H2  O   H1  H2  O   H1  H2  O   H1  H2  O   H1  H2  O   H1  H2  O   H1  H2  
O   H1  H2  O   H1  H2  O   H1  H2  O   H1  H2  O   H1  H2  O   H1  H2  O   H1  
H2  O   H1  H2  O   H1  H2  O   H1  H2  O   H1  H2  O   H1  H2  O   H1  H2  O   
H1  H2  O   H1  H2  O   H1  H2  O   H1  H2  O   H1  H2  O   H1  H2  O   H1  H2  
O   H1  H2  O   H1  H2  O   H1  H2  O   H1  H2  O   H1  H2  O   H1  H2  O   H1  
H2  O   H1  H2  O   H1  H2  O   H1  H2  O   H1  H2  O   H1  H2  O   H1  H2  O   
H1  H2  O   H1  H2  O   H1  H2  O   H1  H2  O   H1  H2  O   H1  H2  O   H1  H2  
O   H1  H2  O   H1  H2  O   H1  H2  O   H1  H2  O   H1  H2  O   H1  H2  O   H1  
H2  O   H1  H2  O   H1  H2  O   H1  H2  O   H1  H2  O   H1  H2  O   H1  H2  O   
H1  H2  O   H1  H2  O   H1  H2  O   H1  H2  O   H1  H2  O   H1  H2  O   H1  H2  
O   H1  H2  O   H1  H2  O   H1  H2  O   H1  H2  O   H1  H2  O   H1  H2  O   H1  
H2  O   H1  H2  O   H1  H2  O   H1  H2  O   H1  H2  O   H1  H2  O   H1  H2  O   
H1  H2  O   H1  H2  O   H1  H2  O   H1  H2  O   H1  H2  O   H1  H2  O   H1  H2  
O   H1  H2  O   H1  H2  O   H1  H2  O   H1  H2  O   H1  H2  O   H1  H2  O   H1  
H2  O   H1  H2  O   H1  H2  O   H1  H2  O   H1  H2  O   H1  H2  O   H1  H2  O   
H1  H2  O   H1  H2  O   H1  H2  O   H1  H2  O   H1  H2  O   H1  H2  O   H1  H2  
O   H1  H2  O   H1  H2  O   H1  H2  O   H1  H2  O   H1  H2  O   H1  H2  O   H1  
H2  O   H1  H2  O   H1  H2  O   H1  H2  O   H1  H2  O   H1  H2  O   H1  H2  O   
H1  H2  O   H1  H2  O   H1  H2  O   H1  H2  O   H1  H2  O   H1  H2  O   H1  H2  
O   H1  H2  O   H1  H2  O   H1  H2  O   H1  H2  O   H1  H2  O   H1  H2  O   H1  
H2  O   H1  H2  O   H1  H2  O   H1  H2  O   H1  H2  O   H1  H2  O   H1  H2  O   
H1  H2  O   H1  H2  O   H1  H2  O   H1  H2  O   H1  H2  O   H1  H2  O   H1  H2  
O   H1  H2  O   H1  H2  O   H1  H2  O   H1  H2  O   H1  H2  O   H1  H2  O   H1  
H2  O   H1  H2  O   H1  H2  O   H1  H2  O   H1  H2  O   H1  H2  O   H1  H2  O   
H1  H2  O   H1  H2  O   H1  H2  O   H1  H2  O   H1  H2  O   H1  H2  O   H1  H2  
O   H1  H2  O   H1  H2  O   H1  H2  O   H1  H2  O   H1  H2  O   H1  H2  O   H1  
H2  O   H1  H2  O   H1  H2  O   H1  H2  O   H1  H2  O   H1  H2  O   H1  H2  O   
H1  H2  O   H1  H2  O   H1  H2  O   H1  H2  O   H1  H2  O   H1  H2  O   H1  H2  
O   H1  H2  O   H1  H2  O   H1  H2  O   H1  H2  O   H1  H2  O   H1  H2  O   H1  
H2  O   H1  H2  O   H1  H2  O   H1  H2  O   H1  H2  O   H1  H2  O   H1  H2  O   
H1  H2  O   H1  H2  O   H1  H2  O   H1  H2  O   H1  H2  O   H1  H2  O   H1  H2  
O   H1  H2  O   H1  H2  O   H1  H2  O   H1  H2  O   H1  H2  O   H1  H2  O   H1  
H2  O   H1  H2  O   H1  H2  O   H1  H2  O   H1  H2  O   H1  H2  O   H1  H2  O   
H1  H2  O   H1  H2  O   H1  H2  O   H1  H2  O   H1  H2  O   H1  H2  O   H1  H2  
O   H1  H2  O   H1  H2  O   H1  H2  O   H1  H2  O   H1  H2  O   H1  H2  O   H1  
H2  O   H1  H2  O   H1  H2  O   H1  H2  O   H1  H2  O   H1  H2  O   H1  H2  O   
H1  H2  O   H1  H2  O   H1  H2  O   H1  H2  O   H1  H2  O   H1  H2  O   H1  H2  
O   H1  H2  O   H1  H2  O   H1  H2  O   H1  H2  O   H1  H2  O   H1  H2  O   H1  
H2  O   H1  H2  O   H1  H2  O   H1  H2  O   H1  H2  O   H1  H2  O   H1  H2  O   
H1  H2  O   H1  H2  O   H1  H2  O   H1  H2  O   H1  H2  O   H1  H2  O   H1  H2  
O   H1  H2  O   H1  H2  O   H1  H2  O   H1  H2  O   H1  H2  O   H1  H2  O   H1  
H2  O   H1  H2  O   H1  H2  O   H1  H2  O   H1  H2  O   H1  H2  O   H1  H2  O   
H1  H2  O   H1  H2  O   H1  H2  O   H1  H2  O   H1  H2  O   H1  H2  O   H1  H2  
O   H1  H2  O   H1  H2  O   H1  H2  O   H1  H2  O   H1  H2  O   H1  H2  O   H1  
H2  O   H1  H2  O   H1  H2  O   H1  H2  O   H1  H2  O   H1  H2  O   H1  H2  O   
H1  H2  O   H1  H2  O   H1  H2  O   H1  H2  O   H1  H2  O   H1  H2  O   H1  H2  
O   H1  H2  O   H1  H2  O   H1  H2  O   H1  H2  O   H1  H2  O   H1  H2  O   H1  
H2  O   H1  H2  O   H1  H2  O   H1  H2  O   H1  H2  O   H1  H2  O   H1  H2  O   
H1  H2  O   H1  H2  O   H1  H2  O   H1  H2  O   H1  H2  O   H1  H2  O   H1  H2  
O   H1  H2  O   H1  H2  O   H1  H2  O   H1  H2  O   H1  H2  O   H1  H2  O   H1  
H2  O   H1  H2  O   H1  H2  O   H1  H2  O   H1  H2  O   H1  H2  O   H1  H2  O   
H1  H2  O   H1  H2  O   H1  H2  O   H1  H2  O   H1  H2  O   H1  H2  O   H1  H2  
O   H1  H2  O   H1  H2  O   H1  H2  O   H1  H2  O   H1  H2  O   H1  H2  O   H1  
H2  O   H1  H2  O   H1  H2  O   H1  H2  O   H1  H2  O   H1  H2  O   H1  H2  O   
H1  H2  O   H1  H2  O   H1  H2  O   H1  H2  O   H1  H2  O   H1  H2  O   H1  H2  
O   H1  H2  O   H1  H2  O   H1  H2  O   H1  H2  O   H1  H2  O   H1  H2  O   H1  
H2  O   H1  H2  O   H1  H2  O   H1  H2  O   H1  H2  O   H1  H2  O   H1  H2  O   
H1  H2  O   H1  H2  O   H1  H2  O   H1  H2  O   H1  H2  O   H1  H2  O   H1  H2  
O   H1  H2  O   H1  H2  O   H1  H2  O   H1  H2  O   H1  H2  O   H1  H2  O   H1  
H2  O   H1  H2  O   H1  H2  O   H1  H2  O   H1  H2  O   H1  H2  O   H1  H2  O   
H1  H2  O   H1  H2  O   H1  H2  O   H1  H2  O   H1  H2  O   H1  H2  O   H1  H2  
O   H1  H2  O   H1  H2  O   H1  H2  O   H1  H2  O   H1  H2  O   H1  H2  O   H1  
H2  O   H1  H2  O   H1  H2  O   H1  H2  O   H1  H2  O   H1  H2  O   H1  H2  O   
H1  H2  O   H1  H2  O   H1  H2  O   H1  H2  O   H1  H2  O   H1  H2  O   H1  H2  
O   H1  H2  O   H1  H2  O   H1  H2  O   H1  H2  O   H1  H2  O   H1  H2  O   H1  
H2  O   H1  H2  O   H1  H2  O   H1  H2  O   H1  H2  O   H1  H2  O   H1  H2  O   
H1  H2  O   H1  H2  O   H1  H2  O   H1  H2  O   H1  H2  O   H1  H2  O   H1  H2  
O   H1  H2  O   H1  H2  O   H1  H2  O   H1  H2  O   H1  H2  O   H1  H2  O   H1  
H2  O   H1  H2  O   H1  H2  O   H1  H2  O   H1  H2  O   H1  H2  O   H1  H2  O   
H1  H2  O   H1  H2  O   H1  H2  O   H1  H2  O   H1  H2  O   H1  H2  O   H1  H2  
O   H1  H2  O   H1  H2  O   H1  H2  O   H1  H2  O   H1  H2  O   H1  H2  O   H1  
H2  O   H1  H2  O   H1  H2  O   H1  H2  O   H1  H2  O   H1  H2  O   H1  H2  O   
H1  H2  O   H1  H2  O   H1  H2  O   H1  H2  O   H1  H2  O   H1  H2  O   H1  H2  
O   H1  H2  O   H1  H2  O   H1  H2  O   H1  H2  O   H1  H2  O   H1  H2  O   H1  
H2  O   H1  H2  O   H1  H2  O   H1  H2  O   H1  H2  O   H1  H2  O   H1  H2  O   
H1  H2  O   H1  H2  O   H1  H2  O   H1  H2  O   H1  H2  O   H1  H2  O   H1  H2  
O   H1  H2  O   H1  H2  O   H1  H2  O   H1  H2  O   H1  H2  O   H1  H2  O   H1  
H2  O   H1  H2  O   H1  H2  O   H1  H2  O   H1  H2  O   H1  H2  O   H1  H2  O   
H1  H2  O   H1  H2  O   H1  H2  O   H1  H2  O   H1  H2  O   H1  H2  O   H1  H2  
O   H1  H2  O   H1  H2  O   H1  H2  O   H1  H2  O   H1  H2  O   H1  H2  O   H1  
H2  O   H1  H2  O   H1  H2  O   H1  H2  O   H1  H2  O   H1  H2  O   H1  H2  O   
H1  H2  O   H1  H2  O   H1  H2  O   H1  H2  O   H1  H2  O   H1  H2  O   H1  H2  
O   H1  H2  O   H1  H2  O   H1  H2  O   H1  H2  O   H1  H2  O   H1  H2  O   H1  
H2  O   H1  H2  O   H1  H2  O   H1  H2  O   H1  H2  O   H1  H2  O   H1  H2  O   
H1  H2  O   H1  H2  O   H1  H2  O   H1  H2  O   H1  H2  O   H1  H2  O   H1  H2  
O   H1  H2  O   H1  H2  O   H1  H2  O   H1  H2  O   H1  H2  O   H1  H2  O   H1  
H2  O   H1  H2  O   H1  H2  O   H1  H2  O   H1  H2  O   H1  H2  O   H1  H2  O   
H1  H2  O   H1  H2  O   H1  H2  O   H1  H2  O   H1  H2  O   H1  H2  O   H1  H2  
O   H1  H2  O   H1  H2  O   H1  H2  O   H1  H2  O   H1  H2  O   H1  H2  O   H1  
H2  O   H1  H2  O   H1  H2  O   H1  H2  O   H1  H2  O   H1  H2  O   H1  H2  O   
H1  H2  O   H1  H2  O   H1  H2  O   H1  H2  O   H1  H2  O   H1  H2  O   H1  H2  
O   H1  H2  O   H1  H2  O   H1  H2  O   H1  H2  O   H1  H2  O   H1  H2  O   H1  
H2  O   H1  H2  O   H1  H2  O   H1  H2  O   H1  H2  O   H1  H2  O   H1  H2  O   
H1  H2  O   H1  H2  O   H1  H2  O   H1  H2  O   H1  H2  O   H1  H2  O   H1  H2  
O   H1  H2  O   H1  H2  O   H1  H2  O   H1  H2  O   H1  H2  O   H1  H2  O   H1  
H2  O   H1  H2  O   H1  H2  O   H1  H2  O   H1  H2  O   H1  H2  O   H1  H2  O   
H1  H2  O   H1  H2  O   H1  H2  O   H1  H2  O   H1  H2  O   H1  H2  O   H1  H2  
O   H1  H2  O   H1  H2  O   H1  H2  O   H1  H2  O   H1  H2  O   H1  H2  O   H1  
H2  O   H1  H2  O   H1  H2  O   H1  H2  O   H1  H2  O   H1  H2  O   H1  H2  O   
H1  H2  O   H1  H2  O   H1  H2  O   H1  H2  O   H1  H2  O   H1  H2  O   H1  H2  
O   H1  H2  O   H1  H2  O   H1  H2  O   H1  H2  O   H1  H2  O   H1  H2  O   H1  
H2  O   H1  H2  O   H1  H2  O   H1  H2  O   H1  H2  O   H1  H2  O   H1  H2  O   
H1  H2  O   H1  H2  O   H1  H2  O   H1  H2  O   H1  H2  O   H1  H2  O   H1  H2  
O   H1  H2  O   H1  H2  O   H1  H2  O   H1  H2  O   H1  H2  O   H1  H2  O   H1  
H2  O   H1  H2  O   H1  H2  O   H1  H2  O   H1  H2  O   H1  H2  O   H1  H2  O   
H1  H2  O   H1  H2  O   H1  H2  O   H1  H2  O   H1  H2  O   H1  H2  O   H1  H2  
O   H1  H2  O   H1  H2  O   H1  H2  O   H1  H2  O   H1  H2  O   H1  H2  O   H1  
H2  O   H1  H2  O   H1  H2  O   H1  H2  O   H1  H2  O   H1  H2  O   H1  H2  O   
H1  H2  O   H1  H2  O   H1  H2  O   H1  H2  O   H1  H2  O   H1  H2  O   H1  H2  
O   H1  H2  O   H1  H2  O   H1  H2  O   H1  H2  O   H1  H2  O   H1  H2  O   H1  
H2  O   H1  H2  O   H1  H2  O   H1  H2  O   H1  H2  O   H1  H2  O   H1  H2  O   
H1  H2  O   H1  H2  O   H1  H2  O   H1  H2  O   H1  H2  O   H1  H2  O   H1  H2  
O   H1  H2  O   H1  H2  O   H1  H2  O   H1  H2  O   H1  H2  O   H1  H2  O   H1  
H2  O   H1  H2  O   H1  H2  O   H1  H2  O   H1  H2  O   H1  H2  O   H1  H2  O   
H1  H2  O   H1  H2  O   H1  H2  O   H1  H2  O   H1  H2  O   H1  H2  O   H1  H2  
O   H1  H2  O   H1  H2  O   H1  H2  O   H1  H2  O   H1  H2  O   H1  H2  O   H1  
H2  O   H1  H2  O   H1  H2  O   H1  H2  O   H1  H2  O   H1  H2  O   H1  H2  O   
H1  H2  O   H1  H2  O   H1  H2  O   H1  H2  O   H1  H2  O   H1  H2  O   H1  H2  
O   H1  H2  O   H1  H2  O   H1  H2  O   H1  H2  O   H1  H2  O   H1  H2  O   H1  
H2  O   H1  H2  O   H1  H2  O   H1  H2  O   H1  H2  O   H1  H2  O   H1  H2  O   
H1  H2  O   H1  H2  O   H1  H2  O   H1  H2  O   H1  H2  O   H1  H2  O   H1  H2  
O   H1  H2  O   H1  H2  O   H1  H2  O   H1  H2  O   H1  H2  O   H1  H2  O   H1  
H2  O   H1  H2  O   H1  H2  O   H1  H2  O   H1  H2  O   H1  H2  O   H1  H2  O   
H1  H2  O   H1  H2  O   H1  H2  O   H1  H2  O   H1  H2  O   H1  H2  O   H1  H2  
O   H1  H2  O   H1  H2  O   H1  H2  O   H1  H2  O   H1  H2  O   H1  H2  O   H1  
H2  O   H1  H2  O   H1  H2  O   H1  H2  O   H1  H2  O   H1  H2  O   H1  H2  O   
H1  H2  O   H1  H2  O   H1  H2  O   H1  H2  O   H1  H2  O   H1  H2  O   H1  H2  
O   H1  H2  O   H1  H2  O   H1  H2  O   H1  H2  O   H1  H2  O   H1  H2  O   H1  
H2  O   H1  H2  O   H1  H2  O   H1  H2  O   H1  H2  O   H1  H2  O   H1  H2  O   
H1  H2  O   H1  H2  O   H1  H2  O   H1  H2  O   H1  H2  O   H1  H2  O   H1  H2  
O   H1  H2  O   H1  H2  O   H1  H2  O   H1  H2  O   H1  H2  O   H1  H2  O   H1  
H2  O   H1  H2  O   H1  H2  O   H1  H2  O   H1  H2  O   H1  H2  O   H1  H2  O   
H1  H2  O   H1  H2  O   H1  H2  O   H1  H2  O   H1  H2  O   H1  H2  O   H1  H2  
O   H1  H2  O   H1  H2  O   H1  H2  O   H1  H2  O   H1  H2  O   H1  H2  O   H1  
H2  O   H1  H2  O   H1  H2  O   H1  H2  O   H1  H2  O   H1  H2  O   H1  H2  O   
H1  H2  O   H1  H2  O   H1  H2  O   H1  H2  O   H1  H2  O   H1  H2  O   H1  H2  
O   H1  H2  O   H1  H2  O   H1  H2  O   H1  H2  O   H1  H2  O   H1  H2  O   H1  
H2  O   H1  H2  O   H1  H2  O   H1  H2  O   H1  H2  O   H1  H2  O   H1  H2  O   
H1  H2  O   H1  H2  O   H1  H2  O   H1  H2  O   H1  H2  O   H1  H2  O   H1  H2  
O   H1  H2  O   H1  H2  O   H1  H2  O   H1  H2  O   H1  H2  O   H1  H2  O   H1  
H2  O   H1  H2  O   H1  H2  O   H1  H2  O   H1  H2  O   H1  H2  O   H1  H2  O   
H1  H2  O   H1  H2  O   H1  H2  O   H1  H2  O   H1  H2  O   H1  H2  O   H1  H2  
O   H1  H2  O   H1  H2  O   H1  H2  O   H1  H2  O   H1  H2  O   H1  H2  O   H1  
H2  O   H1  H2  O   H1  H2  O   H1  H2  O   H1  H2  O   H1  H2  O   H1  H2  O   
H1  H2  O   H1  H2  O   H1  H2  O   H1  H2  O   H1  H2  O   H1  H2  O   H1  H2  
O   H1  H2  O   H1  H2  O   H1  H2  O   H1  H2  O   H1  H2  O   H1  H2  O   H1  
H2  O   H1  H2  O   H1  H2  O   H1  H2  O   H1  H2  O   H1  H2  O   H1  H2  O   
H1  H2  O   H1  H2  O   H1  H2  O   H1  H2  O   H1  H2  O   H1  H2  O   H1  H2  
O   H1  H2  O   H1  H2  O   H1  H2  O   H1  H2  O   H1  H2  O   H1  H2  O   H1  
H2  O   H1  H2  O   H1  H2  O   H1  H2  O   H1  H2  O   H1  H2  O   H1  H2  O   
H1  H2  O   H1  H2  O   H1  H2  O   H1  H2  O   H1  H2  O   H1  H2  O   H1  H2  
O   H1  H2  O   H1  H2  O   H1  H2  O   H1  H2  O   H1  H2  O   H1  H2  O   H1  
H2  O   H1  H2  O   H1  H2  O   H1  H2  O   H1  H2  O   H1  H2  O   H1  H2  O   
H1  H2  O   H1  H2  O   H1  H2  O   H1  H2  O   H1  H2  O   H1  H2  O   H1  H2  
O   H1  H2  O   H1  H2  O   H1  H2  O   H1  H2  O   H1  H2  O   H1  H2  O   H1  
H2  O   H1  H2  O   H1  H2  O   H1  H2  O   H1  H2  O   H1  H2  O   H1  H2  O   
H1  H2  O   H1  H2  O   H1  H2  O   H1  H2  O   H1  H2  O   H1  H2  O   H1  H2  
O   H1  H2  O   H1  H2  O   H1  H2  O   H1  H2  O   H1  H2  O   H1  H2  O   H1  
H2  O   H1  H2  O   H1  H2  O   H1  H2  O   H1  H2  O   H1  H2  O   H1  H2  O   
H1  H2  O   H1  H2  O   H1  H2  O   H1  H2  O   H1  H2  O   H1  H2  O   H1  H2  
O   H1  H2  O   H1  H2  O   H1  H2  O   H1  H2  O   H1  H2  O   H1  H2  O   H1  
H2  O   H1  H2  O   H1  H2  O   H1  H2  O   H1  H2  O   H1  H2  O   H1  H2  O   
H1  H2  O   H1  H2  O   H1  H2  O   H1  H2  O   H1  H2  O   H1  H2  O   H1  H2  
O   H1  H2  O   H1  H2  O   H1  H2  O   H1  H2  O   H1  H2  O   H1  H2  O   H1  
H2  O   H1  H2  O   H1  H2  O   H1  H2  O   H1  H2  O   H1  H2  O   H1  H2  O   
H1  H2  O   H1  H2  O   H1  H2  O   H1  H2  O   H1  H2  O   H1  H2  O   H1  H2  
O   H1  H2  O   H1  H2  O   H1  H2  O   H1  H2  O   H1  H2  O   H1  H2  O   H1  
H2  O   H1  H2  O   H1  H2  O   H1  H2  O   H1  H2  O   H1  H2  O   H1  H2  O   
H1  H2  O   H1  H2  O   H1  H2  O   H1  H2  O   H1  H2  O   H1  H2  O   H1  H2  
O   H1  H2  O   H1  H2  O   H1  H2  O   H1  H2  O   H1  H2  O   H1  H2  O   H1  
H2  O   H1  H2  O   H1  H2  O   H1  H2  O   H1  H2  O   H1  H2  O   H1  H2  O   
H1  H2  O   H1  H2  O   H1  H2  O   H1  H2  O   H1  H2  O   H1  H2  O   H1  H2  
O   H1  H2  O   H1  H2  O   H1  H2  O   H1  H2  O   H1  H2  O   H1  H2  O   H1  
H2  O   H1  H2  O   H1  H2  O   H1  H2  O   H1  H2  O   H1  H2  O   H1  H2  O   
H1  H2  O   H1  H2  O   H1  H2  O   H1  H2  O   H1  H2  O   H1  H2  O   H1  H2  
O   H1  H2  O   H1  H2  O   H1  H2  O   H1  H2  O   H1  H2  O   H1  H2  O   H1  
H2  O   H1  H2  O   H1  H2  O   H1  H2  O   H1  H2  O   H1  H2  O   H1  H2  O   
H1  H2  O   H1  H2  O   H1  H2  O   H1  H2  O   H1  H2  O   H1  H2  O   H1  H2  
O   H1  H2  O   H1  H2  O   H1  H2  O   H1  H2  O   H1  H2  O   H1  H2  O   H1  
H2  O   H1  H2  O   H1  H2  O   H1  H2  O   H1  H2  O   H1  H2  O   H1  H2  O   
H1  H2  O   H1  H2  O   H1  H2  O   H1  H2  O   H1  H2  O   H1  H2  O   H1  H2  
O   H1  H2  O   H1  H2  O   H1  H2  O   H1  H2  O   H1  H2  O   H1  H2  O   H1  
H2  O   H1  H2  O   H1  H2  O   H1  H2  O   H1  H2  O   H1  H2  O   H1  H2  O   
H1  H2  O   H1  H2  O   H1  H2  O   H1  H2  O   H1  H2  O   H1  H2  O   H1  H2  
O   H1  H2  O   H1  H2  O   H1  H2  O   H1  H2  O   H1  H2  O   H1  H2  O   H1  
H2  O   H1  H2  O   H1  H2  O   H1  H2  O   H1  H2  O   H1  H2  O   H1  H2  O   
H1  H2  O   H1  H2  O   H1  H2  O   H1  H2  O   H1  H2  O   H1  H2  O   H1  H2  
O   H1  H2  O   H1  H2  O   H1  H2  O   H1  H2  O   H1  H2  O   H1  H2  O   H1  
H2  O   H1  H2  O   H1  H2  O   H1  H2  O   H1  H2  O   H1  H2  O   H1  H2  O   
H1  H2  O   H1  H2  O   H1  H2  O   H1  H2  O   H1  H2  O   H1  H2  O   H1  H2  
O   H1  H2  O   H1  H2  O   H1  H2  O   H1  H2  O   H1  H2  O   H1  H2  O   H1  
H2  O   H1  H2  O   H1  H2  O   H1  H2  O   H1  H2  O   H1  H2  O   H1  H2  O   
H1  H2  O   H1  H2  O   H1  H2  O   H1  H2  O   H1  H2  O   H1  H2  O   H1  H2  
O   H1  H2  O   H1  H2  O   H1  H2  O   H1  H2  O   H1  H2  O   H1  H2  O   H1  
H2  O   H1  H2  O   H1  H2  O   H1  H2  O   H1  H2  O   H1  H2  O   H1  H2  O   
H1  H2  O   H1  H2  O   H1  H2  O   H1  H2  O   H1  H2  O   H1  H2  O   H1  H2  
O   H1  H2  O   H1  H2  O   H1  H2  O   H1  H2  O   H1  H2  O   H1  H2  O   H1  
H2  O   H1  H2  O   H1  H2  O   H1  H2  O   H1  H2  O   H1  H2  O   H1  H2  O   
H1  H2  O   H1  H2  O   H1  H2  O   H1  H2  O   H1  H2  O   H1  H2  O   H1  H2  
O   H1  H2  O   H1  H2  O   H1  H2  O   H1  H2  O   H1  H2  O   H1  H2  O   H1  
H2  O   H1  H2  O   H1  H2  O   H1  H2  O   H1  H2  O   H1  H2  O   H1  H2  O   
H1  H2  O   H1  H2  O   H1  H2  O   H1  H2  O   H1  H2  O   H1  H2  O   H1  H2  
O   H1  H2  O   H1  H2  O   H1  H2  O   H1  H2  O   H1  H2  O   H1  H2  O   H1  
H2  O   H1  H2  O   H1  H2  O   H1  H2  O   H1  H2  O   H1  H2  O   H1  H2  O   
H1  H2  O   H1  H2  O   H1  H2  O   H1  H2  O   H1  H2  O   H1  H2  O   H1  H2  
O   H1  H2  O   H1  H2  O   H1  H2  O   H1  H2  O   H1  H2  O   H1  H2  O   H1  
H2  O   H1  H2  O   H1  H2  O   H1  H2  O   H1  H2  O   H1  H2  O   H1  H2  O   
H1  H2  O   H1  H2  O   H1  H2  O   H1  H2  O   H1  H2  O   H1  H2  O   H1  H2  
O   H1  H2  O   H1  H2  O   H1  H2  O   H1  H2  O   H1  H2  O   H1  H2  O   H1  
H2  O   H1  H2  O   H1  H2  O   H1  H2  O   H1  H2  O   H1  H2  O   H1  H2  O   
H1  H2  O   H1  H2  O   H1  H2  O   H1  H2  O   H1  H2  O   H1  H2  O   H1  H2  
O   H1  H2  O   H1  H2  O   H1  H2  O   H1  H2  O   H1  H2  O   H1  H2  O   H1  
H2  O   H1  H2  O   H1  H2  O   H1  H2  O   H1  H2  O   H1  H2  O   H1  H2  O   
H1  H2  O   H1  H2  O   H1  H2  O   H1  H2  O   H1  H2  O   H1  H2  O   H1  H2  
O   H1  H2  O   H1  H2  O   H1  H2  O   H1  H2  O   H1  H2  O   H1  H2  O   H1  
H2  O   H1  H2  O   H1  H2  O   H1  H2  O   H1  H2  O   H1  H2  O   H1  H2  O   
H1  H2  O   H1  H2  O   H1  H2  O   H1  H2  O   H1  H2  O   H1  H2  O   H1  H2  
O   H1  H2  O   H1  H2  O   H1  H2  O   H1  H2  O   H1  H2  O   H1  H2  O   H1  
H2  O   H1  H2  O   H1  H2  O   H1  H2  O   H1  H2  O   H1  H2  O   H1  H2  O   
H1  H2  O   H1  H2  O   H1  H2  O   H1  H2  O   H1  H2  O   H1  H2  O   H1  H2  
O   H1  H2  O   H1  H2  O   H1  H2  O   H1  H2  O   H1  H2  O   H1  H2  O   H1  
H2  O   H1  H2  O   H1  H2  O   H1  H2  O   H1  H2  O   H1  H2  O   H1  H2  O   
H1  H2  O   H1  H2  O   H1  H2  O   H1  H2  O   H1  H2  O   H1  H2  O   H1  H2  
O   H1  H2  O   H1  H2  O   H1  H2  O   H1  H2  O   H1  H2  O   H1  H2  O   H1  
H2  O   H1  H2  O   H1  H2  O   H1  H2  O   H1  H2  O   H1  H2  O   H1  H2  O   
H1  H2  O   H1  H2  O   H1  H2  O   H1  H2  O   H1  H2  O   H1  H2  O   H1  H2  
O   H1  H2  O   H1  H2  O   H1  H2  O   H1  H2  O   H1  H2  O   H1  H2  O   H1  
H2  O   H1  H2  O   H1  H2  O   H1  H2  O   H1  H2  O   H1  H2  O   H1  H2  O   
H1  H2  O   H1  H2  O   H1  H2  O   H1  H2  O   H1  H2  O   H1  H2  O   H1  H2  
O   H1  H2  O   H1  H2  O   H1  H2  O   H1  H2  O   H1  H2  O   H1  H2  O   H1  
H2  O   H1  H2  O   H1  H2  O   H1  H2  O   H1  H2  O   H1  H2  O   H1  H2  O   
H1  H2  O   H1  H2  O   H1  H2  O   H1  H2  O   H1  H2  O   H1  H2  O   H1  H2  
O   H1  H2  O   H1  H2  O   H1  H2  O   H1  H2  O   H1  H2  O   H1  H2  O   H1  
H2  O   H1  H2  O   H1  H2  O   H1  H2  O   H1  H2  O   H1  H2  O   H1  H2  O   
H1  H2  O   H1  H2  O   H1  H2  O   H1  H2  O   H1  H2  O   H1  H2  O   H1  H2  
O   H1  H2  O   H1  H2  O   H1  H2  O   H1  H2  O   H1  H2  O   H1  H2  O   H1  
H2  O   H1  H2  O   H1  H2  O   H1  H2  O   H1  H2  O   H1  H2  O   H1  H2  O   
H1  H2  O   H1  H2  O   H1  H2  O   H1  H2  O   H1  H2  O   H1  H2  O   H1  H2  
O   H1  H2  O   H1  H2  O   H1  H2  O   H1  H2  O   H1  H2  O   H1  H2  O   H1  
H2  O   H1  H2  O   H1  H2  O   H1  H2  O   H1  H2  O   H1  H2  O   H1  H2  O   
H1  H2  O   H1  H2  O   H1  H2  O   H1  H2  O   H1  H2  O   H1  H2  O   H1  H2  
O   H1  H2  O   H1  H2  O   H1  H2  O   H1  H2  O   H1  H2  O   H1  H2  O   H1  
H2  O   H1  H2  O   H1  H2  O   H1  H2  O   H1  H2  O   H1  H2  O   H1  H2  O   
H1  H2  O   H1  H2  O   H1  H2  O   H1  H2  O   H1  H2  O   H1  H2  O   H1  H2  
O   H1  H2  O   H1  H2  O   H1  H2  O   H1  H2  O   H1  H2  O   H1  H2  O   H1  
H2  O   H1  H2  O   H1  H2  O   H1  H2  O   H1  H2  O   H1  H2  O   H1  H2  O   
H1  H2  O   H1  H2  O   H1  H2  O   H1  H2  O   H1  H2  O   H1  H2  O   H1  H2  
O   H1  H2  O   H1  H2  O   H1  H2  O   H1  H2  O   H1  H2  O   H1  H2  O   H1  
H2  O   H1  H2  O   H1  H2  O   H1  H2  O   H1  H2  O   H1  H2  O   H1  H2  O   
H1  H2  O   H1  H2  O   H1  H2  O   H1  H2  O   H1  H2  O   H1  H2  O   H1  H2  
O   H1  H2  O   H1  H2  O   H1  H2  O   H1  H2  O   H1  H2  O   H1  H2  O   H1  
H2  O   H1  H2  O   H1  H2  O   H1  H2  O   H1  H2  O   H1  H2  O   H1  H2  O   
H1  H2  O   H1  H2  O   H1  H2  O   H1  H2  O   H1  H2  O   H1  H2  O   H1  H2  
O   H1  H2  O   H1  H2  O   H1  H2  O   H1  H2  O   H1  H2  O   H1  H2  O   H1  
H2  O   H1  H2  O   H1  H2  O   H1  H2  O   H1  H2  O   H1  H2  O   H1  H2  O   
H1  H2  O   H1  H2  O   H1  H2  O   H1  H2  O   H1  H2  O   H1  H2  O   H1  H2  
O   H1  H2  O   H1  H2  O   H1  H2  O   H1  H2  O   H1  H2  O   H1  H2  O   H1  
H2  O   H1  H2  O   H1  H2  O   H1  H2  O   H1  H2  O   H1  H2  O   H1  H2  O   
H1  H2  O   H1  H2  O   H1  H2  O   H1  H2  O   H1  H2  O   H1  H2  O   H1  H2  
O   H1  H2  O   H1  H2  O   H1  H2  O   H1  H2  O   H1  H2  O   H1  H2  O   H1  
H2  O   H1  H2  O   H1  H2  O   H1  H2  O   H1  H2  O   H1  H2  O   H1  H2  O   
H1  H2  O   H1  H2  O   H1  H2  O   H1  H2  O   H1  H2  O   H1  H2  O   H1  H2  
O   H1  H2  O   H1  H2  O   H1  H2  O   H1  H2  O   H1  H2  O   H1  H2  O   H1  
H2  O   H1  H2  O   H1  H2  O   H1  H2  O   H1  H2  O   H1  H2  O   H1  H2  O   
H1  H2  O   H1  H2  O   H1  H2  O   H1  H2  O   H1  H2  O   H1  H2  O   H1  H2  
O   H1  H2  O   H1  H2  O   H1  H2  O   H1  H2  O   H1  H2  O   H1  H2  O   H1  
H2  O   H1  H2  O   H1  H2  O   H1  H2  O   H1  H2  O   H1  H2  O   H1  H2  O   
H1  H2  O   H1  H2  O   H1  H2  O   H1  H2  O   H1  H2  O   H1  H2  O   H1  H2  
O   H1  H2  O   H1  H2  O   H1  H2  O   H1  H2  O   H1  H2  O   H1  H2  O   H1  
H2  O   H1  H2  O   H1  H2  O   H1  H2  O   H1  H2  O   H1  H2  O   H1  H2  O   
H1  H2  O   H1  H2  O   H1  H2  O   H1  H2  O   H1  H2  O   H1  H2  O   H1  H2  
O   H1  H2  O   H1  H2  O   H1  H2  O   H1  H2  O   H1  H2  O   H1  H2  O   H1  
H2  O   H1  H2  O   H1  H2  O   H1  H2  O   H1  H2  O   H1  H2  O   H1  H2  O   
H1  H2  O   H1  H2  O   H1  H2  O   H1  H2  O   H1  H2  O   H1  H2  O   H1  H2  
O   H1  H2  O   H1  H2  O   H1  H2  O   H1  H2  O   H1  H2  O   H1  H2  O   H1  
H2  O   H1  H2  O   H1  H2  O   H1  H2  O   H1  H2  O   H1  H2  O   H1  H2  O   
H1  H2  O   H1  H2  O   H1  H2  O   H1  H2  O   H1  H2  O   H1  H2  O   H1  H2  
O   H1  H2  O   H1  H2  O   H1  H2  O   H1  H2  O   H1  H2  O   H1  H2  O   H1  
H2  O   H1  H2  O   H1  H2  O   H1  H2  O   H1  H2  O   H1  H2  O   H1  H2  O   
H1  H2  O   H1  H2  O   H1  H2  O   H1  H2  O   H1  H2  O   H1  H2  O   H1  H2  
O   H1  H2  O   H1  H2  O   H1  H2  O   H1  H2  O   H1  H2  O   H1  H2  O   H1  
H2  O   H1  H2  O   H1  H2  O   H1  H2  O   H1  H2  O   H1  H2  O   H1  H2  O   
H1  H2  O   H1  H2  O   H1  H2  O   H1  H2  O   H1  H2  O   H1  H2  O   H1  H2  
O   H1  H2  O   H1  H2  O   H1  H2  O   H1  H2  O   H1  H2  O   H1  H2  O   H1  
H2  O   H1  H2  O   H1  H2  O   H1  H2  O   H1  H2  O   H1  H2  O   H1  H2  O   
H1  H2  O   H1  H2  O   H1  H2  O   H1  H2  O   H1  H2  O   H1  H2  O   H1  H2  
O   H1  H2  O   H1  H2  O   H1  H2  O   H1  H2  O   H1  H2  O   H1  H2  O   H1  
H2  O   H1  H2  O   H1  H2  O   H1  H2  O   H1  H2  O   H1  H2  O   H1  H2  O   
H1  H2  O   H1  H2  O   H1  H2  O   H1  H2  O   H1  H2  O   H1  H2  O   H1  H2  
O   H1  H2  O   H1  H2  O   H1  H2  O   H1  H2  O   H1  H2  O   H1  H2  O   H1  
H2  O   H1  H2  O   H1  H2  O   H1  H2  O   H1  H2  O   H1  H2  O   H1  H2  O   
H1  H2  O   H1  H2  O   H1  H2  O   H1  H2  O   H1  H2  O   H1  H2  O   H1  H2  
O   H1  H2  O   H1  H2  O   H1  H2  O   H1  H2  O   H1  H2  O   H1  H2  O   H1  
H2  O   H1  H2  O   H1  H2  O   H1  H2  O   H1  H2  O   H1  H2  O   H1  H2  O   
H1  H2  O   H1  H2  O   H1  H2  O   H1  H2  O   H1  H2  O   H1  H2  O   H1  H2  
O   H1  H2  O   H1  H2  O   H1  H2  O   H1  H2  O   H1  H2  O   H1  H2  O   H1  
H2  O   H1  H2  O   H1  H2  O   H1  H2  O   H1  H2  O   H1  H2  O   H1  H2  O   
H1  H2  O   H1  H2  O   H1  H2  O   H1  H2  O   H1  H2  O   H1  H2  O   H1  H2  
O   H1  H2  O   H1  H2  O   H1  H2  O   H1  H2  O   H1  H2  O   H1  H2  O   H1  
H2  O   H1  H2  O   H1  H2  O   H1  H2  O   H1  H2  O   H1  H2  O   H1  H2  O   
H1  H2  O   H1  H2  O   H1  H2  O   H1  H2  O   H1  H2  O   H1  H2  O   H1  H2  
O   H1  H2  O   H1  H2  O   H1  H2  O   H1  H2  O   H1  H2  O   H1  H2  O   H1  
H2  O   H1  H2  O   H1  H2  O   H1  H2  O   H1  H2  O   H1  H2  O   H1  H2  O   
H1  H2  O   H1  H2  O   H1  H2  O   H1  H2  O   H1  H2  O   H1  H2  O   H1  H2  
O   H1  H2  O   H1  H2  O   H1  H2  O   H1  H2  O   H1  H2  O   H1  H2  O   H1  
H2  O   H1  H2  O   H1  H2  O   H1  H2  O   H1  H2  O   H1  H2  O   H1  H2  O   
H1  H2  O   H1  H2  O   H1  H2  O   H1  H2  O   H1  H2  O   H1  H2  O   H1  H2  
O   H1  H2  O   H1  H2  O   H1  H2  O   H1  H2  O   H1  H2  O   H1  H2  O   H1  
H2  O   H1  H2  O   H1  H2  O   H1  H2  O   H1  H2  O   H1  H2  O   H1  H2  O   
H1  H2  O   H1  H2  O   H1  H2  O   H1  H2  O   H1  H2  O   H1  H2  O   H1  H2  
O   H1  H2  O   H1  H2  O   H1  H2  O   H1  H2  O   H1  H2  O   H1  H2  O   H1  
H2  O   H1  H2  O   H1  H2  O   H1  H2  O   H1  H2  O   H1  H2  O   H1  H2  O   
H1  H2  O   H1  H2  O   H1  H2  O   H1  H2  O   H1  H2  O   H1  H2  O   H1  H2  
O   H1  H2  O   H1  H2  O   H1  H2  O   H1  H2  O   H1  H2  O   H1  H2  O   H1  
H2  O   H1  H2  O   H1  H2  O   H1  H2  O   H1  H2  O   H1  H2  O   H1  H2  O   
H1  H2  O   H1  H2  O   H1  H2  O   H1  H2  O   H1  H2  O   H1  H2  O   H1  H2  
O   H1  H2  O   H1  H2  O   H1  H2  O   H1  H2  O   H1  H2  O   H1  H2  O   H1  
H2  O   H1  H2  O   H1  H2  O   H1  H2  O   H1  H2  O   H1  H2  O   H1  H2  O   
H1  H2  O   H1  H2  O   H1  H2  O   H1  H2  O   H1  H2  O   H1  H2  O   H1  H2  
O   H1  H2  O   H1  H2  O   H1  H2  O   H1  H2  O   H1  H2  O   H1  H2  O   H1  
H2  O   H1  H2  O   H1  H2  O   H1  H2  O   H1  H2  O   H1  H2  O   H1  H2  O   
H1  H2  O   H1  H2  O   H1  H2  O   H1  H2  O   H1  H2  O   H1  H2  O   H1  H2  
O   H1  H2  O   H1  H2  O   H1  H2  O   H1  H2  O   H1  H2  O   H1  H2  O   H1  
H2  O   H1  H2  O   H1  H2  O   H1  H2  O   H1  H2  O   H1  H2  O   H1  H2  O   
H1  H2  O   H1  H2  O   H1  H2  O   H1  H2  O   H1  H2  O   H1  H2  O   H1  H2  
O   H1  H2  O   H1  H2  O   H1  H2  O   H1  H2  O   H1  H2  O   H1  H2  O   H1  
H2  O   H1  H2  O   H1  H2  O   H1  H2  O   H1  H2  O   H1  H2  O   H1  H2  O   
H1  H2  O   H1  H2  O   H1  H2  O   H1  H2  O   H1  H2  O   H1  H2  O   H1  H2  
O   H1  H2  O   H1  H2  O   H1  H2  O   H1  H2  O   H1  H2  O   H1  H2  O   H1  
H2  O   H1  H2  O   H1  H2  O   H1  H2  O   H1  H2  O   H1  H2  O   H1  H2  O   
H1  H2  O   H1  H2  O   H1  H2  O   H1  H2  O   H1  H2  O   H1  H2  O   H1  H2  
O   H1  H2  O   H1  H2  O   H1  H2  O   H1  H2  O   H1  H2  O   H1  H2  O   H1  
H2  O   H1  H2  O   H1  H2  O   H1  H2  O   H1  H2  O   H1  H2  O   H1  H2  O   
H1  H2  O   H1  H2  O   H1  H2  O   H1  H2  O   H1  H2  O   H1  H2  O   H1  H2  
O   H1  H2  O   H1  H2  O   H1  H2  O   H1  H2  O   H1  H2  O   H1  H2  O   H1  
H2  O   H1  H2  O   H1  H2  O   H1  H2  O   H1  H2  O   H1  H2  O   H1  H2  O   
H1  H2  O   H1  H2  O   H1  H2  O   H1  H2  O   H1  H2  O   H1  H2  O   H1  H2  
O   H1  H2  O   H1  H2  O   H1  H2  O   H1  H2  O   H1  H2  O   H1  H2  O   H1  
H2  O   H1  H2  O   H1  H2  O   H1  H2  O   H1  H2  O   H1  H2  O   H1  H2  O   
H1  H2  O   H1  H2  O   H1  H2  O   H1  H2  O   H1  H2  O   H1  H2  O   H1  H2  
O   H1  H2  O   H1  H2  O   H1  H2  O   H1  H2  O   H1  H2  O   H1  H2  O   H1  
H2  O   H1  H2  O   H1  H2  O   H1  H2  O   H1  H2  O   H1  H2  O   H1  H2  O   
H1  H2  O   H1  H2  O   H1  H2  O   H1  H2  O   H1  H2  O   H1  H2  O   H1  H2  
O   H1  H2  O   H1  H2  O   H1  H2  O   H1  H2  O   H1  H2  O   H1  H2  O   H1  
H2  O   H1  H2  O   H1  H2  O   H1  H2  O   H1  H2  O   H1  H2  O   H1  H2  O   
H1  H2  O   H1  H2  O   H1  H2  O   H1  H2  O   H1  H2  O   H1  H2  O   H1  H2  
O   H1  H2  O   H1  H2  O   H1  H2  O   H1  H2  O   H1  H2  O   H1  H2  O   H1  
H2  O   H1  H2  O   H1  H2  O   H1  H2  O   H1  H2  O   H1  H2  O   H1  H2  O   
H1  H2  O   H1  H2  O   H1  H2  O   H1  H2  O   H1  H2  O   H1  H2  O   H1  H2  
O   H1  H2  O   H1  H2  O   H1  H2  O   H1  H2  O   H1  H2  O   H1  H2  O   H1  
H2  O   H1  H2  O   H1  H2  O   H1  H2  O   H1  H2  O   H1  H2  O   H1  H2  O   
H1  H2  O   H1  H2  O   H1  H2  O   H1  H2  O   H1  H2  O   H1  H2  O   H1  H2  
O   H1  H2  O   H1  H2  O   H1  H2  O   H1  H2  O   H1  H2  O   H1  H2  O   H1  
H2  O   H1  H2  O   H1  H2  O   H1  H2  O   H1  H2  O   H1  H2  O   H1  H2  O   
H1  H2  O   H1  H2  O   H1  H2  O   H1  H2  O   H1  H2  O   H1  H2  O   H1  H2  
O   H1  H2  O   H1  H2  O   H1  H2  O   H1  H2  O   H1  H2  O   H1  H2  O   H1  
H2  O   H1  H2  O   H1  H2  O   H1  H2  O   H1  H2  O   H1  H2  O   H1  H2  O   
H1  H2  O   H1  H2  O   H1  H2  O   H1  H2  O   H1  H2  O   H1  H2  O   H1  H2  
O   H1  H2  O   H1  H2  O   H1  H2  O   H1  H2  O   H1  H2  O   H1  H2  O   H1  
H2  O   H1  H2  O   H1  H2  O   H1  H2  O   H1  H2  O   H1  H2  O   H1  H2  O   
H1  H2  O   H1  H2  O   H1  H2  O   H1  H2  O   H1  H2  O   H1  H2  O   H1  H2  
O   H1  H2  O   H1  H2  O   H1  H2  O   H1  H2  O   H1  H2  O   H1  H2  O   H1  
H2  O   H1  H2  O   H1  H2  O   H1  H2  O   H1  H2  O   H1  H2  O   H1  H2  O   
H1  H2  O   H1  H2  O   H1  H2  O   H1  H2  O   H1  H2  O   H1  H2  O   H1  H2  
O   H1  H2  O   H1  H2  O   H1  H2  O   H1  H2  O   H1  H2  O   H1  H2  O   H1  
H2  O   H1  H2  O   H1  H2  O   H1  H2  O   H1  H2  O   H1  H2  O   H1  H2  O   
H1  H2  O   H1  H2  O   H1  H2  O   H1  H2  O   H1  H2  O   H1  H2  O   H1  H2  
O   H1  H2  O   H1  H2  O   H1  H2  O   H1  H2  O   H1  H2  O   H1  H2  O   H1  
H2  O   H1  H2  O   H1  H2  O   H1  H2  O   H1  H2  O   H1  H2  O   H1  H2  O   
H1  H2  O   H1  H2  O   H1  H2  O   H1  H2  O   H1  H2  O   H1  H2  O   H1  H2  
O   H1  H2  O   H1  H2  O   H1  H2  O   H1  H2  O   H1  H2  O   H1  H2  O   H1  
H2  O   H1  H2  O   H1  H2  O   H1  H2  O   H1  H2  O   H1  H2  O   H1  H2  O   
H1  H2  O   H1  H2  O   H1  H2  O   H1  H2  O   H1  H2  O   H1  H2  O   H1  H2  
O   H1  H2  O   H1  H2  O   H1  H2  O   H1  H2  O   H1  H2  O   H1  H2  O   H1  
H2  O   H1  H2  O   H1  H2  O   H1  H2  O   H1  H2  O   H1  H2  O   H1  H2  O   
H1  H2  O   H1  H2  O   H1  H2  O   H1  H2  O   H1  H2  O   H1  H2  O   H1  H2  
O   H1  H2  O   H1  H2  O   H1  H2  O   H1  H2  O   H1  H2  O   H1  H2  O   H1  
H2  O   H1  H2  O   H1  H2  O   H1  H2  O   H1  H2  O   H1  H2  O   H1  H2  O   
H1  H2  O   H1  H2  O   H1  H2  O   H1  H2  O   H1  H2  O   H1  H2  O   H1  H2  
O   H1  H2  O   H1  H2  O   H1  H2  O   H1  H2  O   H1  H2  O   H1  H2  O   H1  
H2  O   H1  H2  O   H1  H2  O   H1  H2  O   H1  H2  O   H1  H2  O   H1  H2  O   
H1  H2  O   H1  H2  O   H1  H2  O   H1  H2  O   H1  H2  O   H1  H2  O   H1  H2  
O   H1  H2  O   H1  H2  O   H1  H2  O   H1  H2  O   H1  H2  O   H1  H2  O   H1  
H2  O   H1  H2  O   H1  H2  O   H1  H2  O   H1  H2  O   H1  H2  O   H1  H2  O   
H1  H2  O   H1  H2  O   H1  H2  O   H1  H2  O   H1  H2  O   H1  H2  O   H1  H2  
O   H1  H2  O   H1  H2  O   H1  H2  O   H1  H2  O   H1  H2  O   H1  H2  O   H1  
H2  O   H1  H2  O   H1  H2  O   H1  H2  O   H1  H2  O   H1  H2  O   H1  H2  O   
H1  H2  O   H1  H2  O   H1  H2  O   H1  H2  O   H1  H2  O   H1  H2  O   H1  H2  
O   H1  H2  O   H1  H2  O   H1  H2  O   H1  H2  O   H1  H2  O   H1  H2  O   H1  
H2  O   H1  H2  O   H1  H2  O   H1  H2  O   H1  H2  O   H1  H2  O   H1  H2  O   
H1  H2  O   H1  H2  O   H1  H2  O   H1  H2  O   H1  H2  O   H1  H2  O   H1  H2  
O   H1  H2  O   H1  H2  O   H1  H2  O   H1  H2  O   H1  H2  O   H1  H2  O   H1  
H2  O   H1  H2  O   H1  H2  O   H1  H2  O   H1  H2  O   H1  H2  O   H1  H2  O   
H1  H2  O   H1  H2  O   H1  H2  O   H1  H2  O   H1  H2  O   H1  H2  O   H1  H2  
O   H1  H2  O   H1  H2  O   H1  H2  O   H1  H2  O   H1  H2  O   H1  H2  O   H1  
H2  O   H1  H2  O   H1  H2  O   H1  H2  O   H1  H2  O   H1  H2  O   H1  H2  O   
H1  H2  O   H1  H2  O   H1  H2  O   H1  H2  O   H1  H2  O   H1  H2  O   H1  H2  
O   H1  H2  O   H1  H2  O   H1  H2  O   H1  H2  O   H1  H2  O   H1  H2  O   H1  
H2  O   H1  H2  O   H1  H2  O   H1  H2  O   H1  H2  O   H1  H2  O   H1  H2  O   
H1  H2  O   H1  H2  O   H1  H2  O   H1  H2  O   H1  H2  O   H1  H2  O   H1  H2  
O   H1  H2  O   H1  H2  O   H1  H2  O   H1  H2  O   H1  H2  O   H1  H2  O   H1  
H2  O   H1  H2  O   H1  H2  O   H1  H2  O   H1  H2  O   H1  H2  O   H1  H2  O   
H1  H2  O   H1  H2  O   H1  H2  O   H1  H2  O   H1  H2  O   H1  H2  O   H1  H2  
O   H1  H2  O   H1  H2  O   H1  H2  O   H1  H2  O   H1  H2  O   H1  H2  O   H1  
H2  O   H1  H2  O   H1  H2  O   H1  H2  O   H1  H2  O   H1  H2  O   H1  H2  O   
H1  H2  O   H1  H2  O   H1  H2  O   H1  H2  O   H1  H2  O   H1  H2  O   H1  H2  
O   H1  H2  O   H1  H2  O   H1  H2  O   H1  H2  O   H1  H2  O   H1  H2  O   H1  
H2  O   H1  H2  O   H1  H2  O   H1  H2  O   H1  H2  O   H1  H2  O   H1  H2  O   
H1  H2  O   H1  H2  O   H1  H2  O   H1  H2  O   H1  H2  O   H1  H2  O   H1  H2  
O   H1  H2  O   H1  H2  O   H1  H2  O   H1  H2  O   H1  H2  O   H1  H2  O   H1  
H2  O   H1  H2  O   H1  H2  O   H1  H2  O   H1  H2  O   H1  H2  O   H1  H2  O   
H1  H2  O   H1  H2  O   H1  H2  O   H1  H2  O   H1  H2  O   H1  H2  O   H1  H2  
O   H1  H2  O   H1  H2  O   H1  H2  O   H1  H2  O   H1  H2  O   H1  H2  O   H1  
H2  O   H1  H2  O   H1  H2  O   H1  H2  O   H1  H2  O   H1  H2  O   H1  H2  O   
H1  H2  O   H1  H2  O   H1  H2  O   H1  H2  O   H1  H2  O   H1  H2  O   H1  H2  
O   H1  H2  O   H1  H2  O   H1  H2  O   H1  H2  O   H1  H2  O   H1  H2  O   H1  
H2  O   H1  H2  O   H1  H2  O   H1  H2  O   H1  H2  O   H1  H2  O   H1  H2  O   
H1  H2  O   H1  H2  O   H1  H2  O   H1  H2  O   H1  H2  O   H1  H2  O   H1  H2  
O   H1  H2  O   H1  H2  O   H1  H2  O   H1  H2  O   H1  H2  O   H1  H2  O   H1  
H2  O   H1  H2  O   H1  H2  O   H1  H2  O   H1  H2  O   H1  H2  O   H1  H2  O   
H1  H2  O   H1  H2  O   H1  H2  O   H1  H2  O   H1  H2  O   H1  H2  O   H1  H2  
O   H1  H2  O   H1  H2  O   H1  H2  O   H1  H2  O   H1  H2  O   H1  H2  O   H1  
H2  O   H1  H2  O   H1  H2  O   H1  H2  O   H1  H2  O   H1  H2  O   H1  H2  O   
H1  H2  O   H1  H2  O   H1  H2  O   H1  H2  O   H1  H2  O   H1  H2  O   H1  H2  
O   H1  H2  O   H1  H2  O   H1  H2  O   H1  H2  O   H1  H2  O   H1  H2  O   H1  
H2  O   H1  H2  O   H1  H2  O   H1  H2  O   H1  H2  O   H1  H2  O   H1  H2  O   
H1  H2  O   H1  H2  O   H1  H2  O   H1  H2  O   H1  H2  O   H1  H2  O   H1  H2  
O   H1  H2  O   H1  H2  O   H1  H2  O   H1  H2  O   H1  H2  O   H1  H2  O   H1  
H2  O   H1  H2  O   H1  H2  O   H1  H2  O   H1  H2  O   H1  H2  O   H1  H2  O   
H1  H2  O   H1  H2  O   H1  H2  O   H1  H2  O   H1  H2  O   H1  H2  O   H1  H2  
O   H1  H2  O   H1  H2  O   H1  H2  O   H1  H2  O   H1  H2  O   H1  H2  O   H1  
H2  O   H1  H2  O   H1  H2  O   H1  H2  O   H1  H2  O   H1  H2  O   H1  H2  O   
H1  H2  O   H1  H2  O   H1  H2  O   H1  H2  O   H1  H2  O   H1  H2  O   H1  H2  
O   H1  H2  O   H1  H2  O   H1  H2  O   H1  H2  O   H1  H2  O   H1  H2  O   H1  
H2  O   H1  H2  O   H1  H2  O   H1  H2  O   H1  H2  O   H1  H2  O   H1  H2  O   
H1  H2  O   H1  H2  O   H1  H2  O   H1  H2  O   H1  H2  O   H1  H2  O   H1  H2  
O   H1  H2  O   H1  H2  O   H1  H2  O   H1  H2  O   H1  H2  O   H1  H2  O   H1  
H2  O   H1  H2  O   H1  H2  O   H1  H2  O   H1  H2  O   H1  H2  O   H1  H2  O   
H1  H2  O   H1  H2  O   H1  H2  O   H1  H2  O   H1  H2  O   H1  H2  O   H1  H2  
O   H1  H2  O   H1  H2  O   H1  H2  O   H1  H2  O   H1  H2  O   H1  H2  O   H1  
H2  O   H1  H2  O   H1  H2  O   H1  H2  O   H1  H2  O   H1  H2  O   H1  H2  O   
H1  H2  O   H1  H2  O   H1  H2  O   H1  H2  O   H1  H2  O   H1  H2  O   H1  H2  
O   H1  H2  O   H1  H2  O   H1  H2  O   H1  H2  O   H1  H2  O   H1  H2  O   H1  
H2  O   H1  H2  O   H1  H2  O   H1  H2  O   H1  H2  O   H1  H2  O   H1  H2  O   
H1  H2  O   H1  H2  O   H1  H2  O   H1  H2  O   H1  H2  O   H1  H2  O   H1  H2  
O   H1  H2  O   H1  H2  O   H1  H2  O   H1  H2  O   H1  H2  O   H1  H2  O   H1  
H2  O   H1  H2  O   H1  H2  O   H1  H2  O   H1  H2  O   H1  H2  O   H1  H2  O   
H1  H2  O   H1  H2  O   H1  H2  O   H1  H2  O   H1  H2  O   H1  H2  O   H1  H2  
O   H1  H2  O   H1  H2  O   H1  H2  O   H1  H2  O   H1  H2  O   H1  H2  O   H1  
H2  O   H1  H2  O   H1  H2  O   H1  H2  O   H1  H2  O   H1  H2  O   H1  H2  O   
H1  H2  O   H1  H2  O   H1  H2  O   H1  H2  O   H1  H2  O   H1  H2  O   H1  H2  
O   H1  H2  O   H1  H2  O   H1  H2  O   H1  H2  O   H1  H2  O   H1  H2  O   H1  
H2  O   H1  H2  O   H1  H2  O   H1  H2  O   H1  H2  O   H1  H2  O   H1  H2  O   
H1  H2  O   H1  H2  O   H1  H2  O   H1  H2  O   H1  H2  O   H1  H2  O   H1  H2  
O   H1  H2  O   H1  H2  O   H1  H2  O   H1  H2  O   H1  H2  O   H1  H2  O   H1  
H2  O   H1  H2  O   H1  H2  O   H1  H2  O   H1  H2  O   H1  H2  O   H1  H2  O   
H1  H2  O   H1  H2  O   H1  H2  O   H1  H2  O   H1  H2  O   H1  H2  O   H1  H2  
O   H1  H2  O   H1  H2  O   H1  H2  O   H1  H2  O   H1  H2  O   H1  H2  O   H1  
H2  O   H1  H2  O   H1  H2  O   H1  H2  O   H1  H2  O   H1  H2  O   H1  H2  O   
H1  H2  O   H1  H2  O   H1  H2  O   H1  H2  O   H1  H2  O   H1  H2  O   H1  H2  
O   H1  H2  O   H1  H2  O   H1  H2  O   H1  H2  O   H1  H2  O   H1  H2  O   H1  
H2  O   H1  H2  O   H1  H2  O   H1  H2  O   H1  H2  O   H1  H2  O   H1  H2  O   
H1  H2  O   H1  H2  O   H1  H2  O   H1  H2  O   H1  H2  O   H1  H2  O   H1  H2  
O   H1  H2  O   H1  H2  O   H1  H2  O   H1  H2  O   H1  H2  O   H1  H2  O   H1  
H2  O   H1  H2  O   H1  H2  O   H1  H2  O   H1  H2  O   H1  H2  O   H1  H2  O   
H1  H2  O   H1  H2  O   H1  H2  O   H1  H2  O   H1  H2  O   H1  H2  O   H1  H2  
O   H1  H2  O   H1  H2  O   H1  H2  O   H1  H2  O   H1  H2  O   H1  H2  O   H1  
H2  O   H1  H2  O   H1  H2  O   H1  H2  O   H1  H2  O   H1  H2  O   H1  H2  O   
H1  H2  O   H1  H2  O   H1  H2  O   H1  H2  O   H1  H2  O   H1  H2  O   H1  H2  
O   H1  H2  O   H1  H2  O   H1  H2  O   H1  H2  O   H1  H2  O   H1  H2  O   H1  
H2  O   H1  H2  O   H1  H2  O   H1  H2  O   H1  H2  O   H1  H2  O   H1  H2  O   
H1  H2  O   H1  H2  O   H1  H2  O   H1  H2  O   H1  H2  O   H1  H2  O   H1  H2  
O   H1  H2  O   H1  H2  O   H1  H2  O   H1  H2  O   H1  H2  O   H1  H2  O   H1  
H2  O   H1  H2  O   H1  H2  O   H1  H2  O   H1  H2  O   H1  H2  O   H1  H2  O   
H1  H2  O   H1  H2  O   H1  H2  O   H1  H2  O   H1  H2  O   H1  H2  O   H1  H2  
O   H1  H2  O   H1  H2  O   H1  H2  O   H1  H2  O   H1  H2  O   H1  H2  O   H1  
H2  O   H1  H2  O   H1  H2  O   H1  H2  O   H1  H2  O   H1  H2  O   H1  H2  O   
H1  H2  O   H1  H2  O   H1  H2  O   H1  H2  O   H1  H2  O   H1  H2  O   H1  H2  
O   H1  H2  O   H1  H2  O   H1  H2  O   H1  H2  O   H1  H2  O   H1  H2  O   H1  
H2  O   H1  H2  O   H1  H2  O   H1  H2  O   H1  H2  O   H1  H2  O   H1  H2  O   
H1  H2  O   H1  H2  O   H1  H2  O   H1  H2  O   H1  H2  O   H1  H2  O   H1  H2  
O   H1  H2  O   H1  H2  O   H1  H2  O   H1  H2  O   H1  H2  O   H1  H2  O   H1  
H2  O   H1  H2  O   H1  H2  O   H1  H2  O   H1  H2  O   H1  H2  O   H1  H2  O   
H1  H2  O   H1  H2  O   H1  H2  O   H1  H2  O   H1  H2  O   H1  H2  O   H1  H2  
O   H1  H2  O   H1  H2  O   H1  H2  O   H1  H2  O   H1  H2  O   H1  H2  O   H1  
H2  O   H1  H2  O   H1  H2  O   H1  H2  O   H1  H2  O   H1  H2  O   H1  H2  O   
H1  H2  O   H1  H2  O   H1  H2  O   H1  H2  O   H1  H2  O   H1  H2  O   H1  H2  
O   H1  H2  O   H1  H2  O   H1  H2  O   H1  H2  O   H1  H2  O   H1  H2  O   H1  
H2  O   H1  H2  O   H1  H2  O   H1  H2  O   H1  H2  O   H1  H2  O   H1  H2  O   
H1  H2  O   H1  H2  O   H1  H2  O   H1  H2  O   H1  H2  O   H1  H2  O   H1  H2  
O   H1  H2  O   H1  H2  O   H1  H2  O   H1  H2  O   H1  H2  O   H1  H2  O   H1  
H2  O   H1  H2  O   H1  H2  O   H1  H2  O   H1  H2  O   H1  H2  O   H1  H2  O   
H1  H2  O   H1  H2  O   H1  H2  O   H1  H2  O   H1  H2  O   H1  H2  O   H1  H2  
O   H1  H2  O   H1  H2  O   H1  H2  O   H1  H2  O   H1  H2  O   H1  H2  O   H1  
H2  O   H1  H2  O   H1  H2  O   H1  H2  O   H1  H2  O   H1  H2  O   H1  H2  O   
H1  H2  O   H1  H2  O   H1  H2  O   H1  H2  O   H1  H2  O   H1  H2  O   H1  H2  
O   H1  H2  O   H1  H2  O   H1  H2  O   H1  H2  O   H1  H2  O   H1  H2  O   H1  
H2  O   H1  H2  O   H1  H2  O   H1  H2  O   H1  H2  O   H1  H2  O   H1  H2  O   
H1  H2  O   H1  H2  O   H1  H2  O   H1  H2  O   H1  H2  O   H1  H2  O   H1  H2  
O   H1  H2  O   H1  H2  O   H1  H2  O   H1  H2  O   H1  H2  O   H1  H2  O   H1  
H2  O   H1  H2  O   H1  H2  O   H1  H2  O   H1  H2  O   H1  H2  O   H1  H2  O   
H1  H2  O   H1  H2  O   H1  H2  O   H1  H2  O   H1  H2  O   H1  H2  O   H1  H2  
O   H1  H2  O   H1  H2  O   H1  H2  O   H1  H2  O   H1  H2  O   H1  H2  O   H1  
H2  O   H1  H2  O   H1  H2  O   H1  H2  O   H1  H2  O   H1  H2  O   H1  H2  O   
H1  H2  O   H1  H2  O   H1  H2  O   H1  H2  O   H1  H2  O   H1  H2  O   H1  H2  
O   H1  H2  O   H1  H2  O   H1  H2  O   H1  H2  O   H1  H2  O   H1  H2  O   H1  
H2  O   H1  H2  O   H1  H2  O   H1  H2  O   H1  H2  O   H1  H2  O   H1  H2  O   
H1  H2  O   H1  H2  O   H1  H2  O   H1  H2  O   H1  H2  O   H1  H2  O   H1  H2  
O   H1  H2  O   H1  H2  O   H1  H2  O   H1  H2  O   H1  H2  O   H1  H2  O   H1  
H2  O   H1  H2  O   H1  H2  O   H1  H2  O   H1  H2  O   H1  H2  O   H1  H2  O   
H1  H2  O   H1  H2  O   H1  H2  O   H1  H2  O   H1  H2  O   H1  H2  O   H1  H2  
O   H1  H2  O   H1  H2  O   H1  H2  O   H1  H2  O   H1  H2  O   H1  H2  O   H1  
H2  O   H1  H2  O   H1  H2  O   H1  H2  O   H1  H2  O   H1  H2  O   H1  H2  O   
H1  H2  O   H1  H2  O   H1  H2  O   H1  H2  O   H1  H2  O   H1  H2  O   H1  H2  
O   H1  H2  O   H1  H2  O   H1  H2  O   H1  H2  O   H1  H2  O   H1  H2  O   H1  
H2  O   H1  H2  O   H1  H2  O   H1  H2  O   H1  H2  O   H1  H2  O   H1  H2  O   
H1  H2  O   H1  H2  O   H1  H2  O   H1  H2  O   H1  H2  O   H1  H2  O   H1  H2  
O   H1  H2  O   H1  H2  O   H1  H2  O   H1  H2  O   H1  H2  O   H1  H2  O   H1  
H2  O   H1  H2  O   H1  H2  O   H1  H2  O   H1  H2  O   H1  H2  O   H1  H2  O   
H1  H2  O   H1  H2  O   H1  H2  O   H1  H2  O   H1  H2  O   H1  H2  O   H1  H2  
O   H1  H2  O   H1  H2  O   H1  H2  O   H1  H2  O   H1  H2  O   H1  H2  O   H1  
H2  O   H1  H2  O   H1  H2  O   H1  H2  O   H1  H2  O   H1  H2  O   H1  H2  O   
H1  H2  O   H1  H2  O   H1  H2  O   H1  H2  O   H1  H2  O   H1  H2  O   H1  H2  
O   H1  H2  O   H1  H2  O   H1  H2  O   H1  H2  O   H1  H2  O   H1  H2  O   H1  
H2  O   H1  H2  O   H1  H2  O   H1  H2  O   H1  H2  O   H1  H2  O   H1  H2  O   
H1  H2  O   H1  H2  O   H1  H2  O   H1  H2  O   H1  H2  O   H1  H2  O   H1  H2  
O   H1  H2  O   H1  H2  O   H1  H2  O   H1  H2  O   H1  H2  O   H1  H2  O   H1  
H2  O   H1  H2  O   H1  H2  O   H1  H2  O   H1  H2  O   H1  H2  O   H1  H2  O   
H1  H2  O   H1  H2  O   H1  H2  O   H1  H2  O   H1  H2  O   H1  H2  O   H1  H2  
O   H1  H2  O   H1  H2  O   H1  H2  O   H1  H2  O   H1  H2  O   H1  H2  O   H1  
H2  O   H1  H2  O   H1  H2  O   H1  H2  O   H1  H2  O   H1  H2  O   H1  H2  O   
H1  H2  O   H1  H2  O   H1  H2  O   H1  H2  O   H1  H2  O   H1  H2  O   H1  H2  
O   H1  H2  O   H1  H2  O   H1  H2  O   H1  H2  O   H1  H2  O   H1  H2  O   H1  
H2  O   H1  H2  O   H1  H2  O   H1  H2  O   H1  H2  O   H1  H2  O   H1  H2  O   
H1  H2  O   H1  H2  O   H1  H2  O   H1  H2  O   H1  H2  O   H1  H2  O   H1  H2  
O   H1  H2  O   H1  H2  O   H1  H2  O   H1  H2  O   H1  H2  O   H1  H2  O   H1  
H2  O   H1  H2  O   H1  H2  O   H1  H2  O   H1  H2  O   H1  H2  O   H1  H2  O   
H1  H2  O   H1  H2  O   H1  H2  O   H1  H2  O   H1  H2  O   H1  H2  O   H1  H2  
O   H1  H2  O   H1  H2  O   H1  H2  O   H1  H2  O   H1  H2  O   H1  H2  O   H1  
H2  O   H1  H2  O   H1  H2  O   H1  H2  O   H1  H2  O   H1  H2  O   H1  H2  O   
H1  H2  O   H1  H2  O   H1  H2  O   H1  H2  O   H1  H2  O   H1  H2  O   H1  H2  
O   H1  H2  O   H1  H2  O   H1  H2  O   H1  H2  O   H1  H2  O   H1  H2  O   H1  
H2  O   H1  H2  O   H1  H2  O   H1  H2  O   H1  H2  O   H1  H2  O   H1  H2  O   
H1  H2  O   H1  H2  O   H1  H2  O   H1  H2  O   H1  H2  O   H1  H2  O   H1  H2  
O   H1  H2  O   H1  H2  O   H1  H2  O   H1  H2  O   H1  H2  O   H1  H2  O   H1  
H2  O   H1  H2  O   H1  H2  O   H1  H2  O   H1  H2  O   H1  H2  O   H1  H2  O   
H1  H2  O   H1  H2  O   H1  H2  O   H1  H2  O   H1  H2  O   H1  H2  O   H1  H2  
O   H1  H2  O   H1  H2  O   H1  H2  O   H1  H2  O   H1  H2  O   H1  H2  O   H1  
H2  O   H1  H2  O   H1  H2  O   H1  H2  O   H1  H2  O   H1  H2  O   H1  H2  O   
H1  H2  O   H1  H2  O   H1  H2  O   H1  H2  O   H1  H2  O   H1  H2  O   H1  H2  
O   H1  H2  O   H1  H2  O   H1  H2  O   H1  H2  O   H1  H2  O   H1  H2  O   H1  
H2  O   H1  H2  O   H1  H2  O   H1  H2  O   H1  H2  O   H1  H2  O   H1  H2  O   
H1  H2  O   H1  H2  O   H1  H2  O   H1  H2  O   H1  H2  O   H1  H2  O   H1  H2  
O   H1  H2  O   H1  H2  O   H1  H2  O   H1  H2  O   H1  H2  O   H1  H2  O   H1  
H2  O   H1  H2  O   H1  H2  O   H1  H2  O   H1  H2  O   H1  H2  O   H1  H2  O   
H1  H2  O   H1  H2  O   H1  H2  O   H1  H2  O   H1  H2  O   H1  H2  O   H1  H2  
O   H1  H2  O   H1  H2  O   H1  H2  O   H1  H2  O   H1  H2  O   H1  H2  O   H1  
H2  O   H1  H2  O   H1  H2  O   H1  H2  O   H1  H2  O   H1  H2  O   H1  H2  O   
H1  H2  O   H1  H2  O   H1  H2  O   H1  H2  O   H1  H2  O   H1  H2  O   H1  H2  
O   H1  H2  O   H1  H2  O   H1  H2  O   H1  H2  O   H1  H2  O   H1  H2  O   H1  
H2  O   H1  H2  O   H1  H2  O   H1  H2  O   H1  H2  O   H1  H2  O   H1  H2  O   
H1  H2  O   H1  H2  O   H1  H2  O   H1  H2  O   H1  H2  O   H1  H2  O   H1  H2  
O   H1  H2  O   H1  H2  O   H1  H2  O   H1  H2  O   H1  H2  O   H1  H2  O   H1  
H2  O   H1  H2  O   H1  H2  O   H1  H2  O   H1  H2  O   H1  H2  O   H1  H2  O   
H1  H2  O   H1  H2  O   H1  H2  O   H1  H2  O   H1  H2  O   H1  H2  O   H1  H2  
O   H1  H2  O   H1  H2  O   H1  H2  O   H1  H2  O   H1  H2  O   H1  H2  O   H1  
H2  O   H1  H2  O   H1  H2  O   H1  H2  O   H1  H2  O   H1  H2  O   H1  H2  O   
H1  H2  O   H1  H2  O   H1  H2  O   H1  H2  O   H1  H2  O   H1  H2  O   H1  H2  
O   H1  H2  O   H1  H2  O   H1  H2  O   H1  H2  O   H1  H2  O   H1  H2  O   H1  
H2  O   H1  H2  O   H1  H2  O   H1  H2  O   H1  H2  O   H1  H2  O   H1  H2  O   
H1  H2  O   H1  H2  O   H1  H2  O   H1  H2  O   H1  H2  O   H1  H2  O   H1  H2  
O   H1  H2  O   H1  H2  O   H1  H2  O   H1  H2  O   H1  H2  O   H1  H2  O   H1  
H2  O   H1  H2  O   H1  H2  O   H1  H2  O   H1  H2  O   H1  H2  O   H1  H2  O   
H1  H2  O   H1  H2  O   H1  H2  O   H1  H2  O   H1  H2  O   H1  H2  O   H1  H2  
O   H1  H2  O   H1  H2  O   H1  H2  O   H1  H2  O   H1  H2  O   H1  H2  O   H1  
H2  O   H1  H2  O   H1  H2  O   H1  H2  O   H1  H2  O   H1  H2  O   H1  H2  O   
H1  H2  O   H1  H2  O   H1  H2  O   H1  H2  O   H1  H2  O   H1  H2  O   H1  H2  
O   H1  H2  O   H1  H2  O   H1  H2  O   H1  H2  O   H1  H2  O   H1  H2  O   H1  
H2  O   H1  H2  O   H1  H2  O   H1  H2  O   H1  H2  O   H1  H2  O   H1  H2  O   
H1  H2  O   H1  H2  O   H1  H2  O   H1  H2  O   H1  H2  O   H1  H2  O   H1  H2  
O   H1  H2  O   H1  H2  O   H1  H2  O   H1  H2  O   H1  H2  O   H1  H2  O   H1  
H2  O   H1  H2  O   H1  H2  O   H1  H2  O   H1  H2  O   H1  H2  O   H1  H2  O   
H1  H2  O   H1  H2  O   H1  H2  O   H1  H2  O   H1  H2  O   H1  H2  O   H1  H2  
O   H1  H2  O   H1  H2  O   H1  H2  O   H1  H2  O   H1  H2  O   H1  H2  O   H1  
H2  O   H1  H2  O   H1  H2  O   H1  H2  O   H1  H2  O   H1  H2  O   H1  H2  O   
H1  H2  O   H1  H2  O   H1  H2  O   H1  H2  O   H1  H2  O   H1  H2  O   H1  H2  
O   H1  H2  O   H1  H2  O   H1  H2  O   H1  H2  O   H1  H2  O   H1  H2  O   H1  
H2  O   H1  H2  O   H1  H2  O   H1  H2  O   H1  H2  O   H1  H2  O   H1  H2  O   
H1  H2  O   H1  H2  O   H1  H2  O   H1  H2  O   H1  H2  O   H1  H2  O   H1  H2  
O   H1  H2  O   H1  H2  O   H1  H2  O   H1  H2  O   H1  H2  O   H1  H2  O   H1  
H2  O   H1  H2  O   H1  H2  O   H1  H2  O   H1  H2  O   H1  H2  O   H1  H2  O   
H1  H2  O   H1  H2  O   H1  H2  O   H1  H2  O   H1  H2  O   H1  H2  O   H1  H2  
O   H1  H2  O   H1  H2  O   H1  H2  O   H1  H2  O   H1  H2  O   H1  H2  O   H1  
H2  O   H1  H2  O   H1  H2  O   H1  H2  O   H1  H2  O   H1  H2  O   H1  H2  O   
H1  H2  O   H1  H2  O   H1  H2  O   H1  H2  O   H1  H2  O   H1  H2  O   H1  H2  
O   H1  H2  O   H1  H2  O   H1  H2  O   H1  H2  O   H1  H2  O   H1  H2  O   H1  
H2  O   H1  H2  O   H1  H2  O   H1  H2  O   H1  H2  O   H1  H2  O   H1  H2  O   
H1  H2  O   H1  H2  O   H1  H2  O   H1  H2  O   H1  H2  O   H1  H2  O   H1  H2  
O   H1  H2  O   H1  H2  O   H1  H2  O   H1  H2  O   H1  H2  O   H1  H2  O   H1  
H2  O   H1  H2  O   H1  H2  O   H1  H2  O   H1  H2  O   H1  H2  O   H1  H2  O   
H1  H2  O   H1  H2  O   H1  H2  O   H1  H2  O   H1  H2  O   H1  H2  O   H1  H2  
O   H1  H2  O   H1  H2  O   H1  H2  O   H1  H2  O   H1  H2  O   H1  H2  O   H1  
H2  O   H1  H2  O   H1  H2  O   H1  H2  O   H1  H2  O   H1  H2  O   H1  H2  O   
H1  H2  O   H1  H2  O   H1  H2  O   H1  H2  O   H1  H2  O   H1  H2  O   H1  H2  
O   H1  H2  O   H1  H2  O   H1  H2  O   H1  H2  O   H1  H2  O   H1  H2  O   H1  
H2  O   H1  H2  O   H1  H2  O   H1  H2  O   H1  H2  O   H1  H2  O   H1  H2  O   
H1  H2  O   H1  H2  O   H1  H2  O   H1  H2  O   H1  H2  O   H1  H2  O   H1  H2  
O   H1  H2  O   H1  H2  O   H1  H2  O   H1  H2  O   H1  H2  O   H1  H2  O   H1  
H2  O   H1  H2  O   H1  H2  O   H1  H2  O   H1  H2  O   H1  H2  O   H1  H2  O   
H1  H2  O   H1  H2  O   H1  H2  O   H1  H2  O   H1  H2  O   H1  H2  O   H1  H2  
O   H1  H2  O   H1  H2  O   H1  H2  O   H1  H2  O   H1  H2  O   H1  H2  O   H1  
H2  O   H1  H2  O   H1  H2  O   H1  H2  O   H1  H2  O   H1  H2  O   H1  H2  O   
H1  H2  O   H1  H2  O   H1  H2  O   H1  H2  O   H1  H2  O   H1  H2  O   H1  H2  
O   H1  H2  O   H1  H2  O   H1  H2  O   H1  H2  O   H1  H2  O   H1  H2  O   H1  
H2  O   H1  H2  O   H1  H2  O   H1  H2  O   H1  H2  O   H1  H2  O   H1  H2  O   
H1  H2  O   H1  H2  O   H1  H2  O   H1  H2  O   H1  H2  O   H1  H2  O   H1  H2  
O   H1  H2  O   H1  H2  O   H1  H2  O   H1  H2  O   H1  H2  O   H1  H2  O   H1  
H2  O   H1  H2  O   H1  H2  O   H1  H2  O   H1  H2  O   H1  H2  O   H1  H2  O   
H1  H2  O   H1  H2  O   H1  H2  O   H1  H2  O   H1  H2  O   H1  H2  O   H1  H2  
O   H1  H2  O   H1  H2  O   H1  H2  O   H1  H2  O   H1  H2  O   H1  H2  O   H1  
H2  O   H1  H2  O   H1  H2  O   H1  H2  O   H1  H2  O   H1  H2  O   H1  H2  O   
H1  H2  O   H1  H2  O   H1  H2  O   H1  H2  O   H1  H2  O   H1  H2  O   H1  H2  
O   H1  H2  O   H1  H2  O   H1  H2  O   H1  H2  O   H1  H2  O   H1  H2  O   H1  
H2  O   H1  H2  O   H1  H2  O   H1  H2  O   H1  H2  O   H1  H2  O   H1  H2  O   
H1  H2  O   H1  H2  O   H1  H2  O   H1  H2  O   H1  H2  O   H1  H2  O   H1  H2  
O   H1  H2  O   H1  H2  O   H1  H2  O   H1  H2  O   H1  H2  O   H1  H2  O   H1  
H2  O   H1  H2  O   H1  H2  O   H1  H2  O   H1  H2  O   H1  H2  O   H1  H2  O   
H1  H2  O   H1  H2  O   H1  H2  O   H1  H2  O   H1  H2  O   H1  H2  O   H1  H2  
O   H1  H2  O   H1  H2  O   H1  H2  O   H1  H2  O   H1  H2  O   H1  H2  O   H1  
H2  O   H1  H2  O   H1  H2  O   H1  H2  O   H1  H2  O   H1  H2  O   H1  H2  O   
H1  H2  O   H1  H2  O   H1  H2  O   H1  H2  O   H1  H2  O   H1  H2  O   H1  H2  
O   H1  H2  O   H1  H2  O   H1  H2  O   H1  H2  O   H1  H2  O   H1  H2  O   H1  
H2  O   H1  H2  O   H1  H2  O   H1  H2  O   H1  H2  O   H1  H2  O   H1  H2  O   
H1  H2  O   H1  H2  O   H1  H2  O   H1  H2  O   H1  H2  O   H1  H2  O   H1  H2  
O   H1  H2  O   H1  H2  O   H1  H2  O   H1  H2  O   H1  H2  O   H1  H2  O   H1  
H2  O   H1  H2  O   H1  H2  O   H1  H2  O   H1  H2  O   H1  H2  O   H1  H2  O   
H1  H2  O   H1  H2  O   H1  H2  O   H1  H2  O   H1  H2  O   H1  H2  O   H1  H2  
O   H1  H2  O   H1  H2  O   H1  H2  O   H1  H2  O   H1  H2  O   H1  H2  O   H1  
H2  O   H1  H2  O   H1  H2  O   H1  H2  O   H1  H2  O   H1  H2  O   H1  H2  O   
H1  H2  O   H1  H2  O   H1  H2  O   H1  H2  O   H1  H2  O   H1  H2  O   H1  H2  
O   H1  H2  O   H1  H2  O   H1  H2  O   H1  H2  O   H1  H2  O   H1  H2  O   H1  
H2  O   H1  H2  O   H1  H2  O   H1  H2  O   H1  H2  O   H1  H2  O   H1  H2  O   
H1  H2  O   H1  H2  O   H1  H2  O   H1  H2  O   H1  H2  O   H1  H2  O   H1  H2  
O   H1  H2  O   H1  H2  O   H1  H2  O   H1  H2  O   H1  H2  O   H1  H2  O   H1  
H2  O   H1  H2  O   H1  H2  O   H1  H2  O   H1  H2  O   H1  H2  O   H1  H2  O   
H1  H2  O   H1  H2  O   H1  H2  O   H1  H2  O   H1  H2  O   H1  H2  O   H1  H2  
O   H1  H2  O   H1  H2  O   H1  H2  O   H1  H2  O   H1  H2  O   H1  H2  O   H1  
H2  O   H1  H2  O   H1  H2  O   H1  H2  O   H1  H2  O   H1  H2  O   H1  H2  O   
H1  H2  O   H1  H2  O   H1  H2  O   H1  H2  O   H1  H2  O   H1  H2  O   H1  H2  
O   H1  H2  O   H1  H2  O   H1  H2  O   H1  H2  O   H1  H2  O   H1  H2  O   H1  
H2  O   H1  H2  O   H1  H2  O   H1  H2  O   H1  H2  O   H1  H2  O   H1  H2  O   
H1  H2  O   H1  H2  O   H1  H2  O   H1  H2  O   H1  H2  O   H1  H2  O   H1  H2  
O   H1  H2  O   H1  H2  O   H1  H2  O   H1  H2  O   H1  H2  O   H1  H2  O   H1  
H2  O   H1  H2  O   H1  H2  O   H1  H2  O   H1  H2  O   H1  H2  O   H1  H2  O   
H1  H2  O   H1  H2  O   H1  H2  O   H1  H2  O   H1  H2  O   H1  H2  O   H1  H2  
O   H1  H2  O   H1  H2  O   H1  H2  O   H1  H2  O   H1  H2  O   H1  H2  O   H1  
H2  O   H1  H2  O   H1  H2  O   H1  H2  O   H1  H2  O   H1  H2  O   H1  H2  O   
H1  H2  O   H1  H2  O   H1  H2  O   H1  H2  O   H1  H2  O   H1  H2  O   H1  H2  
O   H1  H2  O   H1  H2  O   H1  H2  O   H1  H2  O   H1  H2  O   H1  H2  O   H1  
H2  O   H1  H2  O   H1  H2  O   H1  H2  O   H1  H2  O   H1  H2  O   H1  H2  O   
H1  H2  O   H1  H2  O   H1  H2  O   H1  H2  O   H1  H2  O   H1  H2  O   H1  H2  
O   H1  H2  O   H1  H2  O   H1  H2  O   H1  H2  O   H1  H2  O   H1  H2  O   H1  
H2  O   H1  H2  O   H1  H2  O   H1  H2  O   H1  H2  O   H1  H2  O   H1  H2  O   
H1  H2  O   H1  H2  O   H1  H2  O   H1  H2  O   H1  H2  O   H1  H2  O   H1  H2  
O   H1  H2  O   H1  H2  O   H1  H2  O   H1  H2  O   H1  H2  O   H1  H2  O   H1  
H2  O   H1  H2  O   H1  H2  O   H1  H2  O   H1  H2  O   H1  H2  O   H1  H2  O   
H1  H2  O   H1  H2  O   H1  H2  O   H1  H2  O   H1  H2  O   H1  H2  O   H1  H2  
O   H1  H2  O   H1  H2  O   H1  H2  O   H1  H2  O   H1  H2  O   H1  H2  O   H1  
H2  O   H1  H2  O   H1  H2  O   H1  H2  O   H1  H2  O   H1  H2  O   H1  H2  O   
H1  H2  O   H1  H2  O   H1  H2  O   H1  H2  O   H1  H2  O   H1  H2  O   H1  H2  
O   H1  H2  O   H1  H2  O   H1  H2  O   H1  H2  O   H1  H2  O   H1  H2  O   H1  
H2  O   H1  H2  O   H1  H2  O   H1  H2  O   H1  H2  O   H1  H2  O   H1  H2  O   
H1  H2  O   H1  H2  O   H1  H2  O   H1  H2  O   H1  H2  O   H1  H2  O   H1  H2  
O   H1  H2  O   H1  H2  O   H1  H2  O   H1  H2  O   H1  H2  O   H1  H2  O   H1  
H2  O   H1  H2  O   H1  H2  O   H1  H2  O   H1  H2  O   H1  H2  O   H1  H2  O   
H1  H2  O   H1  H2  O   H1  H2  O   H1  H2  O   H1  H2  O   H1  H2  O   H1  H2  
O   H1  H2  O   H1  H2  O   H1  H2  O   H1  H2  O   H1  H2  O   H1  H2  O   H1  
H2  O   H1  H2  O   H1  H2  O   H1  H2  O   H1  H2  O   H1  H2  O   H1  H2  O   
H1  H2  O   H1  H2  O   H1  H2  O   H1  H2  O   H1  H2  O   H1  H2  O   H1  H2  
O   H1  H2  O   H1  H2  O   H1  H2  O   H1  H2  O   H1  H2  O   H1  H2  O   H1  
H2  O   H1  H2  O   H1  H2  O   H1  H2  O   H1  H2  O   H1  H2  O   H1  H2  O   
H1  H2  O   H1  H2  O   H1  H2  O   H1  H2  O   H1  H2  O   H1  H2  O   H1  H2  
O   H1  H2  O   H1  H2  O   H1  H2  O   H1  H2  O   H1  H2  O   H1  H2  O   H1  
H2  O   H1  H2  O   H1  H2  O   H1  H2  O   H1  H2  O   H1  H2  O   H1  H2  O   
H1  H2  O   H1  H2  O   H1  H2  O   H1  H2  O   H1  H2  O   H1  H2  O   H1  H2  
O   H1  H2  O   H1  H2  O   H1  H2  O   H1  H2  O   H1  H2  O   H1  H2  O   H1  
H2  O   H1  H2  O   H1  H2  O   H1  H2  O   H1  H2  O   H1  H2  O   H1  H2  O   
H1  H2  O   H1  H2  O   H1  H2  O   H1  H2  O   H1  H2  O   H1  H2  O   H1  H2  
O   H1  H2  O   H1  H2  O   H1  H2  O   H1  H2  O   H1  H2  O   H1  H2  O   H1  
H2  O   H1  H2  O   H1  H2  O   H1  H2  O   H1  H2  O   H1  H2  O   H1  H2  O   
H1  H2  O   H1  H2  O   H1  H2  O   H1  H2  O   H1  H2  O   H1  H2  O   H1  H2  
O   H1  H2  O   H1  H2  O   H1  H2  O   H1  H2  O   H1  H2  O   H1  H2  O   H1  
H2  O   H1  H2  O   H1  H2  O   H1  H2  O   H1  H2  O   H1  H2  O   H1  H2  O   
H1  H2  O   H1  H2  O   H1  H2  O   H1  H2  O   H1  H2  O   H1  H2  O   H1  H2  
O   H1  H2  O   H1  H2  O   H1  H2  O   H1  H2  O   H1  H2  O   H1  H2  O   H1  
H2  O   H1  H2  O   H1  H2  O   H1  H2  O   H1  H2  O   H1  H2  O   H1  H2  O   
H1  H2  O   H1  H2  O   H1  H2  O   H1  H2  O   H1  H2  O   H1  H2  O   H1  H2  
O   H1  H2  O   H1  H2  O   H1  H2  O   H1  H2  O   H1  H2  O   H1  H2  O   H1  
H2  O   H1  H2  O   H1  H2  O   H1  H2  O   H1  H2  O   H1  H2  O   H1  H2  O   
H1  H2  O   H1  H2  O   H1  H2  O   H1  H2  O   H1  H2  O   H1  H2  O   H1  H2  
O   H1  H2  O   H1  H2  O   H1  H2  O   H1  H2  O   H1  H2  O   H1  H2  O   H1  
H2  O   H1  H2  O   H1  H2  O   H1  H2  O   H1  H2  O   H1  H2  O   H1  H2  O   
H1  H2  O   H1  H2  O   H1  H2  O   H1  H2  O   H1  H2  O   H1  H2  O   H1  H2  
O   H1  H2  O   H1  H2  O   H1  H2  O   H1  H2  O   H1  H2  O   H1  H2  O   H1  
H2  O   H1  H2  O   H1  H2  O   H1  H2  O   H1  H2  O   H1  H2  O   H1  H2  O   
H1  H2  O   H1  H2  O   H1  H2  O   H1  H2  O   H1  H2  O   H1  H2  O   H1  H2  
O   H1  H2  O   H1  H2  O   H1  H2  O   H1  H2  O   H1  H2  O   H1  H2  O   H1  
H2  O   H1  H2  O   H1  H2  O   H1  H2  O   H1  H2  O   H1  H2  O   H1  H2  O   
H1  H2  O   H1  H2  O   H1  H2  O   H1  H2  O   H1  H2  O   H1  H2  O   H1  H2  
O   H1  H2  O   H1  H2  O   H1  H2  O   H1  H2  O   H1  H2  O   H1  H2  O   H1  
H2  O   H1  H2  O   H1  H2  O   H1  H2  O   H1  H2  O   H1  H2  O   H1  H2  O   
H1  H2  O   H1  H2  O   H1  H2  O   H1  H2  O   H1  H2  O   H1  H2  O   H1  H2  
O   H1  H2  O   H1  H2  O   H1  H2  O   H1  H2  O   H1  H2  O   H1  H2  O   H1  
H2  O   H1  H2  O   H1  H2  O   H1  H2  O   H1  H2  O   H1  H2  O   H1  H2  O   
H1  H2  O   H1  H2  O   H1  H2  O   H1  H2  O   H1  H2  O   H1  H2  O   H1  H2  
O   H1  H2  O   H1  H2  O   H1  H2  O   H1  H2  O   H1  H2  O   H1  H2  O   H1  
H2  O   H1  H2  O   H1  H2  O   H1  H2  O   H1  H2  O   H1  H2  O   H1  H2  O   
H1  H2  O   H1  H2  O   H1  H2  O   H1  H2  O   H1  H2  O   H1  H2  O   H1  H2  
O   H1  H2  O   H1  H2  O   H1  H2  O   H1  H2  O   H1  H2  O   H1  H2  O   H1  
H2  O   H1  H2  O   H1  H2  O   H1  H2  O   H1  H2  O   H1  H2  O   H1  H2  O   
H1  H2  O   H1  H2  O   H1  H2  O   H1  H2  O   H1  H2  O   H1  H2  O   H1  H2  
O   H1  H2  O   H1  H2  O   H1  H2  O   H1  H2  O   H1  H2  O   H1  H2  O   H1  
H2  O   H1  H2  O   H1  H2  O   H1  H2  O   H1  H2  O   H1  H2  O   H1  H2  O   
H1  H2  O   H1  H2  O   H1  H2  O   H1  H2  O   H1  H2  O   H1  H2  O   H1  H2  
O   H1  H2  O   H1  H2  O   H1  H2  O   H1  H2  O   H1  H2  O   H1  H2  O   H1  
H2  O   H1  H2  O   H1  H2  O   H1  H2  O   H1  H2  O   H1  H2  O   H1  H2  O   
H1  H2  O   H1  H2  O   H1  H2  O   H1  H2  O   H1  H2  O   H1  H2  O   H1  H2  
O   H1  H2  O   H1  H2  O   H1  H2  O   H1  H2  O   H1  H2  O   H1  H2  O   H1  
H2  O   H1  H2  O   H1  H2  O   H1  H2  O   H1  H2  O   H1  H2  O   H1  H2  O   
H1  H2  O   H1  H2  O   H1  H2  O   H1  H2  O   H1  H2  O   H1  H2  O   H1  H2  
O   H1  H2  O   H1  H2  O   H1  H2  O   H1  H2  O   H1  H2  O   H1  H2  O   H1  
H2  O   H1  H2  O   H1  H2  O   H1  H2  O   H1  H2  O   H1  H2  O   H1  H2  O   
H1  H2  O   H1  H2  O   H1  H2  O   H1  H2  O   H1  H2  O   H1  H2  O   H1  H2  
O   H1  H2  O   H1  H2  O   H1  H2  O   H1  H2  O   H1  H2  O   H1  H2  O   H1  
H2  O   H1  H2  O   H1  H2  O   H1  H2  O   H1  H2  O   H1  H2  O   H1  H2  O   
H1  H2  O   H1  H2  O   H1  H2  O   H1  H2  O   H1  H2  O   H1  H2  O   H1  H2  
O   H1  H2  O   H1  H2  O   H1  H2  O   H1  H2  O   H1  H2  O   H1  H2  O   H1  
H2  O   H1  H2  O   H1  H2  O   H1  H2  O   H1  H2  O   H1  H2  O   H1  H2  O   
H1  H2  O   H1  H2  O   H1  H2  O   H1  H2  O   H1  H2  O   H1  H2  O   H1  H2  
O   H1  H2  O   H1  H2  O   H1  H2  O   H1  H2  O   H1  H2  O   H1  H2  O   H1  
H2  O   H1  H2  O   H1  H2  O   H1  H2  O   H1  H2  O   H1  H2  O   H1  H2  O   
H1  H2  O   H1  H2  O   H1  H2  O   H1  H2  O   H1  H2  O   H1  H2  O   H1  H2  
O   H1  H2  O   H1  H2  O   H1  H2  O   H1  H2  O   H1  H2  O   H1  H2  O   H1  
H2  O   H1  H2  O   H1  H2  O   H1  H2  O   H1  H2  O   H1  H2  O   H1  H2  O   
H1  H2  O   H1  H2  O   H1  H2  O   H1  H2  O   H1  H2  O   H1  H2  O   H1  H2  
O   H1  H2  O   H1  H2  O   H1  H2  O   H1  H2  O   H1  H2  O   H1  H2  O   H1  
H2  O   H1  H2  O   H1  H2  O   H1  H2  O   H1  H2  O   H1  H2  O   H1  H2  O   
H1  H2  O   H1  H2  O   H1  H2  O   H1  H2  O   H1  H2  O   H1  H2  O   H1  H2  
O   H1  H2  O   H1  H2  O   H1  H2  O   H1  H2  O   H1  H2  O   H1  H2  O   H1  
H2  O   H1  H2  O   H1  H2  O   H1  H2  O   H1  H2  O   H1  H2  O   H1  H2  O   
H1  H2  O   H1  H2  O   H1  H2  O   H1  H2  O   H1  H2  O   H1  H2  O   H1  H2  
O   H1  H2  O   H1  H2  O   H1  H2  O   H1  H2  O   H1  H2  O   H1  H2  O   H1  
H2  O   H1  H2  O   H1  H2  O   H1  H2  O   H1  H2  O   H1  H2  O   H1  H2  O   
H1  H2  O   H1  H2  O   H1  H2  O   H1  H2  O   H1  H2  O   H1  H2  O   H1  H2  
O   H1  H2  O   H1  H2  O   H1  H2  O   H1  H2  O   H1  H2  O   H1  H2  O   H1  
H2  O   H1  H2  O   H1  H2  O   H1  H2  O   H1  H2  O   H1  H2  O   H1  H2  O   
H1  H2  O   H1  H2  O   H1  H2  O   H1  H2  O   H1  H2  O   H1  H2  O   H1  H2  
O   H1  H2  O   H1  H2  O   H1  H2  O   H1  H2  O   H1  H2  O   H1  H2  O   H1  
H2  O   H1  H2  O   H1  H2  O   H1  H2  O   H1  H2  O   H1  H2  O   H1  H2  O   
H1  H2  O   H1  H2  O   H1  H2  O   H1  H2  O   H1  H2  O   H1  H2  O   H1  H2  
O   H1  H2  O   H1  H2  O   H1  H2  O   H1  H2  O   H1  H2  O   H1  H2  O   H1  
H2  O   H1  H2  O   H1  H2  O   H1  H2  O   H1  H2  O   H1  H2  O   H1  H2  O   
H1  H2  O   H1  H2  O   H1  H2  O   H1  H2  O   H1  H2  O   H1  H2  O   H1  H2  
O   H1  H2  O   H1  H2  O   H1  H2  O   H1  H2  O   H1  H2  O   H1  H2  O   H1  
H2  O   H1  H2  O   H1  H2  O   H1  H2  O   H1  H2  O   H1  H2  O   H1  H2  O   
H1  H2  O   H1  H2  O   H1  H2  O   H1  H2  O   H1  H2  O   H1  H2  O   H1  H2  
O   H1  H2  O   H1  H2  O   H1  H2  O   H1  H2  O   H1  H2  O   H1  H2  O   H1  
H2  O   H1  H2  O   H1  H2  O   H1  H2  O   H1  H2  O   H1  H2  O   H1  H2  O   
H1  H2  O   H1  H2  O   H1  H2  O   H1  H2  O   H1  H2  O   H1  H2  O   H1  H2  
O   H1  H2  O   H1  H2  O   H1  H2  O   H1  H2  O   H1  H2  O   H1  H2  O   H1  
H2  O   H1  H2  O   H1  H2  O   H1  H2  O   H1  H2  O   H1  H2  O   H1  H2  O   
H1  H2  O   H1  H2  O   H1  H2  O   H1  H2  O   H1  H2  O   H1  H2  O   H1  H2  
O   H1  H2  O   H1  H2  O   H1  H2  O   H1  H2  O   H1  H2  O   H1  H2  O   H1  
H2  O   H1  H2  O   H1  H2  O   H1  H2  O   H1  H2  O   H1  H2  O   H1  H2  O   
H1  H2  O   H1  H2  O   H1  H2  O   H1  H2  O   H1  H2  O   H1  H2  O   H1  H2  
O   H1  H2  O   H1  H2  O   H1  H2  O   H1  H2  O   H1  H2  O   H1  H2  O   H1  
H2  O   H1  H2  O   H1  H2  O   H1  H2  O   H1  H2  O   H1  H2  O   H1  H2  O   
H1  H2  O   H1  H2  O   H1  H2  O   H1  H2  O   H1  H2  O   H1  H2  O   H1  H2  
O   H1  H2  O   H1  H2  O   H1  H2  O   H1  H2  O   H1  H2  O   H1  H2  O   H1  
H2  O   H1  H2  O   H1  H2  O   H1  H2  O   H1  H2  O   H1  H2  O   H1  H2  O   
H1  H2  O   H1  H2  O   H1  H2  O   H1  H2  O   H1  H2  O   H1  H2  O   H1  H2  
O   H1  H2  O   H1  H2  O   H1  H2  O   H1  H2  O   H1  H2  O   H1  H2  O   H1  
H2  O   H1  H2  O   H1  H2  O   H1  H2  O   H1  H2  O   H1  H2  O   H1  H2  O   
H1  H2  O   H1  H2  O   H1  H2  O   H1  H2  O   H1  H2  O   H1  H2  O   H1  H2  
O   H1  H2  O   H1  H2  O   H1  H2  O   H1  H2  O   H1  H2  O   H1  H2  O   H1  
H2  O   H1  H2  O   H1  H2  O   H1  H2  O   H1  H2  O   H1  H2  O   H1  H2  O   
H1  H2  O   H1  H2  O   H1  H2  O   H1  H2  O   H1  H2  O   H1  H2  O   H1  H2  
O   H1  H2  O   H1  H2  O   H1  H2  O   H1  H2  O   H1  H2  O   H1  H2  O   H1  
H2  O   H1  H2  O   H1  H2  O   H1  H2  O   H1  H2  O   H1  H2  O   H1  H2  O   
H1  H2  O   H1  H2  O   H1  H2  O   H1  H2  O   H1  H2  O   H1  H2  O   H1  H2  
O   H1  H2  O   H1  H2  O   H1  H2  O   H1  H2  O   H1  H2  O   H1  H2  O   H1  
H2  O   H1  H2  O   H1  H2  O   H1  H2  O   H1  H2  O   H1  H2  O   H1  H2  O   
H1  H2  O   H1  H2  O   H1  H2  O   H1  H2  O   H1  H2  O   H1  H2  O   H1  H2  
O   H1  H2  O   H1  H2  O   H1  H2  O   H1  H2  O   H1  H2  O   H1  H2  O   H1  
H2  O   H1  H2  O   H1  H2  O   H1  H2  O   H1  H2  O   H1  H2  O   H1  H2  O   
H1  H2  O   H1  H2  O   H1  H2  O   H1  H2  O   H1  H2  O   H1  H2  O   H1  H2  
O   H1  H2  O   H1  H2  O   H1  H2  O   H1  H2  O   H1  H2  O   H1  H2  O   H1  
H2  O   H1  H2  O   H1  H2  O   H1  H2  O   H1  H2  O   H1  H2  O   H1  H2  O   
H1  H2  O   H1  H2  O   H1  H2  O   H1  H2  O   H1  H2  O   H1  H2  O   H1  H2  
O   H1  H2  O   H1  H2  O   H1  H2  O   H1  H2  O   H1  H2  O   H1  H2  O   H1  
H2  O   H1  H2  O   H1  H2  O   H1  H2  O   H1  H2  O   H1  H2  O   H1  H2  O   
H1  H2  O   H1  H2  O   H1  H2  O   H1  H2  O   H1  H2  O   H1  H2  O   H1  H2  
O   H1  H2  O   H1  H2  O   H1  H2  O   H1  H2  O   H1  H2  O   H1  H2  O   H1  
H2  O   H1  H2  O   H1  H2  O   H1  H2  O   H1  H2  O   H1  H2  O   H1  H2  O   
H1  H2  O   H1  H2  O   H1  H2  O   H1  H2  O   H1  H2  O   H1  H2  O   H1  H2  
O   H1  H2  O   H1  H2  O   H1  H2  O   H1  H2  O   H1  H2  O   H1  H2  O   H1  
H2  O   H1  H2  O   H1  H2  O   H1  H2  O   H1  H2  O   H1  H2  O   H1  H2  O   
H1  H2  O   H1  H2  O   H1  H2  O   H1  H2  O   H1  H2  O   H1  H2  O   H1  H2  
O   H1  H2  O   H1  H2  O   H1  H2  O   H1  H2  O   H1  H2  O   H1  H2  O   H1  
H2  O   H1  H2  O   H1  H2  O   H1  H2  O   H1  H2  O   H1  H2  O   H1  H2  O   
H1  H2  O   H1  H2  O   H1  H2  O   H1  H2  O   H1  H2  O   H1  H2  O   H1  H2  
O   H1  H2  O   H1  H2  O   H1  H2  O   H1  H2  O   H1  H2  O   H1  H2  O   H1  
H2  O   H1  H2  O   H1  H2  O   H1  H2  O   H1  H2  O   H1  H2  O   H1  H2  O   
H1  H2  O   H1  H2  O   H1  H2  O   H1  H2  O   H1  H2  O   H1  H2  O   H1  H2  
O   H1  H2  O   H1  H2  O   H1  H2  O   H1  H2  O   H1  H2  O   H1  H2  O   H1  
H2  O   H1  H2  O   H1  H2  O   H1  H2  O   H1  H2  O   H1  H2  O   H1  H2  O   
H1  H2  O   H1  H2  O   H1  H2  O   H1  H2  O   H1  H2  O   H1  H2  O   H1  H2  
O   H1  H2  O   H1  H2  O   H1  H2  O   H1  H2  O   H1  H2  O   H1  H2  O   H1  
H2  O   H1  H2  O   H1  H2  O   H1  H2  O   H1  H2  O   H1  H2  O   H1  H2  O   
H1  H2  O   H1  H2  O   H1  H2  O   H1  H2  O   H1  H2  O   H1  H2  O   H1  H2  
O   H1  H2  O   H1  H2  O   H1  H2  O   H1  H2  O   H1  H2  O   H1  H2  O   H1  
H2  O   H1  H2  O   H1  H2  O   H1  H2  O   H1  H2  O   H1  H2  O   H1  H2  O   
H1  H2  O   H1  H2  O   H1  H2  O   H1  H2  O   H1  H2  O   H1  H2  O   H1  H2  
O   H1  H2  O   H1  H2  O   H1  H2  O   H1  H2  O   H1  H2  O   H1  H2  O   H1  
H2  O   H1  H2  O   H1  H2  O   H1  H2  O   H1  H2  O   H1  H2  O   H1  H2  O   
H1  H2  O   H1  H2  O   H1  H2  O   H1  H2  O   H1  H2  O   H1  H2  O   H1  H2  
O   H1  H2  O   H1  H2  O   H1  H2  O   H1  H2  O   H1  H2  O   H1  H2  O   H1  
H2  O   H1  H2  O   H1  H2  O   H1  H2  O   H1  H2  O   H1  H2  O   H1  H2  O   
H1  H2  O   H1  H2  O   H1  H2  O   H1  H2  O   H1  H2  O   H1  H2  O   H1  H2  
O   H1  H2  O   H1  H2  O   H1  H2  O   H1  H2  O   H1  H2  O   H1  H2  O   H1  
H2  O   H1  H2  O   H1  H2  O   H1  H2  O   H1  H2  O   H1  H2  O   H1  H2  O   
H1  H2  O   H1  H2  O   H1  H2  O   H1  H2  O   H1  H2  O   H1  H2  O   H1  H2  
O   H1  H2  O   H1  H2  O   H1  H2  O   H1  H2  O   H1  H2  O   H1  H2  O   H1  
H2  O   H1  H2  O   H1  H2  O   H1  H2  O   H1  H2  O   H1  H2  O   H1  H2  O   
H1  H2  O   H1  H2  O   H1  H2  O   H1  H2  O   H1  H2  O   H1  H2  O   H1  H2  
O   H1  H2  O   H1  H2  O   H1  H2  O   H1  H2  O   H1  H2  O   H1  H2  O   H1  
H2  O   H1  H2  O   H1  H2  O   H1  H2  O   H1  H2  O   H1  H2  O   H1  H2  O   
H1  H2  O   H1  H2  O   H1  H2  O   H1  H2  O   H1  H2  O   H1  H2  O   H1  H2  
O   H1  H2  O   H1  H2  O   H1  H2  O   H1  H2  O   H1  H2  O   H1  H2  O   H1  
H2  O   H1  H2  O   H1  H2  O   H1  H2  O   H1  H2  O   H1  H2  O   H1  H2  O   
H1  H2  O   H1  H2  O   H1  H2  O   H1  H2  O   H1  H2  O   H1  H2  O   H1  H2  
O   H1  H2  O   H1  H2  O   H1  H2  O   H1  H2  O   H1  H2  O   H1  H2  O   H1  
H2  O   H1  H2  O   H1  H2  O   H1  H2  O   H1  H2  O   H1  H2  O   H1  H2  O   
H1  H2  O   H1  H2  O   H1  H2  O   H1  H2  O   H1  H2  O   H1  H2  O   H1  H2  
O   H1  H2  O   H1  H2  O   H1  H2  O   H1  H2  O   H1  H2  O   H1  H2  O   H1  
H2  O   H1  H2  O   H1  H2  O   H1  H2  O   H1  H2  O   H1  H2  O   H1  H2  O   
H1  H2  O   H1  H2  O   H1  H2  O   H1  H2  O   H1  H2  O   H1  H2  O   H1  H2  
O   H1  H2  O   H1  H2  O   H1  H2  O   H1  H2  O   H1  H2  O   H1  H2  O   H1  
H2  O   H1  H2  O   H1  H2  O   H1  H2  O   H1  H2  O   H1  H2  O   H1  H2  O   
H1  H2  O   H1  H2  O   H1  H2  O   H1  H2  O   H1  H2  O   H1  H2  O   H1  H2  
O   H1  H2  O   H1  H2  O   H1  H2  O   H1  H2  O   H1  H2  O   H1  H2  O   H1  
H2  O   H1  H2  O   H1  H2  O   H1  H2  O   H1  H2  O   H1  H2  O   H1  H2  O   
H1  H2  O   H1  H2  O   H1  H2  O   H1  H2  O   H1  H2  O   H1  H2  O   H1  H2  
O   H1  H2  O   H1  H2  O   H1  H2  O   H1  H2  O   H1  H2  O   H1  H2  O   H1  
H2  O   H1  H2  O   H1  H2  O   H1  H2  O   H1  H2  O   H1  H2  O   H1  H2  O   
H1  H2  O   H1  H2  O   H1  H2  O   H1  H2  O   H1  H2  O   H1  H2  O   H1  H2  
O   H1  H2  O   H1  H2  O   H1  H2  O   H1  H2  O   H1  H2  O   H1  H2  O   H1  
H2  O   H1  H2  O   H1  H2  O   H1  H2  O   H1  H2  O   H1  H2  O   H1  H2  O   
H1  H2  O   H1  H2  O   H1  H2  O   H1  H2  O   H1  H2  O   H1  H2  O   H1  H2  
O   H1  H2  O   H1  H2  O   H1  H2  O   H1  H2  O   H1  H2  O   H1  H2  O   H1  
H2  O   H1  H2  O   H1  H2  O   H1  H2  O   H1  H2  O   H1  H2  O   H1  H2  O   
H1  H2  O   H1  H2  O   H1  H2  O   H1  H2  O   H1  H2  O   H1  H2  O   H1  H2  
O   H1  H2  O   H1  H2  O   H1  H2  O   H1  H2  O   H1  H2  O   H1  H2  O   H1  
H2  O   H1  H2  O   H1  H2  O   H1  H2  O   H1  H2  O   H1  H2  O   H1  H2  O   
H1  H2  O   H1  H2  O   H1  H2  O   H1  H2  O   H1  H2  O   H1  H2  O   H1  H2  
O   H1  H2  O   H1  H2  O   H1  H2  O   H1  H2  O   H1  H2  O   H1  H2  O   H1  
H2  O   H1  H2  O   H1  H2  O   H1  H2  O   H1  H2  O   H1  H2  O   H1  H2  O   
H1  H2  O   H1  H2  O   H1  H2  O   H1  H2  O   H1  H2  O   H1  H2  O   H1  H2  
O   H1  H2  O   H1  H2  O   H1  H2  O   H1  H2  O   H1  H2  O   H1  H2  O   H1  
H2  O   H1  H2  O   H1  H2  O   H1  H2  O   H1  H2  O   H1  H2  O   H1  H2  O   
H1  H2  O   H1  H2  O   H1  H2  O   H1  H2  O   H1  H2  O   H1  H2  O   H1  H2  
O   H1  H2  O   H1  H2  O   H1  H2  O   H1  H2  O   H1  H2  O   H1  H2  O   H1  
H2  O   H1  H2  O   H1  H2  O   H1  H2  O   H1  H2  O   H1  H2  O   H1  H2  O   
H1  H2  O   H1  H2  O   H1  H2  O   H1  H2  O   H1  H2  O   H1  H2  O   H1  H2  
O   H1  H2  O   H1  H2  O   H1  H2  O   H1  H2  O   H1  H2  O   H1  H2  O   H1  
H2  O   H1  H2  O   H1  H2  O   H1  H2  O   H1  H2  O   H1  H2  O   H1  H2  O   
H1  H2  O   H1  H2  O   H1  H2  O   H1  H2  O   H1  H2  O   H1  H2  O   H1  H2  
O   H1  H2  O   H1  H2  O   H1  H2  O   H1  H2  O   H1  H2  O   H1  H2  O   H1  
H2  O   H1  H2  O   H1  H2  O   H1  H2  O   H1  H2  O   H1  H2  O   H1  H2  O   
H1  H2  O   H1  H2  O   H1  H2  O   H1  H2  O   H1  H2  O   H1  H2  O   H1  H2  
O   H1  H2  O   H1  H2  O   H1  H2  O   H1  H2  O   H1  H2  O   H1  H2  O   H1  
H2  O   H1  H2  O   H1  H2  O   H1  H2  O   H1  H2  O   H1  H2  O   H1  H2  O   
H1  H2  O   H1  H2  O   H1  H2  O   H1  H2  O   H1  H2  O   H1  H2  O   H1  H2  
O   H1  H2  O   H1  H2  O   H1  H2  O   H1  H2  O   H1  H2  O   H1  H2  O   H1  
H2  O   H1  H2  O   H1  H2  O   H1  H2  O   H1  H2  O   H1  H2  O   H1  H2  O   
H1  H2  O   H1  H2  O   H1  H2  O   H1  H2  O   H1  H2  O   H1  H2  O   H1  H2  
O   H1  H2  O   H1  H2  O   H1  H2  O   H1  H2  O   H1  H2  O   H1  H2  O   H1  
H2  O   H1  H2  O   H1  H2  O   H1  H2  O   H1  H2  O   H1  H2  O   H1  H2  O   
H1  H2  O   H1  H2  O   H1  H2  O   H1  H2  O   H1  H2  O   H1  H2  O   H1  H2  
O   H1  H2  O   H1  H2  O   H1  H2  O   H1  H2  O   H1  H2  O   H1  H2  O   H1  
H2  O   H1  H2  O   H1  H2  O   H1  H2  O   H1  H2  O   H1  H2  O   H1  H2  O   
H1  H2  O   H1  H2  O   H1  H2  O   H1  H2  O   H1  H2  O   H1  H2  O   H1  H2  
O   H1  H2  O   H1  H2  O   H1  H2  O   H1  H2  O   H1  H2  O   H1  H2  O   H1  
H2  O   H1  H2  O   H1  H2  O   H1  H2  O   H1  H2  O   H1  H2  O   H1  H2  O   
H1  H2  O   H1  H2  O   H1  H2  O   H1  H2  O   H1  H2  O   H1  H2  O   H1  H2  
O   H1  H2  O   H1  H2  O   H1  H2  O   H1  H2  O   H1  H2  O   H1  H2  O   H1  
H2  O   H1  H2  O   H1  H2  O   H1  H2  O   H1  H2  O   H1  H2  O   H1  H2  O   
H1  H2  O   H1  H2  O   H1  H2  O   H1  H2  O   H1  H2  O   H1  H2  O   H1  H2  
O   H1  H2  O   H1  H2  O   H1  H2  O   H1  H2  O   H1  H2  O   H1  H2  O   H1  
H2  O   H1  H2  O   H1  H2  O   H1  H2  O   H1  H2  O   H1  H2  O   H1  H2  O   
H1  H2  O   H1  H2  O   H1  H2  O   H1  H2  O   H1  H2  O   H1  H2  O   H1  H2  
O   H1  H2  O   H1  H2  O   H1  H2  O   H1  H2  O   H1  H2  O   H1  H2  O   H1  
H2  O   H1  H2  O   H1  H2  O   H1  H2  O   H1  H2  O   H1  H2  O   H1  H2  O   
H1  H2  O   H1  H2  O   H1  H2  O   H1  H2  O   H1  H2  O   H1  H2  O   H1  H2  
O   H1  H2  O   H1  H2  O   H1  H2  O   H1  H2  O   H1  H2  O   H1  H2  O   H1  
H2  O   H1  H2  O   H1  H2  O   H1  H2  O   H1  H2  O   H1  H2  O   H1  H2  O   
H1  H2  O   H1  H2  O   H1  H2  O   H1  H2  O   H1  H2  O   H1  H2  O   H1  H2  
O   H1  H2  O   H1  H2  O   H1  H2  O   H1  H2  O   H1  H2  O   H1  H2  O   H1  
H2  O   H1  H2  O   H1  H2  O   H1  H2  O   H1  H2  O   H1  H2  O   H1  H2  O   
H1  H2  O   H1  H2  O   H1  H2  O   H1  H2  O   H1  H2  O   H1  H2  O   H1  H2  
O   H1  H2  O   H1  H2  O   H1  H2  O   H1  H2  O   H1  H2  O   H1  H2  O   H1  
H2  O   H1  H2  O   H1  H2  O   H1  H2  O   H1  H2  O   H1  H2  O   H1  H2  O   
H1  H2  O   H1  H2  O   H1  H2  O   H1  H2  O   H1  H2  O   H1  H2  O   H1  H2  
O   H1  H2  O   H1  H2  O   H1  H2  O   H1  H2  O   H1  H2  O   H1  H2  O   H1  
H2  O   H1  H2  O   H1  H2  O   H1  H2  O   H1  H2  O   H1  H2  O   H1  H2  O   
H1  H2  O   H1  H2  O   H1  H2  O   H1  H2  O   H1  H2  O   H1  H2  O   H1  H2  
O   H1  H2  O   H1  H2  O   H1  H2  O   H1  H2  O   H1  H2  O   H1  H2  O   H1  
H2  O   H1  H2  O   H1  H2  O   H1  H2  O   H1  H2  O   H1  H2  O   H1  H2  O   
H1  H2  O   H1  H2  O   H1  H2  O   H1  H2  O   H1  H2  O   H1  H2  O   H1  H2  
O   H1  H2  O   H1  H2  O   H1  H2  O   H1  H2  O   H1  H2  O   H1  H2  O   H1  
H2  O   H1  H2  O   H1  H2  O   H1  H2  O   H1  H2  O   H1  H2  O   H1  H2  O   
H1  H2  O   H1  H2  O   H1  H2  O   H1  H2  O   H1  H2  O   H1  H2  O   H1  H2  
O   H1  H2  O   H1  H2  O   H1  H2  O   H1  H2  O   H1  H2  O   H1  H2  O   H1  
H2  O   H1  H2  O   H1  H2  O   H1  H2  O   H1  H2  O   H1  H2  O   H1  H2  O   
H1  H2  O   H1  H2  O   H1  H2  O   H1  H2  O   H1  H2  O   H1  H2  O   H1  H2  
O   H1  H2  O   H1  H2  O   H1  H2  O   H1  H2  O   H1  H2  O   H1  H2  O   H1  
H2  O   H1  H2  O   H1  H2  O   H1  H2  O   H1  H2  O   H1  H2  O   H1  H2  O   
H1  H2  O   H1  H2  O   H1  H2  O   H1  H2  O   H1  H2  O   H1  H2  O   H1  H2  
O   H1  H2  O   H1  H2  O   H1  H2  O   H1  H2  O   H1  H2  O   H1  H2  O   H1  
H2  O   H1  H2  O   H1  H2  O   H1  H2  O   H1  H2  O   H1  H2  O   H1  H2  O   
H1  H2  O   H1  H2  O   H1  H2  O   H1  H2  O   H1  H2  O   H1  H2  O   H1  H2  
O   H1  H2  O   H1  H2  O   H1  H2  O   H1  H2  O   H1  H2  O   H1  H2  O   H1  
H2  O   H1  H2  O   H1  H2  O   H1  H2  O   H1  H2  O   H1  H2  O   H1  H2  O   
H1  H2  O   H1  H2  O   H1  H2  O   H1  H2  O   H1  H2  O   H1  H2  O   H1  H2  
O   H1  H2  O   H1  H2  O   H1  H2  O   H1  H2  O   H1  H2  O   H1  H2  O   H1  
H2  O   H1  H2  O   H1  H2  O   H1  H2  O   H1  H2  O   H1  H2  O   H1  H2  O   
H1  H2  O   H1  H2  O   H1  H2  O   H1  H2  O   H1  H2  O   H1  H2  O   H1  H2  
O   H1  H2  O   H1  H2  O   H1  H2  O   H1  H2  O   H1  H2  O   H1  H2  O   H1  
H2  O   H1  H2  O   H1  H2  O   H1  H2  O   H1  H2  O   H1  H2  O   H1  H2  O   
H1  H2  O   H1  H2  O   H1  H2  O   H1  H2  O   H1  H2  O   H1  H2  O   H1  H2  
O   H1  H2  O   H1  H2  O   H1  H2  O   H1  H2  O   H1  H2  O   H1  H2  O   H1  
H2  O   H1  H2  O   H1  H2  O   H1  H2  O   H1  H2  O   H1  H2  O   H1  H2  O   
H1  H2  O   H1  H2  O   H1  H2  O   H1  H2  O   H1  H2  O   H1  H2  O   H1  H2  
O   H1  H2  O   H1  H2  O   H1  H2  O   H1  H2  O   H1  H2  O   H1  H2  O   H1  
H2  O   H1  H2  O   H1  H2  O   H1  H2  O   H1  H2  O   H1  H2  O   H1  H2  O   
H1  H2  O   H1  H2  O   H1  H2  O   H1  H2  O   H1  H2  O   H1  H2  O   H1  H2  
O   H1  H2  O   H1  H2  O   H1  H2  O   H1  H2  O   H1  H2  O   H1  H2  O   H1  
H2  O   H1  H2  O   H1  H2  O   H1  H2  O   H1  H2  O   H1  H2  O   H1  H2  O   
H1  H2  O   H1  H2  O   H1  H2  O   H1  H2  O   H1  H2  O   H1  H2  O   H1  H2  
O   H1  H2  O   H1  H2  O   H1  H2  O   H1  H2  O   H1  H2  O   H1  H2  O   H1  
H2  O   H1  H2  O   H1  H2  O   H1  H2  O   H1  H2  O   H1  H2  O   H1  H2  O   
H1  H2  O   H1  H2  O   H1  H2  O   H1  H2  O   H1  H2  O   H1  H2  O   H1  H2  
O   H1  H2  O   H1  H2  O   H1  H2  O   H1  H2  O   H1  H2  O   H1  H2  O   H1  
H2  O   H1  H2  O   H1  H2  O   H1  H2  O   H1  H2  O   H1  H2  O   H1  H2  O   
H1  H2  O   H1  H2  O   H1  H2  O   H1  H2  O   H1  H2  O   H1  H2  O   H1  H2  
O   H1  H2  O   H1  H2  O   H1  H2  O   H1  H2  O   H1  H2  O   H1  H2  O   H1  
H2  O   H1  H2  O   H1  H2  O   H1  H2  O   H1  H2  O   H1  H2  O   H1  H2  O   
H1  H2  O   H1  H2  O   H1  H2  O   H1  H2  O   H1  H2  O   H1  H2  O   H1  H2  
O   H1  H2  O   H1  H2  O   H1  H2  O   H1  H2  O   H1  H2  O   H1  H2  O   H1  
H2  O   H1  H2  O   H1  H2  O   H1  H2  O   H1  H2  O   H1  H2  O   H1  H2  O   
H1  H2  O   H1  H2  O   H1  H2  O   H1  H2  O   H1  H2  O   H1  H2  O   H1  H2  
O   H1  H2  O   H1  H2  O   H1  H2  O   H1  H2  O   H1  H2  O   H1  H2  O   H1  
H2  O   H1  H2  O   H1  H2  O   H1  H2  O   H1  H2  O   H1  H2  O   H1  H2  O   
H1  H2  O   H1  H2  O   H1  H2  O   H1  H2  O   H1  H2  O   H1  H2  O   H1  H2  
O   H1  H2  O   H1  H2  O   H1  H2  O   H1  H2  O   H1  H2  O   H1  H2  O   H1  
H2  O   H1  H2  O   H1  H2  O   H1  H2  O   H1  H2  O   H1  H2  O   H1  H2  O   
H1  H2  O   H1  H2  O   H1  H2  O   H1  H2  O   H1  H2  O   H1  H2  O   H1  H2  
O   H1  H2  O   H1  H2  O   H1  H2  O   H1  H2  O   H1  H2  O   H1  H2  O   H1  
H2  O   H1  H2  O   H1  H2  O   H1  H2  O   H1  H2  O   H1  H2  O   H1  H2  O   
H1  H2  O   H1  H2  O   H1  H2  O   H1  H2  O   H1  H2  O   H1  H2  O   H1  H2  
O   H1  H2  O   H1  H2  O   H1  H2  O   H1  H2  O   H1  H2  O   H1  H2  O   H1  
H2  O   H1  H2  O   H1  H2  O   H1  H2  O   H1  H2  O   H1  H2  O   H1  H2  O   
H1  H2  O   H1  H2  O   H1  H2  O   H1  H2  O   H1  H2  O   H1  H2  O   H1  H2  
O   H1  H2  O   H1  H2  O   H1  H2  O   H1  H2  O   H1  H2  O   H1  H2  O   H1  
H2  O   H1  H2  O   H1  H2  O   H1  H2  O   H1  H2  O   H1  H2  O   H1  H2  O   
H1  H2  O   H1  H2  O   H1  H2  O   H1  H2  O   H1  H2  O   H1  H2  O   H1  H2  
O   H1  H2  O   H1  H2  O   H1  H2  O   H1  H2  O   H1  H2  O   H1  H2  O   H1  
H2  O   H1  H2  O   H1  H2  O   H1  H2  O   H1  H2  O   H1  H2  O   H1  H2  O   
H1  H2  O   H1  H2  O   H1  H2  O   H1  H2  O   H1  H2  O   H1  H2  O   H1  H2  
O   H1  H2  O   H1  H2  O   H1  H2  O   H1  H2  O   H1  H2  O   H1  H2  O   H1  
H2  O   H1  H2  O   H1  H2  O   H1  H2  O   H1  H2  O   H1  H2  O   H1  H2  O   
H1  H2  O   H1  H2  O   H1  H2  O   H1  H2  O   H1  H2  O   H1  H2  O   H1  H2  
O   H1  H2  O   H1  H2  O   H1  H2  O   H1  H2  O   H1  H2  O   H1  H2  O   H1  
H2  O   H1  H2  O   H1  H2  O   H1  H2  O   H1  H2  O   H1  H2  O   H1  H2  O   
H1  H2  O   H1  H2  O   H1  H2  O   H1  H2  O   H1  H2  O   H1  H2  O   H1  H2  
O   H1  H2  O   H1  H2  O   H1  H2  O   H1  H2  O   H1  H2  O   H1  H2  O   H1  
H2  O   H1  H2  O   H1  H2  O   H1  H2  O   H1  H2  O   H1  H2  O   H1  H2  O   
H1  H2  O   H1  H2  O   H1  H2  O   H1  H2  O   H1  H2  O   H1  H2  O   H1  H2  
O   H1  H2  O   H1  H2  O   H1  H2  O   H1  H2  O   H1  H2  O   H1  H2  O   H1  
H2  O   H1  H2  O   H1  H2  O   H1  H2  O   H1  H2  O   H1  H2  O   H1  H2  O   
H1  H2  O   H1  H2  O   H1  H2  O   H1  H2  O   H1  H2  O   H1  H2  O   H1  H2  
O   H1  H2  O   H1  H2  O   H1  H2  O   H1  H2  O   H1  H2  O   H1  H2  O   H1  
H2  O   H1  H2  O   H1  H2  O   H1  H2  O   H1  H2  O   H1  H2  O   H1  H2  O   
H1  H2  O   H1  H2  O   H1  H2  O   H1  H2  O   H1  H2  O   H1  H2  O   H1  H2  
O   H1  H2  O   H1  H2  O   H1  H2  O   H1  H2  O   H1  H2  O   H1  H2  O   H1  
H2  O   H1  H2  O   H1  H2  O   H1  H2  O   H1  H2  O   H1  H2  O   H1  H2  O   
H1  H2  O   H1  H2  O   H1  H2  O   H1  H2  O   H1  H2  O   H1  H2  O   H1  H2  
O   H1  H2  O   H1  H2  O   H1  H2  O   H1  H2  O   H1  H2  O   H1  H2  O   H1  
H2  O   H1  H2  O   H1  H2  O   H1  H2  O   H1  H2  O   H1  H2  O   H1  H2  O   
H1  H2  O   H1  H2  O   H1  H2  O   H1  H2  O   H1  H2  O   H1  H2  O   H1  H2  
O   H1  H2  O   H1  H2  O   H1  H2  O   H1  H2  O   H1  H2  O   H1  H2  O   H1  
H2  O   H1  H2  O   H1  H2  O   H1  H2  O   H1  H2  O   H1  H2  O   H1  H2  O   
H1  H2  O   H1  H2  O   H1  H2  O   H1  H2  O   H1  H2  O   H1  H2  O   H1  H2  
O   H1  H2  O   H1  H2  O   H1  H2  O   H1  H2  O   H1  H2  O   H1  H2  O   H1  
H2  O   H1  H2  O   H1  H2  O   H1  H2  O   H1  H2  O   H1  H2  O   H1  H2  O   
H1  H2  O   H1  H2  O   H1  H2  O   H1  H2  O   H1  H2  O   H1  H2  O   H1  H2  
O   H1  H2  O   H1  H2  O   H1  H2  O   H1  H2  O   H1  H2  O   H1  H2  O   H1  
H2  O   H1  H2  O   H1  H2  O   H1  H2  O   H1  H2  O   H1  H2  O   H1  H2  O   
H1  H2  O   H1  H2  O   H1  H2  O   H1  H2  O   H1  H2  O   H1  H2  O   H1  H2  
O   H1  H2  O   H1  H2  O   H1  H2  O   H1  H2  O   H1  H2  O   H1  H2  O   H1  
H2  O   H1  H2  O   H1  H2  O   H1  H2  O   H1  H2  O   H1  H2  O   H1  H2  O   
H1  H2  O   H1  H2  O   H1  H2  O   H1  H2  O   H1  H2  O   H1  H2  O   H1  H2  
O   H1  H2  O   H1  H2  O   H1  H2  O   H1  H2  O   H1  H2  O   H1  H2  O   H1  
H2  O   H1  H2  O   H1  H2  O   H1  H2  O   H1  H2  O   H1  H2  O   H1  H2  O   
H1  H2  O   H1  H2  O   H1  H2  O   H1  H2  O   H1  H2  O   H1  H2  O   H1  H2  
O   H1  H2  O   H1  H2  O   H1  H2  O   H1  H2  O   H1  H2  O   H1  H2  O   H1  
H2  O   H1  H2  O   H1  H2  O   H1  H2  O   H1  H2  O   H1  H2  O   H1  H2  O   
H1  H2  O   H1  H2  O   H1  H2  O   H1  H2  O   H1  H2  O   H1  H2  O   H1  H2  
O   H1  H2  O   H1  H2  O   H1  H2  O   H1  H2  O   H1  H2  O   H1  H2  O   H1  
H2  O   H1  H2  O   H1  H2  O   H1  H2  O   H1  H2  O   H1  H2  O   H1  H2  O   
H1  H2  O   H1  H2  O   H1  H2  O   H1  H2  O   H1  H2  O   H1  H2  O   H1  H2  
O   H1  H2  O   H1  H2  O   H1  H2  O   H1  H2  O   H1  H2  O   H1  H2  O   H1  
H2  O   H1  H2  O   H1  H2  O   H1  H2  O   H1  H2  O   H1  H2  O   H1  H2  O   
H1  H2  O   H1  H2  O   H1  H2  O   H1  H2  O   H1  H2  O   H1  H2  O   H1  H2  
O   H1  H2  O   H1  H2  O   H1  H2  O   H1  H2  O   H1  H2  O   H1  H2  O   H1  
H2  O   H1  H2  O   H1  H2  O   H1  H2  O   H1  H2  O   H1  H2  O   H1  H2  O   
H1  H2  O   H1  H2  O   H1  H2  O   H1  H2  O   H1  H2  O   H1  H2  O   H1  H2  
O   H1  H2  O   H1  H2  O   H1  H2  O   H1  H2  O   H1  H2  O   H1  H2  O   H1  
H2  O   H1  H2  O   H1  H2  O   H1  H2  O   H1  H2  O   H1  H2  O   H1  H2  O   
H1  H2  O   H1  H2  O   H1  H2  O   H1  H2  O   H1  H2  O   H1  H2  O   H1  H2  
O   H1  H2  O   H1  H2  O   H1  H2  O   H1  H2  O   H1  H2  O   H1  H2  O   H1  
H2  O   H1  H2  O   H1  H2  O   H1  H2  O   H1  H2  O   H1  H2  O   H1  H2  O   
H1  H2  O   H1  H2  O   H1  H2  O   H1  H2  O   H1  H2  O   H1  H2  O   H1  H2  
O   H1  H2  O   H1  H2  O   H1  H2  O   H1  H2  O   H1  H2  O   H1  H2  O   H1  
H2  O   H1  H2  O   H1  H2  O   H1  H2  O   H1  H2  O   H1  H2  O   H1  H2  O   
H1  H2  O   H1  H2  O   H1  H2  O   H1  H2  O   H1  H2  O   H1  H2  O   H1  H2  
O   H1  H2  O   H1  H2  O   H1  H2  O   H1  H2  O   H1  H2  O   H1  H2  O   H1  
H2  O   H1  H2  O   H1  H2  O   H1  H2  O   H1  H2  O   H1  H2  O   H1  H2  O   
H1  H2  O   H1  H2  O   H1  H2  O   H1  H2  O   H1  H2  O   H1  H2  O   H1  H2  
O   H1  H2  O   H1  H2  O   H1  H2  O   H1  H2  O   H1  H2  O   H1  H2  O   H1  
H2  O   H1  H2  O   H1  H2  O   H1  H2  O   H1  H2  O   H1  H2  O   H1  H2  O   
H1  H2  O   H1  H2  O   H1  H2  O   H1  H2  O   H1  H2  O   H1  H2  O   H1  H2  
O   H1  H2  O   H1  H2  O   H1  H2  O   H1  H2  O   H1  H2  O   H1  H2  O   H1  
H2  O   H1  H2  O   H1  H2  O   H1  H2  O   H1  H2  O   H1  H2  O   H1  H2  O   
H1  H2  O   H1  H2  O   H1  H2  O   H1  H2  O   H1  H2  O   H1  H2  O   H1  H2  
O   H1  H2  O   H1  H2  O   H1  H2  O   H1  H2  O   H1  H2  O   H1  H2  O   H1  
H2  O   H1  H2  O   H1  H2  O   H1  H2  O   H1  H2  O   H1  H2  O   H1  H2  O   
H1  H2  O   H1  H2  O   H1  H2  O   H1  H2  O   H1  H2  O   H1  H2  O   H1  H2  
O   H1  H2  O   H1  H2  O   H1  H2  O   H1  H2  O   H1  H2  O   H1  H2  O   H1  
H2  O   H1  H2  O   H1  H2  O   H1  H2  O   H1  H2  O   H1  H2  O   H1  H2  O   
H1  H2  O   H1  H2  O   H1  H2  O   H1  H2  O   H1  H2  O   H1  H2  O   H1  H2  
O   H1  H2  O   H1  H2  O   H1  H2  O   H1  H2  O   H1  H2  O   H1  H2  O   H1  
H2  O   H1  H2  O   H1  H2  O   H1  H2  O   H1  H2  O   H1  H2  O   H1  H2  O   
H1  H2  O   H1  H2  O   H1  H2  O   H1  H2  O   H1  H2  O   H1  H2  O   H1  H2  
O   H1  H2  O   H1  H2  O   H1  H2  O   H1  H2  O   H1  H2  O   H1  H2  O   H1  
H2  O   H1  H2  O   H1  H2  O   H1  H2  O   H1  H2  O   H1  H2  O   H1  H2  O   
H1  H2  O   H1  H2  O   H1  H2  O   H1  H2  O   H1  H2  O   H1  H2  O   H1  H2  
O   H1  H2  O   H1  H2  O   H1  H2  O   H1  H2  O   H1  H2  O   H1  H2  O   H1  
H2  O   H1  H2  O   H1  H2  O   H1  H2  O   H1  H2  O   H1  H2  O   H1  H2  O   
H1  H2  O   H1  H2  O   H1  H2  O   H1  H2  O   H1  H2  O   H1  H2  O   H1  H2  
O   H1  H2  O   H1  H2  O   H1  H2  O   H1  H2  O   H1  H2  O   H1  H2  O   H1  
H2  O   H1  H2  O   H1  H2  O   H1  H2  O   H1  H2  O   H1  H2  O   H1  H2  O   
H1  H2  O   H1  H2  O   H1  H2  O   H1  H2  O   H1  H2  O   H1  H2  O   H1  H2  
O   H1  H2  O   H1  H2  O   H1  H2  O   H1  H2  O   H1  H2  O   H1  H2  O   H1  
H2  O   H1  H2  O   H1  H2  O   H1  H2  O   H1  H2  O   H1  H2  O   H1  H2  O   
H1  H2  O   H1  H2  O   H1  H2  O   H1  H2  O   H1  H2  O   H1  H2  O   H1  H2  
O   H1  H2  O   H1  H2  O   H1  H2  O   H1  H2  O   H1  H2  O   H1  H2  O   H1  
H2  O   H1  H2  O   H1  H2  O   H1  H2  O   H1  H2  O   H1  H2  O   H1  H2  O   
H1  H2  O   H1  H2  O   H1  H2  O   H1  H2  O   H1  H2  O   H1  H2  O   H1  H2  
O   H1  H2  O   H1  H2  O   H1  H2  O   H1  H2  O   H1  H2  O   H1  H2  O   H1  
H2  O   H1  H2  O   H1  H2  O   H1  H2  O   H1  H2  O   H1  H2  O   H1  H2  O   
H1  H2  O   H1  H2  O   H1  H2  O   H1  H2  O   H1  H2  O   H1  H2  O   H1  H2  
O   H1  H2  O   H1  H2  O   H1  H2  O   H1  H2  O   H1  H2  O   H1  H2  O   H1  
H2  O   H1  H2  O   H1  H2  O   H1  H2  O   H1  H2  O   H1  H2  O   H1  H2  O   
H1  H2  O   H1  H2  O   H1  H2  O   H1  H2  O   H1  H2  O   H1  H2  O   H1  H2  
O   H1  H2  O   H1  H2  O   H1  H2  O   H1  H2  O   H1  H2  O   H1  H2  O   H1  
H2  O   H1  H2  O   H1  H2  O   H1  H2  O   H1  H2  O   H1  H2  O   H1  H2  O   
H1  H2  O   H1  H2  O   H1  H2  O   H1  H2  O   H1  H2  O   H1  H2  O   H1  H2  
O   H1  H2  O   H1  H2  O   H1  H2  O   H1  H2  O   H1  H2  O   H1  H2  O   H1  
H2  O   H1  H2  O   H1  H2  O   H1  H2  O   H1  H2  O   H1  H2  O   H1  H2  O   
H1  H2  O   H1  H2  O   H1  H2  O   H1  H2  O   H1  H2  O   H1  H2  O   H1  H2  
O   H1  H2  O   H1  H2  O   H1  H2  O   H1  H2  O   H1  H2  O   H1  H2  O   H1  
H2  O   H1  H2  O   H1  H2  O   H1  H2  O   H1  H2  O   H1  H2  O   H1  H2  O   
H1  H2  O   H1  H2  O   H1  H2  O   H1  H2  O   H1  H2  O   H1  H2  O   H1  H2  
O   H1  H2  O   H1  H2  O   H1  H2  O   H1  H2  O   H1  H2  O   H1  H2  O   H1  
H2  O   H1  H2  O   H1  H2  O   H1  H2  O   H1  H2  O   H1  H2  O   H1  H2  O   
H1  H2  O   H1  H2  O   H1  H2  O   H1  H2  O   H1  H2  O   H1  H2  O   H1  H2  
O   H1  H2  O   H1  H2  O   H1  H2  O   H1  H2  O   H1  H2  O   H1  H2  O   H1  
H2  O   H1  H2  O   H1  H2  O   H1  H2  O   H1  H2  O   H1  H2  O   H1  H2  O   
H1  H2  O   H1  H2  O   H1  H2  O   H1  H2  O   H1  H2  O   H1  H2  O   H1  H2  
O   H1  H2  O   H1  H2  O   H1  H2  O   H1  H2  O   H1  H2  O   H1  H2  O   H1  
H2  O   H1  H2  O   H1  H2  O   H1  H2  O   H1  H2  O   H1  H2  O   H1  H2  O   
H1  H2  O   H1  H2  O   H1  H2  O   H1  H2  O   H1  H2  O   H1  H2  O   H1  H2  
O   H1  H2  O   H1  H2  O   H1  H2  O   H1  H2  O   H1  H2  O   H1  H2  O   H1  
H2  O   H1  H2  O   H1  H2  O   H1  H2  O   H1  H2  O   H1  H2  O   H1  H2  O   
H1  H2  O   H1  H2  O   H1  H2  O   H1  H2  O   H1  H2  O   H1  H2  O   H1  H2  
O   H1  H2  O   H1  H2  O   H1  H2  O   H1  H2  O   H1  H2  O   H1  H2  O   H1  
H2  O   H1  H2  O   H1  H2  O   H1  H2  O   H1  H2  O   H1  H2  O   H1  H2  O   
H1  H2  O   H1  H2  O   H1  H2  O   H1  H2  O   H1  H2  O   H1  H2  O   H1  H2  
O   H1  H2  O   H1  H2  O   H1  H2  O   H1  H2  O   H1  H2  O   H1  H2  O   H1  
H2  O   H1  H2  O   H1  H2  O   H1  H2  O   H1  H2  O   H1  H2  O   H1  H2  O   
H1  H2  O   H1  H2  O   H1  H2  O   H1  H2  O   H1  H2  O   H1  H2  O   H1  H2  
O   H1  H2  O   H1  H2  O   H1  H2  O   H1  H2  O   H1  H2  O   H1  H2  O   H1  
H2  O   H1  H2  O   H1  H2  O   H1  H2  O   H1  H2  O   H1  H2  O   H1  H2  O   
H1  H2  O   H1  H2  O   H1  H2  O   H1  H2  O   H1  H2  O   H1  H2  O   H1  H2  
O   H1  H2  O   H1  H2  O   H1  H2  O   H1  H2  O   H1  H2  O   H1  H2  O   H1  
H2  O   H1  H2  O   H1  H2  O   H1  H2  O   H1  H2  O   H1  H2  O   H1  H2  O   
H1  H2  O   H1  H2  O   H1  H2  O   H1  H2  O   H1  H2  O   H1  H2  O   H1  H2  
O   H1  H2  O   H1  H2  O   H1  H2  O   H1  H2  O   H1  H2  O   H1  H2  O   H1  
H2  O   H1  H2  O   H1  H2  O   H1  H2  O   H1  H2  O   H1  H2  O   H1  H2  O   
H1  H2  O   H1  H2  O   H1  H2  O   H1  H2  O   H1  H2  O   H1  H2  O   H1  H2  
O   H1  H2  O   H1  H2  O   H1  H2  O   H1  H2  O   H1  H2  O   H1  H2  O   H1  
H2  O   H1  H2  O   H1  H2  O   H1  H2  O   H1  H2  O   H1  H2  O   H1  H2  O   
H1  H2  O   H1  H2  O   H1  H2  O   H1  H2  O   H1  H2  O   H1  H2  O   H1  H2  
O   H1  H2  O   H1  H2  O   H1  H2  O   H1  H2  O   H1  H2  O   H1  H2  O   H1  
H2  O   H1  H2  O   H1  H2  O   H1  H2  O   H1  H2  O   H1  H2  O   H1  H2  O   
H1  H2  O   H1  H2  O   H1  H2  O   H1  H2  O   H1  H2  O   H1  H2  O   H1  H2  
O   H1  H2  O   H1  H2  O   H1  H2  O   H1  H2  O   H1  H2  O   H1  H2  O   H1  
H2  O   H1  H2  O   H1  H2  O   H1  H2  O   H1  H2  O   H1  H2  O   H1  H2  O   
H1  H2  O   H1  H2  O   H1  H2  O   H1  H2  O   H1  H2  O   H1  H2  O   H1  H2  
O   H1  H2  O   H1  H2  O   H1  H2  O   H1  H2  O   H1  H2  O   H1  H2  O   H1  
H2  O   H1  H2  O   H1  H2  O   H1  H2  O   H1  H2  O   H1  H2  O   H1  H2  O   
H1  H2  O   H1  H2  O   H1  H2  O   H1  H2  O   H1  H2  O   H1  H2  O   H1  H2  
O   H1  H2  O   H1  H2  O   H1  H2  O   H1  H2  O   H1  H2  O   H1  H2  O   H1  
H2  O   H1  H2  O   H1  H2  O   H1  H2  O   H1  H2  O   H1  H2  O   H1  H2  O   
H1  H2  O   H1  H2  O   H1  H2  O   H1  H2  O   H1  H2  O   H1  H2  O   H1  H2  
O   H1  H2  O   H1  H2  O   H1  H2  O   H1  H2  O   H1  H2  O   H1  H2  O   H1  
H2  O   H1  H2  O   H1  H2  O   H1  H2  O   H1  H2  O   H1  H2  O   H1  H2  O   
H1  H2  O   H1  H2  O   H1  H2  O   H1  H2  O   H1  H2  O   H1  H2  O   H1  H2  
O   H1  H2  O   H1  H2  O   H1  H2  O   H1  H2  O   H1  H2  O   H1  H2  O   H1  
H2  O   H1  H2  O   H1  H2  O   H1  H2  O   H1  H2  O   H1  H2  O   H1  H2  O   
H1  H2  O   H1  H2  O   H1  H2  O   H1  H2  O   H1  H2  O   H1  H2  O   H1  H2  
O   H1  H2  O   H1  H2  O   H1  H2  O   H1  H2  O   H1  H2  O   H1  H2  O   H1  
H2  O   H1  H2  O   H1  H2  O   H1  H2  O   H1  H2  O   H1  H2  O   H1  H2  O   
H1  H2  O   H1  H2  O   H1  H2  O   H1  H2  O   H1  H2  O   H1  H2  O   H1  H2  
O   H1  H2  O   H1  H2  O   H1  H2  O   H1  H2  O   H1  H2  O   H1  H2  O   H1  
H2  O   H1  H2  O   H1  H2  O   H1  H2  O   H1  H2  O   H1  H2  O   H1  H2  O   
H1  H2  O   H1  H2  O   H1  H2  O   H1  H2  O   H1  H2  O   H1  H2  O   H1  H2  
O   H1  H2  O   H1  H2  O   H1  H2  O   H1  H2  O   H1  H2  O   H1  H2  O   H1  
H2  O   H1  H2  O   H1  H2  O   H1  H2  O   H1  H2  O   H1  H2  O   H1  H2  O   
H1  H2  O   H1  H2  O   H1  H2  O   H1  H2  O   H1  H2  O   H1  H2  O   H1  H2  
O   H1  H2  O   H1  H2  O   H1  H2  O   H1  H2  O   H1  H2  O   H1  H2  O   H1  
H2  O   H1  H2  O   H1  H2  O   H1  H2  O   H1  H2  O   H1  H2  O   H1  H2  O   
H1  H2  O   H1  H2  O   H1  H2  O   H1  H2  O   H1  H2  O   H1  H2  O   H1  H2  
O   H1  H2  O   H1  H2  O   H1  H2  O   H1  H2  O   H1  H2  O   H1  H2  O   H1  
H2  O   H1  H2  O   H1  H2  O   H1  H2  O   H1  H2  O   H1  H2  O   H1  H2  O   
H1  H2  O   H1  H2  O   H1  H2  O   H1  H2  O   H1  H2  O   H1  H2  O   H1  H2  
O   H1  H2  O   H1  H2  O   H1  H2  O   H1  H2  O   H1  H2  O   H1  H2  O   H1  
H2  O   H1  H2  O   H1  H2  O   H1  H2  O   H1  H2  O   H1  H2  O   H1  H2  O   
H1  H2  O   H1  H2  O   H1  H2  O   H1  H2  O   H1  H2  O   H1  H2  O   H1  H2  
O   H1  H2  O   H1  H2  O   H1  H2  O   H1  H2  O   H1  H2  O   H1  H2  O   H1  
H2  O   H1  H2  O   H1  H2  O   H1  H2  O   H1  H2  O   H1  H2  O   H1  H2  O   
H1  H2  O   H1  H2  O   H1  H2  O   H1  H2  O   H1  H2  O   H1  H2  O   H1  H2  
O   H1  H2  O   H1  H2  O   H1  H2  O   H1  H2  O   H1  H2  O   H1  H2  O   H1  
H2  O   H1  H2  O   H1  H2  O   H1  H2  O   H1  H2  O   H1  H2  O   H1  H2  O   
H1  H2  O   H1  H2  O   H1  H2  O   H1  H2  O   H1  H2  O   H1  H2  O   H1  H2  
O   H1  H2  O   H1  H2  O   H1  H2  O   H1  H2  O   H1  H2  O   H1  H2  O   H1  
H2  O   H1  H2  O   H1  H2  O   H1  H2  O   H1  H2  O   H1  H2  O   H1  H2  O   
H1  H2  O   H1  H2  O   H1  H2  O   H1  H2  O   H1  H2  O   H1  H2  O   H1  H2  
O   H1  H2  O   H1  H2  O   H1  H2  O   H1  H2  O   H1  H2  O   H1  H2  O   H1  
H2  O   H1  H2  O   H1  H2  O   H1  H2  O   H1  H2  O   H1  H2  O   H1  H2  O   
H1  H2  O   H1  H2  O   H1  H2  O   H1  H2  O   H1  H2  O   H1  H2  O   H1  H2  
O   H1  H2  O   H1  H2  O   H1  H2  O   H1  H2  O   H1  H2  O   H1  H2  O   H1  
H2  O   H1  H2  O   H1  H2  O   H1  H2  O   H1  H2  O   H1  H2  O   H1  H2  O   
H1  H2  O   H1  H2  O   H1  H2  O   H1  H2  O   H1  H2  O   H1  H2  O   H1  H2  
O   H1  H2  O   H1  H2  O   H1  H2  O   H1  H2  O   H1  H2  O   H1  H2  O   H1  
H2  O   H1  H2  O   H1  H2  O   H1  H2  O   H1  H2  O   H1  H2  O   H1  H2  O   
H1  H2  O   H1  H2  O   H1  H2  O   H1  H2  O   H1  H2  O   H1  H2  O   H1  H2  
O   H1  H2  O   H1  H2  O   H1  H2  O   H1  H2  O   H1  H2  O   H1  H2  O   H1  
H2  O   H1  H2  O   H1  H2  O   H1  H2  O   H1  H2  O   H1  H2  O   H1  H2  O   
H1  H2  O   H1  H2  O   H1  H2  O   H1  H2  O   H1  H2  O   H1  H2  O   H1  H2  
O   H1  H2  O   H1  H2  O   H1  H2  O   H1  H2  O   H1  H2  O   H1  H2  O   H1  
H2  O   H1  H2  O   H1  H2  O   H1  H2  O   H1  H2  O   H1  H2  O   H1  H2  O   
H1  H2  O   H1  H2  O   H1  H2  O   H1  H2  O   H1  H2  O   H1  H2  O   H1  H2  
O   H1  H2  O   H1  H2  O   H1  H2  O   H1  H2  O   H1  H2  O   H1  H2  O   H1  
H2  O   H1  H2  O   H1  H2  O   H1  H2  O   H1  H2  O   H1  H2  O   H1  H2  O   
H1  H2  O   H1  H2  O   H1  H2  O   H1  H2  O   H1  H2  O   H1  H2  O   H1  H2  
O   H1  H2  O   H1  H2  O   H1  H2  O   H1  H2  O   H1  H2  O   H1  H2  O   H1  
H2  O   H1  H2  O   H1  H2  O   H1  H2  O   H1  H2  O   H1  H2  O   H1  H2  O   
H1  H2  O   H1  H2  O   H1  H2  O   H1  H2  O   H1  H2  O   H1  H2  O   H1  H2  
O   H1  H2  O   H1  H2  O   H1  H2  O   H1  H2  O   H1  H2  O   H1  H2  O   H1  
H2  O   H1  H2  O   H1  H2  O   H1  H2  O   H1  H2  O   H1  H2  O   H1  H2  O   
H1  H2  O   H1  H2  O   H1  H2  O   H1  H2  O   H1  H2  O   H1  H2  O   H1  H2  
O   H1  H2  O   H1  H2  O   H1  H2  O   H1  H2  O   H1  H2  O   H1  H2  O   H1  
H2  O   H1  H2  O   H1  H2  O   H1  H2  O   H1  H2  O   H1  H2  O   H1  H2  O   
H1  H2  O   H1  H2  O   H1  H2  O   H1  H2  O   H1  H2  O   H1  H2  O   H1  H2  
O   H1  H2  O   H1  H2  O   H1  H2  O   H1  H2  O   H1  H2  O   H1  H2  O   H1  
H2  O   H1  H2  O   H1  H2  O   H1  H2  O   H1  H2  O   H1  H2  O   H1  H2  O   
H1  H2  O   H1  H2  O   H1  H2  O   H1  H2  O   H1  H2  O   H1  H2  O   H1  H2  
O   H1  H2  O   H1  H2  O   H1  H2  O   H1  H2  O   H1  H2  O   H1  H2  O   H1  
H2  O   H1  H2  O   H1  H2  O   H1  H2  O   H1  H2  O   H1  H2  O   H1  H2  O   
H1  H2  O   H1  H2  O   H1  H2  O   H1  H2  O   H1  H2  O   H1  H2  O   H1  H2  
O   H1  H2  O   H1  H2  O   H1  H2  O   H1  H2  O   H1  H2  O   H1  H2  O   H1  
H2  O   H1  H2  O   H1  H2  O   H1  H2  O   H1  H2  O   H1  H2  O   H1  H2  O   
H1  H2  O   H1  H2  O   H1  H2  O   H1  H2  O   H1  H2  O   H1  H2  O   H1  H2  
O   H1  H2  O   H1  H2  O   H1  H2  O   H1  H2  O   H1  H2  O   H1  H2  O   H1  
H2  O   H1  H2  O   H1  H2  O   H1  H2  O   H1  H2  O   H1  H2  O   H1  H2  O   
H1  H2  O   H1  H2  O   H1  H2  O   H1  H2  O   H1  H2  O   H1  H2  O   H1  H2  
O   H1  H2  O   H1  H2  O   H1  H2  O   H1  H2  O   H1  H2  O   H1  H2  O   H1  
H2  O   H1  H2  O   H1  H2  O   H1  H2  O   H1  H2  O   H1  H2  O   H1  H2  O   
H1  H2  O   H1  H2  O   H1  H2  O   H1  H2  O   H1  H2  O   H1  H2  O   H1  H2  
O   H1  H2  O   H1  H2  O   H1  H2  O   H1  H2  O   H1  H2  O   H1  H2  O   H1  
H2  O   H1  H2  O   H1  H2  O   H1  H2  O   H1  H2  O   H1  H2  O   H1  H2  O   
H1  H2  O   H1  H2  O   H1  H2  O   H1  H2  O   H1  H2  O   H1  H2  O   H1  H2  
O   H1  H2  O   H1  H2  O   H1  H2  O   H1  H2  O   H1  H2  O   H1  H2  O   H1  
H2  O   H1  H2  O   H1  H2  O   H1  H2  O   H1  H2  O   H1  H2  O   H1  H2  O   
H1  H2  O   H1  H2  O   H1  H2  O   H1  H2  O   H1  H2  O   H1  H2  O   H1  H2  
O   H1  H2  O   H1  H2  O   H1  H2  O   H1  H2  O   H1  H2  O   H1  H2  O   H1  
H2  O   H1  H2  O   H1  H2  O   H1  H2  O   H1  H2  O   H1  H2  O   H1  H2  O   
H1  H2  O   H1  H2  O   H1  H2  O   H1  H2  O   H1  H2  O   H1  H2  O   H1  H2  
O   H1  H2  O   H1  H2  O   H1  H2  O   H1  H2  O   H1  H2  O   H1  H2  O   H1  
H2  O   H1  H2  O   H1  H2  O   H1  H2  O   H1  H2  O   H1  H2  O   H1  H2  O   
H1  H2  O   H1  H2  O   H1  H2  O   H1  H2  O   H1  H2  O   H1  H2  O   H1  H2  
O   H1  H2  O   H1  H2  O   H1  H2  O   H1  H2  O   H1  H2  O   H1  H2  O   H1  
H2  O   H1  H2  O   H1  H2  O   H1  H2  O   H1  H2  O   H1  H2  O   H1  H2  O   
H1  H2  O   H1  H2  O   H1  H2  O   H1  H2  O   H1  H2  O   H1  H2  O   H1  H2  
O   H1  H2  O   H1  H2  O   H1  H2  O   H1  H2  O   H1  H2  O   H1  H2  O   H1  
H2  O   H1  H2  O   H1  H2  O   H1  H2  O   H1  H2  O   H1  H2  O   H1  H2  O   
H1  H2  O   H1  H2  O   H1  H2  O   H1  H2  O   H1  H2  O   H1  H2  O   H1  H2  
O   H1  H2  O   H1  H2  O   H1  H2  O   H1  H2  O   H1  H2  O   H1  H2  O   H1  
H2  O   H1  H2  O   H1  H2  O   H1  H2  O   H1  H2  O   H1  H2  O   H1  H2  O   
H1  H2  O   H1  H2  O   H1  H2  O   H1  H2  O   H1  H2  O   H1  H2  O   H1  H2  
O   H1  H2  O   H1  H2  O   H1  H2  O   H1  H2  O   H1  H2  O   H1  H2  O   H1  
H2  O   H1  H2  O   H1  H2  O   H1  H2  O   H1  H2  O   H1  H2  O   H1  H2  O   
H1  H2  O   H1  H2  O   H1  H2  O   H1  H2  O   H1  H2  O   H1  H2  O   H1  H2  
O   H1  H2  O   H1  H2  O   H1  H2  O   H1  H2  O   H1  H2  O   H1  H2  O   H1  
H2  O   H1  H2  O   H1  H2  O   H1  H2  O   H1  H2  O   H1  H2  O   H1  H2  O   
H1  H2  O   H1  H2  O   H1  H2  O   H1  H2  O   H1  H2  O   H1  H2  O   H1  H2  
O   H1  H2  O   H1  H2  O   H1  H2  O   H1  H2  O   H1  H2  O   H1  H2  O   H1  
H2  O   H1  H2  O   H1  H2  O   H1  H2  O   H1  H2  O   H1  H2  O   H1  H2  O   
H1  H2  O   H1  H2  O   H1  H2  O   H1  H2  O   H1  H2  O   H1  H2  O   H1  H2  
O   H1  H2  O   H1  H2  O   H1  H2  O   H1  H2  O   H1  H2  O   H1  H2  O   H1  
H2  O   H1  H2  O   H1  H2  O   H1  H2  O   H1  H2  O   H1  H2  O   H1  H2  O   
H1  H2  O   H1  H2  O   H1  H2  O   H1  H2  O   H1  H2  O   H1  H2  O   H1  H2  
O   H1  H2  O   H1  H2  O   H1  H2  O   H1  H2  O   H1  H2  O   H1  H2  O   H1  
H2  O   H1  H2  O   H1  H2  O   H1  H2  O   H1  H2  O   H1  H2  O   H1  H2  O   
H1  H2  O   H1  H2  O   H1  H2  O   H1  H2  O   H1  H2  O   H1  H2  O   H1  H2  
O   H1  H2  O   H1  H2  O   H1  H2  O   H1  H2  O   H1  H2  O   H1  H2  O   H1  
H2  O   H1  H2  O   H1  H2  O   H1  H2  O   H1  H2  O   H1  H2  O   H1  H2  O   
H1  H2  O   H1  H2  O   H1  H2  O   H1  H2  O   H1  H2  O   H1  H2  O   H1  H2  
O   H1  H2  O   H1  H2  O   H1  H2  O   H1  H2  O   H1  H2  O   H1  H2  O   H1  
H2  O   H1  H2  O   H1  H2  O   H1  H2  O   H1  H2  O   H1  H2  O   H1  H2  O   
H1  H2  O   H1  H2  O   H1  H2  O   H1  H2  O   H1  H2  O   H1  H2  O   H1  H2  
O   H1  H2  O   H1  H2  O   H1  H2  O   H1  H2  O   H1  H2  O   H1  H2  O   H1  
H2  O   H1  H2  O   H1  H2  O   H1  H2  O   H1  H2  O   H1  H2  O   H1  H2  O   
H1  H2  O   H1  H2  O   H1  H2  O   H1  H2  O   H1  H2  O   H1  H2  O   H1  H2  
O   H1  H2  O   H1  H2  O   H1  H2  O   H1  H2  O   H1  H2  O   H1  H2  O   H1  
H2  O   H1  H2  O   H1  H2  O   H1  H2  O   H1  H2  O   H1  H2  O   H1  H2  O   
H1  H2  O   H1  H2  O   H1  H2  O   H1  H2  O   H1  H2  O   H1  H2  O   H1  H2  
O   H1  H2  O   H1  H2  O   H1  H2  O   H1  H2  O   H1  H2  O   H1  H2  O   H1  
H2  O   H1  H2  O   H1  H2  O   H1  H2  O   H1  H2  O   H1  H2  O   H1  H2  O   
H1  H2  O   H1  H2  O   H1  H2  O   H1  H2  O   H1  H2  O   H1  H2  O   H1  H2  
O   H1  H2  O   H1  H2  O   H1  H2  O   H1  H2  O   H1  H2  O   H1  H2  O   H1  
H2  O   H1  H2  O   H1  H2  O   H1  H2  O   H1  H2  O   H1  H2  O   H1  H2  O   
H1  H2  O   H1  H2  O   H1  H2  O   H1  H2  O   H1  H2  O   H1  H2  O   H1  H2  
O   H1  H2  O   H1  H2  O   H1  H2  O   H1  H2  O   H1  H2  O   H1  H2  O   H1  
H2  O   H1  H2  O   H1  H2  O   H1  H2  O   H1  H2  O   H1  H2  O   H1  H2  O   
H1  H2  O   H1  H2  O   H1  H2  O   H1  H2  O   H1  H2  O   H1  H2  O   H1  H2  
O   H1  H2  O   H1  H2  O   H1  H2  O   H1  H2  O   H1  H2  O   H1  H2  O   H1  
H2  O   H1  H2  O   H1  H2  O   H1  H2  O   H1  H2  O   H1  H2  O   H1  H2  O   
H1  H2  O   H1  H2  O   H1  H2  O   H1  H2  O   H1  H2  O   H1  H2  O   H1  H2  
O   H1  H2  O   H1  H2  O   H1  H2  O   H1  H2  O   H1  H2  O   H1  H2  O   H1  
H2  O   H1  H2  O   H1  H2  O   H1  H2  O   H1  H2  O   H1  H2  O   H1  H2  O   
H1  H2  O   H1  H2  O   H1  H2  O   H1  H2  O   H1  H2  O   H1  H2  O   H1  H2  
O   H1  H2  O   H1  H2  O   H1  H2  O   H1  H2  O   H1  H2  O   H1  H2  O   H1  
H2  O   H1  H2  O   H1  H2  O   H1  H2  O   H1  H2  O   H1  H2  O   H1  H2  O   
H1  H2  O   H1  H2  O   H1  H2  O   H1  H2  O   H1  H2  O   H1  H2  O   H1  H2  
O   H1  H2  O   H1  H2  O   H1  H2  O   H1  H2  O   H1  H2  O   H1  H2  O   H1  
H2  O   H1  H2  O   H1  H2  O   H1  H2  O   H1  H2  O   H1  H2  O   H1  H2  O   
H1  H2  O   H1  H2  O   H1  H2  O   H1  H2  O   H1  H2  O   H1  H2  O   H1  H2  
O   H1  H2  O   H1  H2  O   H1  H2  O   H1  H2  O   H1  H2  O   H1  H2  O   H1  
H2  O   H1  H2  O   H1  H2  O   H1  H2  O   H1  H2  O   H1  H2  O   H1  H2  O   
H1  H2  O   H1  H2  O   H1  H2  O   H1  H2  O   H1  H2  O   H1  H2  O   H1  H2  
O   H1  H2  O   H1  H2  O   H1  H2  O   H1  H2  O   H1  H2  O   H1  H2  O   H1  
H2  O   H1  H2  O   H1  H2  O   H1  H2  O   H1  H2  O   H1  H2  O   H1  H2  O   
H1  H2  O   H1  H2  O   H1  H2  O   H1  H2  O   H1  H2  O   H1  H2  O   H1  H2  
O   H1  H2  O   H1  H2  O   H1  H2  O   H1  H2  O   H1  H2  O   H1  H2  O   H1  
H2  O   H1  H2  O   H1  H2  O   H1  H2  O   H1  H2  O   H1  H2  O   H1  H2  O   
H1  H2  O   H1  H2  O   H1  H2  O   H1  H2  O   H1  H2  O   H1  H2  O   H1  H2  
O   H1  H2  O   H1  H2  O   H1  H2  O   H1  H2  O   H1  H2  O   H1  H2  O   H1  
H2  O   H1  H2  O   H1  H2  O   H1  H2  O   H1  H2  O   H1  H2  O   H1  H2  O   
H1  H2  O   H1  H2  O   H1  H2  O   H1  H2  O   H1  H2  O   H1  H2  O   H1  H2  
O   H1  H2  O   H1  H2  O   H1  H2  O   H1  H2  O   H1  H2  O   H1  H2  O   H1  
H2  O   H1  H2  O   H1  H2  O   H1  H2  O   H1  H2  O   H1  H2  O   H1  H2  O   
H1  H2  O   H1  H2  O   H1  H2  O   H1  H2  O   H1  H2  O   H1  H2  O   H1  H2  
O   H1  H2  O   H1  H2  O   H1  H2  O   H1  H2  O   H1  H2  O   H1  H2  O   H1  
H2  O   H1  H2  O   H1  H2  O   H1  H2  O   H1  H2  O   H1  H2  O   H1  H2  O   
H1  H2  O   H1  H2  O   H1  H2  O   H1  H2  O   H1  H2  O   H1  H2  O   H1  H2  
O   H1  H2  O   H1  H2  O   H1  H2  O   H1  H2  O   H1  H2  O   H1  H2  O   H1  
H2  O   H1  H2  O   H1  H2  O   H1  H2  O   H1  H2  O   H1  H2  O   H1  H2  O   
H1  H2  O   H1  H2  O   H1  H2  O   H1  H2  O   H1  H2  O   H1  H2  O   H1  H2  
O   H1  H2  O   H1  H2  O   H1  H2  O   H1  H2  O   H1  H2  O   H1  H2  O   H1  
H2  O   H1  H2  O   H1  H2  O   H1  H2  O   H1  H2  O   H1  H2  O   H1  H2  O   
H1  H2  O   H1  H2  O   H1  H2  O   H1  H2  O   H1  H2  O   H1  H2  O   H1  H2  
O   H1  H2  O   H1  H2  O   H1  H2  O   H1  H2  O   H1  H2  O   H1  H2  O   H1  
H2  O   H1  H2  O   H1  H2  O   H1  H2  O   H1  H2  O   H1  H2  O   H1  H2  O   
H1  H2  O   H1  H2  O   H1  H2  O   H1  H2  O   H1  H2  O   H1  H2  O   H1  H2  
O   H1  H2  O   H1  H2  O   H1  H2  O   H1  H2  O   H1  H2  O   H1  H2  O   H1  
H2  O   H1  H2  O   H1  H2  O   H1  H2  O   H1  H2  O   H1  H2  O   H1  H2  O   
H1  H2  O   H1  H2  O   H1  H2  O   H1  H2  O   H1  H2  O   H1  H2  O   H1  H2  
O   H1  H2  O   H1  H2  O   H1  H2  O   H1  H2  O   H1  H2  O   H1  H2  O   H1  
H2  O   H1  H2  O   H1  H2  O   H1  H2  O   H1  H2  O   H1  H2  O   H1  H2  O   
H1  H2  O   H1  H2  O   H1  H2  O   H1  H2  O   H1  H2  O   H1  H2  O   H1  H2  
O   H1  H2  O   H1  H2  O   H1  H2  O   H1  H2  O   H1  H2  O   H1  H2  O   H1  
H2  O   H1  H2  O   H1  H2  O   H1  H2  O   H1  H2  O   H1  H2  O   H1  H2  O   
H1  H2  O   H1  H2  O   H1  H2  O   H1  H2  O   H1  H2  O   H1  H2  O   H1  H2  
O   H1  H2  O   H1  H2  O   H1  H2  O   H1  H2  O   H1  H2  O   H1  H2  O   H1  
H2  O   H1  H2  O   H1  H2  O   H1  H2  O   H1  H2  O   H1  H2  O   H1  H2  O   
H1  H2  O   H1  H2  O   H1  H2  O   H1  H2  O   H1  H2  O   H1  H2  O   H1  H2  
O   H1  H2  O   H1  H2  O   H1  H2  O   H1  H2  O   H1  H2  O   H1  H2  O   H1  
H2  O   H1  H2  O   H1  H2  O   H1  H2  O   H1  H2  O   H1  H2  O   H1  H2  O   
H1  H2  O   H1  H2  O   H1  H2  O   H1  H2  O   H1  H2  O   H1  H2  O   H1  H2  
O   H1  H2  O   H1  H2  O   H1  H2  O   H1  H2  O   H1  H2  O   H1  H2  O   H1  
H2  O   H1  H2  O   H1  H2  O   H1  H2  O   H1  H2  O   H1  H2  O   H1  H2  O   
H1  H2  O   H1  H2  O   H1  H2  O   H1  H2  O   H1  H2  O   H1  H2  O   H1  H2  
O   H1  H2  O   H1  H2  O   H1  H2  O   H1  H2  O   H1  H2  O   H1  H2  O   H1  
H2  O   H1  H2  O   H1  H2  O   H1  H2  O   H1  H2  O   H1  H2  O   H1  H2  O   
H1  H2  O   H1  H2  O   H1  H2  O   H1  H2  O   H1  H2  O   H1  H2  O   H1  H2  
O   H1  H2  O   H1  H2  O   H1  H2  O   H1  H2  O   H1  H2  O   H1  H2  O   H1  
H2  O   H1  H2  O   H1  H2  O   H1  H2  O   H1  H2  O   H1  H2  O   H1  H2  O   
H1  H2  O   H1  H2  O   H1  H2  O   H1  H2  O   H1  H2  O   H1  H2  O   H1  H2  
O   H1  H2  O   H1  H2  O   H1  H2  O   H1  H2  O   H1  H2  O   H1  H2  O   H1  
H2  O   H1  H2  O   H1  H2  O   H1  H2  O   H1  H2  O   H1  H2  O   H1  H2  O   
H1  H2  O   H1  H2  O   H1  H2  O   H1  H2  O   H1  H2  O   H1  H2  O   H1  H2  
O   H1  H2  O   H1  H2  O   H1  H2  O   H1  H2  O   H1  H2  O   H1  H2  O   H1  
H2  O   H1  H2  O   H1  H2  O   H1  H2  O   H1  H2  O   H1  H2  O   H1  H2  O   
H1  H2  O   H1  H2  O   H1  H2  O   H1  H2  O   H1  H2  O   H1  H2  O   H1  H2  
O   H1  H2  O   H1  H2  O   H1  H2  O   H1  H2  O   H1  H2  O   H1  H2  O   H1  
H2  O   H1  H2  O   H1  H2  O   H1  H2  O   H1  H2  O   H1  H2  O   H1  H2  O   
H1  H2  O   H1  H2  O   H1  H2  O   H1  H2  O   H1  H2  O   H1  H2  O   H1  H2  
O   H1  H2  O   H1  H2  O   H1  H2  O   H1  H2  O   H1  H2  O   H1  H2  O   H1  
H2  O   H1  H2  O   H1  H2  O   H1  H2  O   H1  H2  O   H1  H2  O   H1  H2  O   
H1  H2  O   H1  H2  O   H1  H2  O   H1  H2  O   H1  H2  O   H1  H2  O   H1  H2  
O   H1  H2  O   H1  H2  O   H1  H2  O   H1  H2  O   H1  H2  O   H1  H2  O   H1  
H2  O   H1  H2  O   H1  H2  O   H1  H2  O   H1  H2  O   H1  H2  O   H1  H2  O   
H1  H2  O   H1  H2  O   H1  H2  O   H1  H2  O   H1  H2  O   H1  H2  O   H1  H2  
O   H1  H2  O   H1  H2  O   H1  H2  O   H1  H2  O   H1  H2  O   H1  H2  O   H1  
H2  O   H1  H2  O   H1  H2  O   H1  H2  O   H1  H2  O   H1  H2  O   H1  H2  O   
H1  H2  O   H1  H2  O   H1  H2  O   H1  H2  O   H1  H2  O   H1  H2  O   H1  H2  
O   H1  H2  O   H1  H2  O   H1  H2  O   H1  H2  O   H1  H2  O   H1  H2  O   H1  
H2  O   H1  H2  O   H1  H2  O   H1  H2  O   H1  H2  O   H1  H2  O   H1  H2  O   
H1  H2  O   H1  H2  O   H1  H2  O   H1  H2  O   H1  H2  O   H1  H2  O   H1  H2  
O   H1  H2  O   H1  H2  O   H1  H2  O   H1  H2  O   H1  H2  O   H1  H2  O   H1  
H2  O   H1  H2  O   H1  H2  O   H1  H2  O   H1  H2  O   H1  H2  O   H1  H2  O   
H1  H2  O   H1  H2  O   H1  H2  O   H1  H2  O   H1  H2  O   H1  H2  O   H1  H2  
O   H1  H2  O   H1  H2  O   H1  H2  O   H1  H2  O   H1  H2  O   H1  H2  O   H1  
H2  O   H1  H2  O   H1  H2  O   H1  H2  O   H1  H2  O   H1  H2  O   H1  H2  O   
H1  H2  O   H1  H2  O   H1  H2  O   H1  H2  O   H1  H2  O   H1  H2  O   H1  H2  
O   H1  H2  O   H1  H2  O   H1  H2  O   H1  H2  O   H1  H2  O   H1  H2  O   H1  
H2  O   H1  H2  O   H1  H2  O   H1  H2  O   H1  H2  O   H1  H2  O   H1  H2  O   
H1  H2  O   H1  H2  O   H1  H2  O   H1  H2  O   H1  H2  O   H1  H2  O   H1  H2  
O   H1  H2  O   H1  H2  O   H1  H2  O   H1  H2  O   H1  H2  O   H1  H2  O   H1  
H2  O   H1  H2  O   H1  H2  O   H1  H2  O   H1  H2  O   H1  H2  O   H1  H2  O   
H1  H2  O   H1  H2  O   H1  H2  O   H1  H2  O   H1  H2  O   H1  H2  O   H1  H2  
O   H1  H2  O   H1  H2  O   H1  H2  O   H1  H2  O   H1  H2  O   H1  H2  O   H1  
H2  O   H1  H2  O   H1  H2  O   H1  H2  O   H1  H2  O   H1  H2  O   H1  H2  O   
H1  H2  O   H1  H2  O   H1  H2  O   H1  H2  O   H1  H2  O   H1  H2  O   H1  H2  
O   H1  H2  O   H1  H2  O   H1  H2  O   H1  H2  O   H1  H2  O   H1  H2  O   H1  
H2  O   H1  H2  O   H1  H2  O   H1  H2  O   H1  H2  O   H1  H2  O   H1  H2  O   
H1  H2  O   H1  H2  O   H1  H2  O   H1  H2  O   H1  H2  O   H1  H2  O   H1  H2  
O   H1  H2  O   H1  H2  O   H1  H2  O   H1  H2  O   H1  H2  O   H1  H2  O   H1  
H2  O   H1  H2  O   H1  H2  O   H1  H2  O   H1  H2  O   H1  H2  O   H1  H2  O   
H1  H2  O   H1  H2  O   H1  H2  O   H1  H2  O   H1  H2  O   H1  H2  O   H1  H2  
O   H1  H2  O   H1  H2  O   H1  H2  O   H1  H2  O   H1  H2  O   H1  H2  O   H1  
H2  O   H1  H2  O   H1  H2  O   H1  H2  O   H1  H2  O   H1  H2  O   H1  H2  O   
H1  H2  O   H1  H2  O   H1  H2  O   H1  H2  O   H1  H2  O   H1  H2  O   H1  H2  
O   H1  H2  O   H1  H2  O   H1  H2  O   H1  H2  O   H1  H2  O   H1  H2  O   H1  
H2  O   H1  H2  O   H1  H2  O   H1  H2  O   H1  H2  O   H1  H2  O   H1  H2  O   
H1  H2  O   H1  H2  O   H1  H2  O   H1  H2  O   H1  H2  O   H1  H2  O   H1  H2  
O   H1  H2  O   H1  H2  O   H1  H2  O   H1  H2  O   H1  H2  O   H1  H2  O   H1  
H2  O   H1  H2  O   H1  H2  O   H1  H2  O   H1  H2  O   H1  H2  O   H1  H2  O   
H1  H2  O   H1  H2  O   H1  H2  O   H1  H2  O   H1  H2  O   H1  H2  O   H1  H2  
O   H1  H2  O   H1  H2  O   H1  H2  O   H1  H2  O   H1  H2  O   H1  H2  O   H1  
H2  O   H1  H2  O   H1  H2  O   H1  H2  O   H1  H2  O   H1  H2  O   H1  H2  O   
H1  H2  O   H1  H2  O   H1  H2  O   H1  H2  O   H1  H2  O   H1  H2  O   H1  H2  
O   H1  H2  O   H1  H2  O   H1  H2  O   H1  H2  O   H1  H2  O   H1  H2  O   H1  
H2  O   H1  H2  O   H1  H2  O   H1  H2  O   H1  H2  O   H1  H2  O   H1  H2  O   
H1  H2  O   H1  H2  O   H1  H2  O   H1  H2  O   H1  H2  O   H1  H2  O   H1  H2  
O   H1  H2  O   H1  H2  O   H1  H2  O   H1  H2  O   H1  H2  O   H1  H2  O   H1  
H2  O   H1  H2  O   H1  H2  O   H1  H2  O   H1  H2  O   H1  H2  O   H1  H2  O   
H1  H2  O   H1  H2  O   H1  H2  O   H1  H2  O   H1  H2  O   H1  H2  O   H1  H2  
O   H1  H2  O   H1  H2  O   H1  H2  O   H1  H2  O   H1  H2  O   H1  H2  O   H1  
H2  O   H1  H2  O   H1  H2  O   H1  H2  O   H1  H2  O   H1  H2  O   H1  H2  O   
H1  H2  O   H1  H2  O   H1  H2  O   H1  H2  O   H1  H2  O   H1  H2  O   H1  H2  
O   H1  H2  O   H1  H2  O   H1  H2  O   H1  H2  O   H1  H2  O   H1  H2  O   H1  
H2  O   H1  H2  O   H1  H2  O   H1  H2  O   H1  H2  O   H1  H2  O   H1  H2  O   
H1  H2  O   H1  H2  O   H1  H2  O   H1  H2  O   H1  H2  O   H1  H2  O   H1  H2  
O   H1  H2  O   H1  H2  O   H1  H2  O   H1  H2  O   H1  H2  O   H1  H2  O   H1  
H2  O   H1  H2  O   H1  H2  O   H1  H2  O   H1  H2  O   H1  H2  O   H1  H2  O   
H1  H2  O   H1  H2  O   H1  H2  O   H1  H2  O   H1  H2  O   H1  H2  O   H1  H2  
O   H1  H2  O   H1  H2  O   H1  H2  O   H1  H2  O   H1  H2  O   H1  H2  O   H1  
H2  O   H1  H2  O   H1  H2  O   H1  H2  O   H1  H2  O   H1  H2  O   H1  H2  O   
H1  H2  O   H1  H2  O   H1  H2  O   H1  H2  O   H1  H2  O   H1  H2  O   H1  H2  
O   H1  H2  O   H1  H2  O   H1  H2  O   H1  H2  O   H1  H2  O   H1  H2  O   H1  
H2  O   H1  H2  O   H1  H2  O   H1  H2  O   H1  H2  O   H1  H2  O   H1  H2  O   
H1  H2  O   H1  H2  O   H1  H2  O   H1  H2  O   H1  H2  O   H1  H2  O   H1  H2  
O   H1  H2  O   H1  H2  O   H1  H2  O   H1  H2  O   H1  H2  O   H1  H2  O   H1  
H2  O   H1  H2  O   H1  H2  O   H1  H2  O   H1  H2  O   H1  H2  O   H1  H2  O   
H1  H2  O   H1  H2  O   H1  H2  O   H1  H2  O   H1  H2  O   H1  H2  O   H1  H2  
O   H1  H2  O   H1  H2  O   H1  H2  O   H1  H2  O   H1  H2  O   H1  H2  O   H1  
H2  O   H1  H2  O   H1  H2  O   H1  H2  O   H1  H2  O   H1  H2  O   H1  H2  O   
H1  H2  O   H1  H2  O   H1  H2  O   H1  H2  O   H1  H2  O   H1  H2  O   H1  H2  
O   H1  H2  O   H1  H2  O   H1  H2  O   H1  H2  O   H1  H2  O   H1  H2  O   H1  
H2  O   H1  H2  O   H1  H2  O   H1  H2  O   H1  H2  O   H1  H2  O   H1  H2  O   
H1  H2  O   H1  H2  O   H1  H2  O   H1  H2  O   H1  H2  O   H1  H2  O   H1  H2  
O   H1  H2  O   H1  H2  O   H1  H2  O   H1  H2  O   H1  H2  O   H1  H2  O   H1  
H2  O   H1  H2  O   H1  H2  O   H1  H2  O   H1  H2  O   H1  H2  O   H1  H2  O   
H1  H2  O   H1  H2  O   H1  H2  O   H1  H2  O   H1  H2  O   H1  H2  O   H1  H2  
O   H1  H2  O   H1  H2  O   H1  H2  O   H1  H2  O   H1  H2  O   H1  H2  O   H1  
H2  O   H1  H2  O   H1  H2  O   H1  H2  O   H1  H2  O   H1  H2  O   H1  H2  O   
H1  H2  O   H1  H2  O   H1  H2  O   H1  H2  O   H1  H2  O   H1  H2  O   H1  H2  
O   H1  H2  O   H1  H2  O   H1  H2  O   H1  H2  O   H1  H2  O   H1  H2  O   H1  
H2  O   H1  H2  O   H1  H2  O   H1  H2  O   H1  H2  O   H1  H2  O   H1  H2  O   
H1  H2  O   H1  H2  O   H1  H2  O   H1  H2  O   H1  H2  O   H1  H2  O   H1  H2  
O   H1  H2  O   H1  H2  O   H1  H2  O   H1  H2  O   H1  H2  O   H1  H2  O   H1  
H2  O   H1  H2  O   H1  H2  O   H1  H2  O   H1  H2  O   H1  H2  O   H1  H2  O   
H1  H2  O   H1  H2  O   H1  H2  O   H1  H2  O   H1  H2  O   H1  H2  O   H1  H2  
O   H1  H2  O   H1  H2  O   H1  H2  O   H1  H2  O   H1  H2  O   H1  H2  O   H1  
H2  O   H1  H2  O   H1  H2  O   H1  H2  O   H1  H2  O   H1  H2  O   H1  H2  O   
H1  H2  O   H1  H2  O   H1  H2  O   H1  H2  O   H1  H2  O   H1  H2  O   H1  H2  
O   H1  H2  O   H1  H2  O   H1  H2  O   H1  H2  O   H1  H2  O   H1  H2  O   H1  
H2  O   H1  H2  O   H1  H2  O   H1  H2  O   H1  H2  O   H1  H2  O   H1  H2  O   
H1  H2  O   H1  H2  O   H1  H2  O   H1  H2  O   H1  H2  O   H1  H2  O   H1  H2  
O   H1  H2  O   H1  H2  O   H1  H2  O   H1  H2  O   H1  H2  O   H1  H2  O   H1  
H2  O   H1  H2  O   H1  H2  O   H1  H2  O   H1  H2  O   H1  H2  O   H1  H2  O   
H1  H2  O   H1  H2  O   H1  H2  O   H1  H2  O   H1  H2  O   H1  H2  O   H1  H2  
O   H1  H2  O   H1  H2  O   H1  H2  O   H1  H2  O   H1  H2  O   H1  H2  O   H1  
H2  O   H1  H2  O   H1  H2  O   H1  H2  O   H1  H2  O   H1  H2  O   H1  H2  O   
H1  H2  O   H1  H2  O   H1  H2  O   H1  H2  O   H1  H2  O   H1  H2  O   H1  H2  
O   H1  H2  O   H1  H2  O   H1  H2  O   H1  H2  O   H1  H2  O   H1  H2  O   H1  
H2  O   H1  H2  O   H1  H2  O   H1  H2  O   H1  H2  O   H1  H2  O   H1  H2  O   
H1  H2  O   H1  H2  O   H1  H2  O   H1  H2  O   H1  H2  O   H1  H2  O   H1  H2  
O   H1  H2  O   H1  H2  O   H1  H2  O   H1  H2  O   H1  H2  O   H1  H2  O   H1  
H2  O   H1  H2  O   H1  H2  O   H1  H2  O   H1  H2  O   H1  H2  O   H1  H2  O   
H1  H2  O   H1  H2  O   H1  H2  O   H1  H2  O   H1  H2  O   H1  H2  O   H1  H2  
O   H1  H2  O   H1  H2  O   H1  H2  O   H1  H2  O   H1  H2  O   H1  H2  O   H1  
H2  O   H1  H2  O   H1  H2  O   H1  H2  O   H1  H2  O   H1  H2  O   H1  H2  O   
H1  H2  O   H1  H2  O   H1  H2  O   H1  H2  O   H1  H2  O   H1  H2  O   H1  H2  
O   H1  H2  O   H1  H2  O   H1  H2  O   H1  H2  O   H1  H2  O   H1  H2  O   H1  
H2  O   H1  H2  O   H1  H2  O   H1  H2  O   H1  H2  O   H1  H2  O   H1  H2  O   
H1  H2  O   H1  H2  O   H1  H2  O   H1  H2  O   H1  H2  O   H1  H2  O   H1  H2  
O   H1  H2  O   H1  H2  O   H1  H2  O   H1  H2  O   H1  H2  O   H1  H2  O   H1  
H2  O   H1  H2  O   H1  H2  O   H1  H2  O   H1  H2  O   H1  H2  O   H1  H2  O   
H1  H2  O   H1  H2  O   H1  H2  O   H1  H2  O   H1  H2  O   H1  H2  O   H1  H2  
O   H1  H2  O   H1  H2  O   H1  H2  O   H1  H2  O   H1  H2  O   H1  H2  O   H1  
H2  O   H1  H2  O   H1  H2  O   H1  H2  O   H1  H2  O   H1  H2  O   H1  H2  O   
H1  H2  O   H1  H2  O   H1  H2  O   H1  H2  O   H1  H2  O   H1  H2  O   H1  H2  
O   H1  H2  O   H1  H2  O   H1  H2  O   H1  H2  O   H1  H2  O   H1  H2  O   H1  
H2  O   H1  H2  O   H1  H2  O   H1  H2  O   H1  H2  O   H1  H2  O   H1  H2  O   
H1  H2  O   H1  H2  O   H1  H2  O   H1  H2  O   H1  H2  O   H1  H2  O   H1  H2  
O   H1  H2  O   H1  H2  O   H1  H2  O   H1  H2  O   H1  H2  O   H1  H2  O   H1  
H2  O   H1  H2  O   H1  H2  O   H1  H2  O   H1  H2  O   H1  H2  O   H1  H2  O   
H1  H2  O   H1  H2  O   H1  H2  O   H1  H2  O   H1  H2  O   H1  H2  O   H1  H2  
O   H1  H2  O   H1  H2  O   H1  H2  O   H1  H2  O   H1  H2  O   H1  H2  O   H1  
H2  O   H1  H2  O   H1  H2  O   H1  H2  O   H1  H2  O   H1  H2  O   H1  H2  O   
H1  H2  O   H1  H2  O   H1  H2  O   H1  H2  O   H1  H2  O   H1  H2  O   H1  H2  
O   H1  H2  O   H1  H2  O   H1  H2  O   H1  H2  O   H1  H2  O   H1  H2  O   H1  
H2  O   H1  H2  O   H1  H2  O   H1  H2  O   H1  H2  O   H1  H2  O   H1  H2  O   
H1  H2  O   H1  H2  O   H1  H2  O   H1  H2  O   H1  H2  O   H1  H2  O   H1  H2  
O   H1  H2  O   H1  H2  O   H1  H2  O   H1  H2  O   H1  H2  O   H1  H2  O   H1  
H2  O   H1  H2  O   H1  H2  O   H1  H2  O   H1  H2  O   H1  H2  O   H1  H2  O   
H1  H2  O   H1  H2  O   H1  H2  O   H1  H2  O   H1  H2  O   H1  H2  O   H1  H2  
O   H1  H2  O   H1  H2  O   H1  H2  O   H1  H2  O   H1  H2  O   H1  H2  O   H1  
H2  O   H1  H2  O   H1  H2  O   H1  H2  O   H1  H2  O   H1  H2  O   H1  H2  O   
H1  H2  O   H1  H2  O   H1  H2  O   H1  H2  O   H1  H2  O   H1  H2  O   H1  H2  
O   H1  H2  O   H1  H2  O   H1  H2  O   H1  H2  O   H1  H2  O   H1  H2  O   H1  
H2  O   H1  H2  O   H1  H2  O   H1  H2  O   H1  H2  O   H1  H2  O   H1  H2  O   
H1  H2  O   H1  H2  O   H1  H2  O   H1  H2  O   H1  H2  O   H1  H2  O   H1  H2  
O   H1  H2  O   H1  H2  O   H1  H2  O   H1  H2  O   H1  H2  O   H1  H2  O   H1  
H2  O   H1  H2  O   H1  H2  O   H1  H2  O   H1  H2  O   H1  H2  O   H1  H2  O   
H1  H2  O   H1  H2  O   H1  H2  O   H1  H2  O   H1  H2  O   H1  H2  O   H1  H2  
O   H1  H2  O   H1  H2  O   H1  H2  O   H1  H2  O   H1  H2  O   H1  H2  O   H1  
H2  O   H1  H2  O   H1  H2  O   H1  H2  O   H1  H2  O   H1  H2  O   H1  H2  O   
H1  H2  O   H1  H2  O   H1  H2  O   H1  H2  O   H1  H2  O   H1  H2  O   H1  H2  
O   H1  H2  O   H1  H2  O   H1  H2  O   H1  H2  O   H1  H2  O   H1  H2  O   H1  
H2  O   H1  H2  O   H1  H2  O   H1  H2  O   H1  H2  O   H1  H2  O   H1  H2  O   
H1  H2  O   H1  H2  O   H1  H2  O   H1  H2  O   H1  H2  O   H1  H2  O   H1  H2  
O   H1  H2  O   H1  H2  O   H1  H2  O   H1  H2  O   H1  H2  O   H1  H2  O   H1  
H2  O   H1  H2  O   H1  H2  O   H1  H2  O   H1  H2  O   H1  H2  O   H1  H2  O   
H1  H2  O   H1  H2  O   H1  H2  O   H1  H2  O   H1  H2  O   H1  H2  O   H1  H2  
O   H1  H2  O   H1  H2  O   H1  H2  O   H1  H2  O   H1  H2  O   H1  H2  O   H1  
H2  O   H1  H2  O   H1  H2  O   H1  H2  O   H1  H2  O   H1  H2  O   H1  H2  O   
H1  H2  O   H1  H2  O   H1  H2  O   H1  H2  O   H1  H2  O   H1  H2  O   H1  H2  
O   H1  H2  O   H1  H2  O   H1  H2  O   H1  H2  O   H1  H2  O   H1  H2  O   H1  
H2  O   H1  H2  O   H1  H2  O   H1  H2  O   H1  H2  O   H1  H2  O   H1  H2  O   
H1  H2  O   H1  H2  O   H1  H2  O   H1  H2  O   H1  H2  O   H1  H2  O   H1  H2  
O   H1  H2  O   H1  H2  O   H1  H2  O   H1  H2  O   H1  H2  O   H1  H2  O   H1  
H2  O   H1  H2  O   H1  H2  O   H1  H2  O   H1  H2  O   H1  H2  O   H1  H2  O   
H1  H2  O   H1  H2  O   H1  H2  O   H1  H2  O   H1  H2  O   H1  H2  O   H1  H2  
O   H1  H2  O   H1  H2  O   H1  H2  O   H1  H2  O   H1  H2  O   H1  H2  O   H1  
H2  O   H1  H2  O   H1  H2  O   H1  H2  O   H1  H2  O   H1  H2  O   H1  H2  O   
H1  H2  O   H1  H2  O   H1  H2  O   H1  H2  O   H1  H2  O   H1  H2  O   H1  H2  
O   H1  H2  O   H1  H2  O   H1  H2  O   H1  H2  O   H1  H2  O   H1  H2  O   H1  
H2  O   H1  H2  O   H1  H2  O   H1  H2  O   H1  H2  O   H1  H2  O   H1  H2  O   
H1  H2  O   H1  H2  O   H1  H2  O   H1  H2  O   H1  H2  O   H1  H2  O   H1  H2  
O   H1  H2  O   H1  H2  O   H1  H2  O   H1  H2  O   H1  H2  O   H1  H2  O   H1  
H2  O   H1  H2  O   H1  H2  O   H1  H2  O   H1  H2  O   H1  H2  O   H1  H2  O   
H1  H2  O   H1  H2  O   H1  H2  O   H1  H2  O   H1  H2  O   H1  H2  O   H1  H2  
O   H1  H2  O   H1  H2  O   H1  H2  O   H1  H2  O   H1  H2  O   H1  H2  O   H1  
H2  O   H1  H2  O   H1  H2  O   H1  H2  O   H1  H2  O   H1  H2  O   H1  H2  O   
H1  H2  O   H1  H2  O   H1  H2  O   H1  H2  O   H1  H2  O   H1  H2  O   H1  H2  
O   H1  H2  O   H1  H2  O   H1  H2  O   H1  H2  O   H1  H2  O   H1  H2  O   H1  
H2  O   H1  H2  O   H1  H2  O   H1  H2  O   H1  H2  O   H1  H2  O   H1  H2  O   
H1  H2  O   H1  H2  O   H1  H2  O   H1  H2  O   H1  H2  O   H1  H2  O   H1  H2  
O   H1  H2  O   H1  H2  O   H1  H2  O   H1  H2  O   H1  H2  O   H1  H2  O   H1  
H2  O   H1  H2  O   H1  H2  O   H1  H2  O   H1  H2  O   H1  H2  O   H1  H2  O   
H1  H2  O   H1  H2  O   H1  H2  O   H1  H2  O   H1  H2  O   H1  H2  O   H1  H2  
O   H1  H2  O   H1  H2  O   H1  H2  O   H1  H2  O   H1  H2  O   H1  H2  O   H1  
H2  O   H1  H2  O   H1  H2  O   H1  H2  O   H1  H2  O   H1  H2  O   H1  H2  O   
H1  H2  O   H1  H2  O   H1  H2  O   H1  H2  O   H1  H2  O   H1  H2  O   H1  H2  
O   H1  H2  O   H1  H2  O   H1  H2  O   H1  H2  O   H1  H2  O   H1  H2  O   H1  
H2  O   H1  H2  O   H1  H2  O   H1  H2  O   H1  H2  O   H1  H2  O   H1  H2  O   
H1  H2  O   H1  H2  O   H1  H2  O   H1  H2  O   H1  H2  O   H1  H2  O   H1  H2  
O   H1  H2  O   H1  H2  O   H1  H2  O   H1  H2  O   H1  H2  O   H1  H2  O   H1  
H2  O   H1  H2  O   H1  H2  O   H1  H2  O   H1  H2  O   H1  H2  O   H1  H2  O   
H1  H2  O   H1  H2  O   H1  H2  O   H1  H2  O   H1  H2  O   H1  H2  O   H1  H2  
O   H1  H2  O   H1  H2  O   H1  H2  O   H1  H2  O   H1  H2  O   H1  H2  O   H1  
H2  O   H1  H2  O   H1  H2  O   H1  H2  O   H1  H2  O   H1  H2  O   H1  H2  O   
H1  H2  O   H1  H2  O   H1  H2  O   H1  H2  O   H1  H2  O   H1  H2  O   H1  H2  
O   H1  H2  O   H1  H2  O   H1  H2  O   H1  H2  O   H1  H2  O   H1  H2  O   H1  
H2  O   H1  H2  O   H1  H2  O   H1  H2  O   H1  H2  O   H1  H2  O   H1  H2  O   
H1  H2  O   H1  H2  O   H1  H2  O   H1  H2  O   H1  H2  O   H1  H2  O   H1  H2  
O   H1  H2  O   H1  H2  O   H1  H2  O   H1  H2  O   H1  H2  O   H1  H2  O   H1  
H2  O   H1  H2  O   H1  H2  O   H1  H2  O   H1  H2  O   H1  H2  O   H1  H2  O   
H1  H2  O   H1  H2  O   H1  H2  O   H1  H2  O   H1  H2  O   H1  H2  O   H1  H2  
O   H1  H2  O   H1  H2  O   H1  H2  O   H1  H2  O   H1  H2  O   H1  H2  O   H1  
H2  O   H1  H2  O   H1  H2  O   H1  H2  O   H1  H2  O   H1  H2  O   H1  H2  O   
H1  H2  O   H1  H2  O   H1  H2  O   H1  H2  O   H1  H2  O   H1  H2  O   H1  H2  
O   H1  H2  O   H1  H2  O   H1  H2  O   H1  H2  O   H1  H2  O   H1  H2  O   H1  
H2  O   H1  H2  O   H1  H2  O   H1  H2  O   H1  H2  O   H1  H2  O   H1  H2  O   
H1  H2  O   H1  H2  O   H1  H2  O   H1  H2  O   H1  H2  O   H1  H2  O   H1  H2  
O   H1  H2  O   H1  H2  O   H1  H2  O   H1  H2  O   H1  H2  O   H1  H2  O   H1  
H2  O   H1  H2  O   H1  H2  O   H1  H2  O   H1  H2  O   H1  H2  O   H1  H2  O   
H1  H2  O   H1  H2  O   H1  H2  O   H1  H2  O   H1  H2  O   H1  H2  O   H1  H2  
O   H1  H2  O   H1  H2  O   H1  H2  O   H1  H2  O   H1  H2  O   H1  H2  O   H1  
H2  O   H1  H2  O   H1  H2  O   H1  H2  O   H1  H2  O   H1  H2  O   H1  H2  O   
H1  H2  O   H1  H2  O   H1  H2  O   H1  H2  O   H1  H2  O   H1  H2  O   H1  H2  
O   H1  H2  O   H1  H2  O   H1  H2  O   H1  H2  O   H1  H2  O   H1  H2  O   H1  
H2  O   H1  H2  O   H1  H2  O   H1  H2  O   H1  H2  O   H1  H2  O   H1  H2  O   
H1  H2  O   H1  H2  O   H1  H2  O   H1  H2  O   H1  H2  O   H1  H2  O   H1  H2  
O   H1  H2  O   H1  H2  O   H1  H2  O   H1  H2  O   H1  H2  O   H1  H2  O   H1  
H2  O   H1  H2  O   H1  H2  O   H1  H2  O   H1  H2  O   H1  H2  O   H1  H2  O   
H1  H2  O   H1  H2  O   H1  H2  O   H1  H2  O   H1  H2  O   H1  H2  O   H1  H2  
O   H1  H2  O   H1  H2  O   H1  H2  O   H1  H2  O   H1  H2  O   H1  H2  O   H1  
H2  O   H1  H2  O   H1  H2  O   H1  H2  O   H1  H2  O   H1  H2  O   H1  H2  O   
H1  H2  O   H1  H2  O   H1  H2  O   H1  H2  O   H1  H2  O   H1  H2  O   H1  H2  
O   H1  H2  O   H1  H2  O   H1  H2  O   H1  H2  O   H1  H2  O   H1  H2  O   H1  
H2  O   H1  H2  O   H1  H2  O   H1  H2  O   H1  H2  O   H1  H2  O   H1  H2  O   
H1  H2  O   H1  H2  O   H1  H2  O   H1  H2  O   H1  H2  O   H1  H2  O   H1  H2  
O   H1  H2  O   H1  H2  O   H1  H2  O   H1  H2  O   H1  H2  O   H1  H2  O   H1  
H2  O   H1  H2  O   H1  H2  O   H1  H2  O   H1  H2  O   H1  H2  O   H1  H2  O   
H1  H2  O   H1  H2  O   H1  H2  O   H1  H2  O   H1  H2  O   H1  H2  O   H1  H2  
O   H1  H2  O   H1  H2  O   H1  H2  O   H1  H2  O   H1  H2  O   H1  H2  O   H1  
H2  O   H1  H2  O   H1  H2  O   H1  H2  O   H1  H2  O   H1  H2  O   H1  H2  O   
H1  H2  O   H1  H2  O   H1  H2  O   H1  H2  O   H1  H2  O   H1  H2  O   H1  H2  
O   H1  H2  O   H1  H2  O   H1  H2  O   H1  H2  O   H1  H2  O   H1  H2  O   H1  
H2  O   H1  H2  O   H1  H2  O   H1  H2  O   H1  H2  O   H1  H2  O   H1  H2  O   
H1  H2  O   H1  H2  O   H1  H2  O   H1  H2  O   H1  H2  O   H1  H2  O   H1  H2  
O   H1  H2  O   H1  H2  O   H1  H2  O   H1  H2  O   H1  H2  O   H1  H2  O   H1  
H2  O   H1  H2  O   H1  H2  O   H1  H2  O   H1  H2  O   H1  H2  O   H1  H2  O   
H1  H2  O   H1  H2  O   H1  H2  O   H1  H2  O   H1  H2  O   H1  H2  O   H1  H2  
O   H1  H2  O   H1  H2  O   H1  H2  O   H1  H2  O   H1  H2  O   H1  H2  O   H1  
H2  O   H1  H2  O   H1  H2  O   H1  H2  O   H1  H2  O   H1  H2  O   H1  H2  O   
H1  H2  O   H1  H2  O   H1  H2  O   H1  H2  O   H1  H2  O   H1  H2  O   H1  H2  
O   H1  H2  O   H1  H2  O   H1  H2  O   H1  H2  O   H1  H2  O   H1  H2  O   H1  
H2  O   H1  H2  O   H1  H2  O   H1  H2  O   H1  H2  O   H1  H2  O   H1  H2  O   
H1  H2  O   H1  H2  O   H1  H2  O   H1  H2  O   H1  H2  O   H1  H2  O   H1  H2  
O   H1  H2  O   H1  H2  O   H1  H2  O   H1  H2  O   H1  H2  O   H1  H2  O   H1  
H2  O   H1  H2  O   H1  H2  O   H1  H2  O   H1  H2  O   H1  H2  O   H1  H2  O   
H1  H2  O   H1  H2  O   H1  H2  O   H1  H2  O   H1  H2  O   H1  H2  O   H1  H2  
O   H1  H2  O   H1  H2  O   H1  H2  O   H1  H2  O   H1  H2  O   H1  H2  O   H1  
H2  O   H1  H2  O   H1  H2  O   H1  H2  O   H1  H2  O   H1  H2  O   H1  H2  O   
H1  H2  O   H1  H2  O   H1  H2  O   H1  H2  O   H1  H2  O   H1  H2  O   H1  H2  
O   H1  H2  O   H1  H2  O   H1  H2  O   H1  H2  O   H1  H2  O   H1  H2  O   H1  
H2  O   H1  H2  O   H1  H2  O   H1  H2  O   H1  H2  O   H1  H2  O   H1  H2  O   
H1  H2  O   H1  H2  O   H1  H2  O   H1  H2  O   H1  H2  O   H1  H2  O   H1  H2  
O   H1  H2  O   H1  H2  O   H1  H2  O   H1  H2  O   H1  H2  O   H1  H2  O   H1  
H2  O   H1  H2  O   H1  H2  O   H1  H2  O   H1  H2  O   H1  H2  O   H1  H2  O   
H1  H2  O   H1  H2  O   H1  H2  O   H1  H2  O   H1  H2  O   H1  H2  O   H1  H2  
O   H1  H2  O   H1  H2  O   H1  H2  O   H1  H2  O   H1  H2  O   H1  H2  O   H1  
H2  O   H1  H2  O   H1  H2  O   H1  H2  O   H1  H2  O   H1  H2  O   H1  H2  O   
H1  H2  O   H1  H2  O   H1  H2  O   H1  H2  O   H1  H2  O   H1  H2  O   H1  H2  
O   H1  H2  O   H1  H2  O   H1  H2  O   H1  H2  O   H1  H2  O   H1  H2  O   H1  
H2  O   H1  H2  O   H1  H2  O   H1  H2  O   H1  H2  O   H1  H2  O   H1  H2  O   
H1  H2  O   H1  H2  O   H1  H2  O   H1  H2  O   H1  H2  O   H1  H2  O   H1  H2  
O   H1  H2  O   H1  H2  O   H1  H2  O   H1  H2  O   H1  H2  O   H1  H2  O   H1  
H2  O   H1  H2  O   H1  H2  O   H1  H2  O   H1  H2  O   H1  H2  O   H1  H2  O   
H1  H2  O   H1  H2  O   H1  H2  O   H1  H2  O   H1  H2  O   H1  H2  O   H1  H2  
O   H1  H2  O   H1  H2  O   H1  H2  O   H1  H2  O   H1  H2  O   H1  H2  O   H1  
H2  O   H1  H2  O   H1  H2  O   H1  H2  O   H1  H2  O   H1  H2  O   H1  H2  O   
H1  H2  O   H1  H2  O   H1  H2  O   H1  H2  O   H1  H2  O   H1  H2  O   H1  H2  
O   H1  H2  O   H1  H2  O   H1  H2  O   H1  H2  O   H1  H2  O   H1  H2  O   H1  
H2  O   H1  H2  O   H1  H2  O   H1  H2  O   H1  H2  O   H1  H2  O   H1  H2  O   
H1  H2  O   H1  H2  O   H1  H2  O   H1  H2  O   H1  H2  O   H1  H2  O   H1  H2  
O   H1  H2  O   H1  H2  O   H1  H2  O   H1  H2  O   H1  H2  O   H1  H2  O   H1  
H2  O   H1  H2  O   H1  H2  O   H1  H2  O   H1  H2  O   H1  H2  O   H1  H2  O   
H1  H2  O   H1  H2  O   H1  H2  O   H1  H2  O   H1  H2  O   H1  H2  O   H1  H2  
O   H1  H2  O   H1  H2  O   H1  H2  O   H1  H2  O   H1  H2  O   H1  H2  O   H1  
H2  O   H1  H2  O   H1  H2  O   H1  H2  O   H1  H2  O   H1  H2  O   H1  H2  O   
H1  H2  O   H1  H2  O   H1  H2  O   H1  H2  O   H1  H2  O   H1  H2  O   H1  H2  
O   H1  H2  O   H1  H2  O   H1  H2  O   H1  H2  O   H1  H2  O   H1  H2  O   H1  
H2  O   H1  H2  O   H1  H2  O   H1  H2  O   H1  H2  O   H1  H2  O   H1  H2  O   
H1  H2  O   H1  H2  O   H1  H2  O   H1  H2  O   H1  H2  O   H1  H2  O   H1  H2  
O   H1  H2  O   H1  H2  O   H1  H2  O   H1  H2  O   H1  H2  O   H1  H2  O   H1  
H2  O   H1  H2  O   H1  H2  O   H1  H2  O   H1  H2  O   H1  H2  O   H1  H2  O   
H1  H2  O   H1  H2  O   H1  H2  O   H1  H2  O   H1  H2  O   H1  H2  O   H1  H2  
O   H1  H2  O   H1  H2  O   H1  H2  O   H1  H2  O   H1  H2  O   H1  H2  O   H1  
H2  O   H1  H2  O   H1  H2  O   H1  H2  O   H1  H2  O   H1  H2  O   H1  H2  O   
H1  H2  O   H1  H2  O   H1  H2  O   H1  H2  O   H1  H2  O   H1  H2  O   H1  H2  
O   H1  H2  O   H1  H2  O   H1  H2  O   H1  H2  O   H1  H2  O   H1  H2  O   H1  
H2  O   H1  H2  O   H1  H2  O   H1  H2  O   H1  H2  O   H1  H2  O   H1  H2  O   
H1  H2  O   H1  H2  O   H1  H2  O   H1  H2  O   H1  H2  O   H1  H2  O   H1  H2  
O   H1  H2  O   H1  H2  O   H1  H2  O   H1  H2  O   H1  H2  O   H1  H2  O   H1  
H2  O   H1  H2  O   H1  H2  O   H1  H2  O   H1  H2  O   H1  H2  O   H1  H2  O   
H1  H2  O   H1  H2  O   H1  H2  O   H1  H2  O   H1  H2  O   H1  H2  O   H1  H2  
O   H1  H2  O   H1  H2  O   H1  H2  O   H1  H2  O   H1  H2  O   H1  H2  O   H1  
H2  O   H1  H2  O   H1  H2  O   H1  H2  O   H1  H2  O   H1  H2  O   H1  H2  O   
H1  H2  O   H1  H2  O   H1  H2  O   H1  H2  O   H1  H2  O   H1  H2  O   H1  H2  
O   H1  H2  O   H1  H2  O   H1  H2  O   H1  H2  O   H1  H2  O   H1  H2  O   H1  
H2  O   H1  H2  O   H1  H2  O   H1  H2  O   H1  H2  O   H1  H2  O   H1  H2  O   
H1  H2  O   H1  H2  O   H1  H2  O   H1  H2  O   H1  H2  O   H1  H2  O   H1  H2  
O   H1  H2  O   H1  H2  O   H1  H2  O   H1  H2  O   H1  H2  O   H1  H2  O   H1  
H2  O   H1  H2  O   H1  H2  O   H1  H2  O   H1  H2  O   H1  H2  O   H1  H2  O   
H1  H2  O   H1  H2  O   H1  H2  O   H1  H2  O   H1  H2  O   H1  H2  O   H1  H2  
O   H1  H2  O   H1  H2  O   H1  H2  O   H1  H2  O   H1  H2  O   H1  H2  O   H1  
H2  O   H1  H2  O   H1  H2  O   H1  H2  O   H1  H2  O   H1  H2  O   H1  H2  O   
H1  H2  O   H1  H2  O   H1  H2  O   H1  H2  O   H1  H2  O   H1  H2  O   H1  H2  
O   H1  H2  O   H1  H2  O   H1  H2  O   H1  H2  O   H1  H2  O   H1  H2  O   H1  
H2  O   H1  H2  O   H1  H2  O   H1  H2  O   H1  H2  O   H1  H2  O   H1  H2  O   
H1  H2  O   H1  H2  O   H1  H2  O   H1  H2  O   H1  H2  O   H1  H2  O   H1  H2  
O   H1  H2  O   H1  H2  O   H1  H2  O   H1  H2  O   H1  H2  O   H1  H2  O   H1  
H2  O   H1  H2  O   H1  H2  O   H1  H2  O   H1  H2  O   H1  H2  O   H1  H2  O   
H1  H2  O   H1  H2  O   H1  H2  O   H1  H2  O   H1  H2  O   H1  H2  O   H1  H2  
O   H1  H2  O   H1  H2  O   H1  H2  O   H1  H2  O   H1  H2  O   H1  H2  O   H1  
H2  O   H1  H2  O   H1  H2  O   H1  H2  O   H1  H2  O   H1  H2  O   H1  H2  O   
H1  H2  O   H1  H2  O   H1  H2  O   H1  H2  O   H1  H2  O   H1  H2  O   H1  H2  
O   H1  H2  O   H1  H2  O   H1  H2  O   H1  H2  O   H1  H2  O   H1  H2  O   H1  
H2  O   H1  H2  O   H1  H2  O   H1  H2  O   H1  H2  O   H1  H2  O   H1  H2  O   
H1  H2  O   H1  H2  O   H1  H2  O   H1  H2  O   H1  H2  O   H1  H2  O   H1  H2  
O   H1  H2  O   H1  H2  O   H1  H2  O   H1  H2  O   H1  H2  O   H1  H2  O   H1  
H2  O   H1  H2  O   H1  H2  O   H1  H2  O   H1  H2  O   H1  H2  O   H1  H2  O   
H1  H2  O   H1  H2  O   H1  H2  O   H1  H2  O   H1  H2  O   H1  H2  O   H1  H2  
O   H1  H2  O   H1  H2  O   H1  H2  O   H1  H2  O   H1  H2  O   H1  H2  O   H1  
H2  O   H1  H2  O   H1  H2  O   H1  H2  O   H1  H2  O   H1  H2  O   H1  H2  O   
H1  H2  O   H1  H2  O   H1  H2  O   H1  H2  O   H1  H2  O   H1  H2  O   H1  H2  
O   H1  H2  O   H1  H2  O   H1  H2  O   H1  H2  O   H1  H2  O   H1  H2  O   H1  
H2  O   H1  H2  O   H1  H2  O   H1  H2  O   H1  H2  O   H1  H2  O   H1  H2  O   
H1  H2  O   H1  H2  O   H1  H2  O   H1  H2  O   H1  H2  O   H1  H2  O   H1  H2  
O   H1  H2  O   H1  H2  O   H1  H2  O   H1  H2  O   H1  H2  O   H1  H2  O   H1  
H2  O   H1  H2  O   H1  H2  O   H1  H2  O   H1  H2  O   H1  H2  O   H1  H2  O   
H1  H2  O   H1  H2  O   H1  H2  O   H1  H2  O   H1  H2  O   H1  H2  O   H1  H2  
O   H1  H2  O   H1  H2  O   H1  H2  O   H1  H2  O   H1  H2  O   H1  H2  O   H1  
H2  O   H1  H2  O   H1  H2  O   H1  H2  O   H1  H2  O   H1  H2  O   H1  H2  O   
H1  H2  O   H1  H2  O   H1  H2  O   H1  H2  O   H1  H2  O   H1  H2  O   H1  H2  
O   H1  H2  O   H1  H2  O   H1  H2  O   H1  H2  O   H1  H2  O   H1  H2  O   H1  
H2  O   H1  H2  O   H1  H2  O   H1  H2  O   H1  H2  O   H1  H2  O   H1  H2  O   
H1  H2  O   H1  H2  O   H1  H2  O   H1  H2  O   H1  H2  O   H1  H2  O   H1  H2  
O   H1  H2  O   H1  H2  O   H1  H2  O   H1  H2  O   H1  H2  O   H1  H2  O   H1  
H2  O   H1  H2  O   H1  H2  O   H1  H2  O   H1  H2  O   H1  H2  O   H1  H2  O   
H1  H2  O   H1  H2  O   H1  H2  O   H1  H2  O   H1  H2  O   H1  H2  O   H1  H2  
O   H1  H2  O   H1  H2  O   H1  H2  O   H1  H2  O   H1  H2  O   H1  H2  O   H1  
H2  O   H1  H2  O   H1  H2  O   H1  H2  O   H1  H2  O   H1  H2  O   H1  H2  O   
H1  H2  O   H1  H2  O   H1  H2  O   H1  H2  O   H1  H2  O   H1  H2  O   H1  H2  
O   H1  H2  O   H1  H2  O   H1  H2  O   H1  H2  O   H1  H2  O   H1  H2  O   H1  
H2  O   H1  H2  O   H1  H2  O   H1  H2  O   H1  H2  O   H1  H2  O   H1  H2  O   
H1  H2  O   H1  H2  O   H1  H2  O   H1  H2  O   H1  H2  O   H1  H2  O   H1  H2  
O   H1  H2  O   H1  H2  O   H1  H2  O   H1  H2  O   H1  H2  O   H1  H2  O   H1  
H2  O   H1  H2  O   H1  H2  O   H1  H2  O   H1  H2  O   H1  H2  O   H1  H2  O   
H1  H2  O   H1  H2  O   H1  H2  O   H1  H2  O   H1  H2  O   H1  H2  O   H1  H2  
O   H1  H2  O   H1  H2  O   H1  H2  O   H1  H2  O   H1  H2  O   H1  H2  O   H1  
H2  O   H1  H2  O   H1  H2  O   H1  H2  O   H1  H2  O   H1  H2  O   H1  H2  O   
H1  H2  O   H1  H2  O   H1  H2  O   H1  H2  O   H1  H2  O   H1  H2  O   H1  H2  
O   H1  H2  O   H1  H2  O   H1  H2  O   H1  H2  O   H1  H2  O   H1  H2  O   H1  
H2  O   H1  H2  O   H1  H2  O   H1  H2  O   H1  H2  O   H1  H2  O   H1  H2  O   
H1  H2  O   H1  H2  O   H1  H2  O   H1  H2  O   H1  H2  O   H1  H2  O   H1  H2  
O   H1  H2  O   H1  H2  O   H1  H2  O   H1  H2  O   H1  H2  O   H1  H2  O   H1  
H2  O   H1  H2  O   H1  H2  O   H1  H2  O   H1  H2  O   H1  H2  O   H1  H2  O   
H1  H2  O   H1  H2  O   H1  H2  O   H1  H2  O   H1  H2  O   H1  H2  O   H1  H2  
O   H1  H2  O   H1  H2  O   H1  H2  O   H1  H2  O   H1  H2  O   H1  H2  O   H1  
H2  O   H1  H2  O   H1  H2  O   H1  H2  O   H1  H2  O   H1  H2  O   H1  H2  O   
H1  H2  O   H1  H2  O   H1  H2  O   H1  H2  O   H1  H2  O   H1  H2  O   H1  H2  
O   H1  H2  O   H1  H2  O   H1  H2  O   H1  H2  O   H1  H2  O   H1  H2  O   H1  
H2  O   H1  H2  O   H1  H2  O   H1  H2  O   H1  H2  O   H1  H2  O   H1  H2  O   
H1  H2  O   H1  H2  O   H1  H2  O   H1  H2  O   H1  H2  O   H1  H2  O   H1  H2  
O   H1  H2  O   H1  H2  O   H1  H2  O   H1  H2  O   H1  H2  O   H1  H2  O   H1  
H2  O   H1  H2  O   H1  H2  O   H1  H2  O   H1  H2  O   H1  H2  O   H1  H2  O   
H1  H2  O   H1  H2  O   H1  H2  O   H1  H2  O   H1  H2  O   H1  H2  O   H1  H2  
O   H1  H2  O   H1  H2  O   H1  H2  O   H1  H2  O   H1  H2  O   H1  H2  O   H1  
H2  O   H1  H2  O   H1  H2  O   H1  H2  O   H1  H2  O   H1  H2  O   H1  H2  O   
H1  H2  O   H1  H2  O   H1  H2  O   H1  H2  O   H1  H2  O   H1  H2  O   H1  H2  
O   H1  H2  O   H1  H2  O   H1  H2  O   H1  H2  O   H1  H2  O   H1  H2  O   H1  
H2  O   H1  H2  O   H1  H2  O   H1  H2  O   H1  H2  O   H1  H2  O   H1  H2  O   
H1  H2  O   H1  H2  O   H1  H2  O   H1  H2  O   H1  H2  O   H1  H2  O   H1  H2  
O   H1  H2  O   H1  H2  O   H1  H2  O   H1  H2  O   H1  H2  O   H1  H2  O   H1  
H2  O   H1  H2  O   H1  H2  O   H1  H2  O   H1  H2  O   H1  H2  O   H1  H2  O   
H1  H2  O   H1  H2  O   H1  H2  O   H1  H2  O   H1  H2  O   H1  H2  O   H1  H2  
O   H1  H2  O   H1  H2  O   H1  H2  O   H1  H2  O   H1  H2  O   H1  H2  O   H1  
H2  O   H1  H2  O   H1  H2  O   H1  H2  O   H1  H2  O   H1  H2  O   H1  H2  O   
H1  H2  O   H1  H2  O   H1  H2  O   H1  H2  O   H1  H2  O   H1  H2  O   H1  H2  
O   H1  H2  O   H1  H2  O   H1  H2  O   H1  H2  O   H1  H2  O   H1  H2  O   H1  
H2  O   H1  H2  O   H1  H2  O   H1  H2  O   H1  H2  O   H1  H2  O   H1  H2  O   
H1  H2  O   H1  H2  O   H1  H2  O   H1  H2  O   H1  H2  O   H1  H2  O   H1  H2  
O   H1  H2  O   H1  H2  O   H1  H2  O   H1  H2  O   H1  H2  O   H1  H2  O   H1  
H2  O   H1  H2  O   H1  H2  O   H1  H2  O   H1  H2  O   H1  H2  O   H1  H2  O   
H1  H2  O   H1  H2  O   H1  H2  O   H1  H2  O   H1  H2  O   H1  H2  O   H1  H2  
O   H1  H2  O   H1  H2  O   H1  H2  O   H1  H2  O   H1  H2  O   H1  H2  O   H1  
H2  O   H1  H2  O   H1  H2  O   H1  H2  O   H1  H2  O   H1  H2  O   H1  H2  O   
H1  H2  O   H1  H2  O   H1  H2  O   H1  H2  O   H1  H2  O   H1  H2  O   H1  H2  
O   H1  H2  O   H1  H2  O   H1  H2  O   H1  H2  O   H1  H2  O   H1  H2  O   H1  
H2  O   H1  H2  O   H1  H2  O   H1  H2  O   H1  H2  O   H1  H2  O   H1  H2  O   
H1  H2  O   H1  H2  O   H1  H2  O   H1  H2  O   H1  H2  O   H1  H2  O   H1  H2  
O   H1  H2  O   H1  H2  O   H1  H2  O   H1  H2  O   H1  H2  O   H1  H2  O   H1  
H2  O   H1  H2  O   H1  H2  O   H1  H2  O   H1  H2  O   H1  H2  O   H1  H2  O   
H1  H2  O   H1  H2  O   H1  H2  O   H1  H2  O   H1  H2  O   H1  H2  O   H1  H2  
O   H1  H2  O   H1  H2  O   H1  H2  O   H1  H2  O   H1  H2  O   H1  H2  O   H1  
H2  O   H1  H2  O   H1  H2  O   H1  H2  O   H1  H2  O   H1  H2  O   H1  H2  O   
H1  H2  O   H1  H2  O   H1  H2  O   H1  H2  O   H1  H2  O   H1  H2  O   H1  H2  
O   H1  H2  O   H1  H2  O   H1  H2  O   H1  H2  O   H1  H2  O   H1  H2  O   H1  
H2  O   H1  H2  O   H1  H2  O   H1  H2  O   H1  H2  O   H1  H2  O   H1  H2  O   
H1  H2  O   H1  H2  O   H1  H2  O   H1  H2  O   H1  H2  O   H1  H2  O   H1  H2  
O   H1  H2  O   H1  H2  O   H1  H2  O   H1  H2  O   H1  H2  O   H1  H2  O   H1  
H2  O   H1  H2  O   H1  H2  O   H1  H2  O   H1  H2  O   H1  H2  O   H1  H2  O   
H1  H2  O   H1  H2  O   H1  H2  O   H1  H2  O   H1  H2  O   H1  H2  O   H1  H2  
O   H1  H2  O   H1  H2  O   H1  H2  O   H1  H2  O   H1  H2  O   H1  H2  O   H1  
H2  O   H1  H2  O   H1  H2  O   H1  H2  O   H1  H2  O   H1  H2  O   H1  H2  O   
H1  H2  O   H1  H2  O   H1  H2  O   H1  H2  O   H1  H2  O   H1  H2  O   H1  H2  
O   H1  H2  O   H1  H2  O   H1  H2  O   H1  H2  O   H1  H2  O   H1  H2  O   H1  
H2  O   H1  H2  O   H1  H2  O   H1  H2  O   H1  H2  O   H1  H2  O   H1  H2  O   
H1  H2  O   H1  H2  O   H1  H2  O   H1  H2  O   H1  H2  O   H1  H2  O   H1  H2  
O   H1  H2  O   H1  H2  O   H1  H2  O   H1  H2  O   H1  H2  O   H1  H2  O   H1  
H2  O   H1  H2  O   H1  H2  O   H1  H2  O   H1  H2  O   H1  H2  O   H1  H2  O   
H1  H2  O   H1  H2  O   H1  H2  O   H1  H2  O   H1  H2  O   H1  H2  O   H1  H2  
O   H1  H2  O   H1  H2  O   H1  H2  O   H1  H2  O   H1  H2  O   H1  H2  O   H1  
H2  O   H1  H2  O   H1  H2  O   H1  H2  O   H1  H2  O   H1  H2  O   H1  H2  O   
H1  H2  O   H1  H2  O   H1  H2  O   H1  H2  O   H1  H2  O   H1  H2  O   H1  H2  
O   H1  H2  O   H1  H2  O   H1  H2  O   H1  H2  O   H1  H2  O   H1  H2  O   H1  
H2  O   H1  H2  O   H1  H2  O   H1  H2  O   H1  H2  O   H1  H2  O   H1  H2  O   
H1  H2  O   H1  H2  O   H1  H2  O   H1  H2  O   H1  H2  O   H1  H2  O   H1  H2  
O   H1  H2  O   H1  H2  O   H1  H2  O   H1  H2  O   H1  H2  O   H1  H2  O   H1  
H2  O   H1  H2  O   H1  H2  O   H1  H2  O   H1  H2  O   H1  H2  O   H1  H2  O   
H1  H2  O   H1  H2  O   H1  H2  O   H1  H2  O   H1  H2  O   H1  H2  O   H1  H2  
O   H1  H2  O   H1  H2  O   H1  H2  O   H1  H2  O   H1  H2  O   H1  H2  O   H1  
H2  O   H1  H2  O   H1  H2  O   H1  H2  O   H1  H2  O   H1  H2  O   H1  H2  O   
H1  H2  O   H1  H2  O   H1  H2  O   H1  H2  O   H1  H2  O   H1  H2  O   H1  H2  
O   H1  H2  O   H1  H2  O   H1  H2  O   H1  H2  O   H1  H2  O   H1  H2  O   H1  
H2  O   H1  H2  O   H1  H2  O   H1  H2  O   H1  H2  O   H1  H2  O   H1  H2  O   
H1  H2  O   H1  H2  O   H1  H2  O   H1  H2  O   H1  H2  O   H1  H2  O   H1  H2  
O   H1  H2  O   H1  H2  O   H1  H2  O   H1  H2  O   H1  H2  O   H1  H2  O   H1  
H2  O   H1  H2  O   H1  H2  O   H1  H2  O   H1  H2  O   H1  H2  O   H1  H2  O   
H1  H2  O   H1  H2  O   H1  H2  O   H1  H2  O   H1  H2  O   H1  H2  O   H1  H2  
O   H1  H2  O   H1  H2  O   H1  H2  O   H1  H2  O   H1  H2  O   H1  H2  O   H1  
H2  O   H1  H2  O   H1  H2  O   H1  H2  O   H1  H2  O   H1  H2  O   H1  H2  O   
H1  H2  O   H1  H2  O   H1  H2  O   H1  H2  O   H1  H2  O   H1  H2  O   H1  H2  
O   H1  H2  O   H1  H2  O   H1  H2  O   H1  H2  O   H1  H2  O   H1  H2  O   H1  
H2  O   H1  H2  O   H1  H2  O   H1  H2  O   H1  H2  O   H1  H2  O   H1  H2  O   
H1  H2  O   H1  H2  O   H1  H2  O   H1  H2  O   H1  H2  O   H1  H2  O   H1  H2  
O   H1  H2  O   H1  H2  O   H1  H2  O   H1  H2  O   H1  H2  O   H1  H2  O   H1  
H2  O   H1  H2  O   H1  H2  O   H1  H2  O   H1  H2  O   H1  H2  O   H1  H2  O   
H1  H2  O   H1  H2  O   H1  H2  O   H1  H2  O   H1  H2  O   H1  H2  O   H1  H2  
O   H1  H2  O   H1  H2  O   H1  H2  O   H1  H2  O   H1  H2  O   H1  H2  O   H1  
H2  O   H1  H2  O   H1  H2  O   H1  H2  O   H1  H2  O   H1  H2  O   H1  H2  O   
H1  H2  O   H1  H2  O   H1  H2  O   H1  H2  O   H1  H2  O   H1  H2  O   H1  H2  
O   H1  H2  O   H1  H2  O   H1  H2  O   H1  H2  O   H1  H2  O   H1  H2  O   H1  
H2  O   H1  H2  O   H1  H2  O   H1  H2  O   H1  H2  O   H1  H2  O   H1  H2  O   
H1  H2  O   H1  H2  O   H1  H2  O   H1  H2  O   H1  H2  O   H1  H2  O   H1  H2  
O   H1  H2  O   H1  H2  O   H1  H2  O   H1  H2  O   H1  H2  O   H1  H2  O   H1  
H2  O   H1  H2  O   H1  H2  O   H1  H2  O   H1  H2  O   H1  H2  O   H1  H2  O   
H1  H2  O   H1  H2  O   H1  H2  O   H1  H2  O   H1  H2  O   H1  H2  O   H1  H2  
O   H1  H2  O   H1  H2  O   H1  H2  O   H1  H2  O   H1  H2  O   H1  H2  O   H1  
H2  O   H1  H2  O   H1  H2  O   H1  H2  O   H1  H2  O   H1  H2  O   H1  H2  O   
H1  H2  O   H1  H2  O   H1  H2  O   H1  H2  O   H1  H2  O   H1  H2  O   H1  H2  
O   H1  H2  O   H1  H2  O   H1  H2  O   H1  H2  O   H1  H2  O   H1  H2  O   H1  
H2  O   H1  H2  O   H1  H2  O   H1  H2  O   H1  H2  O   H1  H2  O   H1  H2  O   
H1  H2  O   H1  H2  O   H1  H2  O   H1  H2  O   H1  H2  O   H1  H2  O   H1  H2  
O   H1  H2  O   H1  H2  O   H1  H2  O   H1  H2  O   H1  H2  O   H1  H2  O   H1  
H2  O   H1  H2  O   H1  H2  O   H1  H2  O   H1  H2  O   H1  H2  O   H1  H2  O   
H1  H2  O   H1  H2  O   H1  H2  O   H1  H2  O   H1  H2  O   H1  H2  O   H1  H2  
O   H1  H2  O   H1  H2  O   H1  H2  O   H1  H2  O   H1  H2  O   H1  H2  O   H1  
H2  O   H1  H2  O   H1  H2  O   H1  H2  O   H1  H2  O   H1  H2  O   H1  H2  O   
H1  H2  O   H1  H2  O   H1  H2  O   H1  H2  O   H1  H2  O   H1  H2  O   H1  H2  
O   H1  H2  O   H1  H2  O   H1  H2  O   H1  H2  O   H1  H2  O   H1  H2  O   H1  
H2  O   H1  H2  O   H1  H2  O   H1  H2  O   H1  H2  O   H1  H2  O   H1  H2  O   
H1  H2  O   H1  H2  O   H1  H2  O   H1  H2  O   H1  H2  O   H1  H2  O   H1  H2  
O   H1  H2  O   H1  H2  O   H1  H2  O   H1  H2  O   H1  H2  O   H1  H2  O   H1  
H2  O   H1  H2  O   H1  H2  O   H1  H2  O   H1  H2  O   H1  H2  O   H1  H2  O   
H1  H2  O   H1  H2  O   H1  H2  O   H1  H2  O   H1  H2  O   H1  H2  O   H1  H2  
O   H1  H2  O   H1  H2  O   H1  H2  O   H1  H2  O   H1  H2  O   H1  H2  O   H1  
H2  O   H1  H2  O   H1  H2  O   H1  H2  O   H1  H2  O   H1  H2  O   H1  H2  O   
H1  H2  O   H1  H2  O   H1  H2  O   H1  H2  O   H1  H2  O   H1  H2  O   H1  H2  
O   H1  H2  O   H1  H2  O   H1  H2  O   H1  H2  O   H1  H2  O   H1  H2  O   H1  
H2  O   H1  H2  O   H1  H2  O   H1  H2  O   H1  H2  O   H1  H2  O   H1  H2  O   
H1  H2  O   H1  H2  O   H1  H2  O   H1  H2  O   H1  H2  O   H1  H2  O   H1  H2  
O   H1  H2  O   H1  H2  O   H1  H2  O   H1  H2  O   H1  H2  O   H1  H2  O   H1  
H2  O   H1  H2  O   H1  H2  O   H1  H2  O   H1  H2  O   H1  H2  O   H1  H2  O   
H1  H2  O   H1  H2  O   H1  H2  O   H1  H2  O   H1  H2  O   H1  H2  O   H1  H2  
O   H1  H2  O   H1  H2  O   H1  H2  O   H1  H2  O   H1  H2  O   H1  H2  O   H1  
H2  O   H1  H2  O   H1  H2  O   H1  H2  O   H1  H2  O   H1  H2  O   H1  H2  O   
H1  H2  O   H1  H2  O   H1  H2  O   H1  H2  O   H1  H2  O   H1  H2  O   H1  H2  
O   H1  H2  O   H1  H2  O   H1  H2  O   H1  H2  O   H1  H2  O   H1  H2  O   H1  
H2  O   H1  H2  O   H1  H2  O   H1  H2  O   H1  H2  O   H1  H2  O   H1  H2  O   
H1  H2  O   H1  H2  O   H1  H2  O   H1  H2  O   H1  H2  O   H1  H2  O   H1  H2  
O   H1  H2  O   H1  H2  O   H1  H2  O   H1  H2  O   H1  H2  O   H1  H2  O   H1  
H2  O   H1  H2  O   H1  H2  O   H1  H2  O   H1  H2  O   H1  H2  O   H1  H2  O   
H1  H2  O   H1  H2  O   H1  H2  O   H1  H2  O   H1  H2  O   H1  H2  O   H1  H2  
O   H1  H2  O   H1  H2  O   H1  H2  O   H1  H2  O   H1  H2  O   H1  H2  O   H1  
H2  O   H1  H2  O   H1  H2  O   H1  H2  O   H1  H2  O   H1  H2  O   H1  H2  O   
H1  H2  O   H1  H2  O   H1  H2  O   H1  H2  O   H1  H2  O   H1  H2  O   H1  H2  
O   H1  H2  O   H1  H2  O   H1  H2  O   H1  H2  O   H1  H2  O   H1  H2  O   H1  
H2  O   H1  H2  O   H1  H2  O   H1  H2  O   H1  H2  O   H1  H2  O   H1  H2  O   
H1  H2  O   H1  H2  O   H1  H2  O   H1  H2  O   H1  H2  O   H1  H2  O   H1  H2  
O   H1  H2  O   H1  H2  O   H1  H2  O   H1  H2  O   H1  H2  O   H1  H2  O   H1  
H2  O   H1  H2  O   H1  H2  O   H1  H2  O   H1  H2  O   H1  H2  O   H1  H2  O   
H1  H2  O   H1  H2  O   H1  H2  O   H1  H2  O   H1  H2  O   H1  H2  O   H1  H2  
O   H1  H2  O   H1  H2  O   H1  H2  O   H1  H2  O   H1  H2  O   H1  H2  O   H1  
H2  O   H1  H2  O   H1  H2  O   H1  H2  O   H1  H2  O   H1  H2  O   H1  H2  O   
H1  H2  O   H1  H2  O   H1  H2  O   H1  H2  O   H1  H2  O   H1  H2  O   H1  H2  
O   H1  H2  O   H1  H2  O   H1  H2  O   H1  H2  O   H1  H2  O   H1  H2  O   H1  
H2  O   H1  H2  O   H1  H2  O   H1  H2  O   H1  H2  O   H1  H2  O   H1  H2  O   
H1  H2  O   H1  H2  O   H1  H2  O   H1  H2  O   H1  H2  O   H1  H2  O   H1  H2  
O   H1  H2  O   H1  H2  O   H1  H2  O   H1  H2  O   H1  H2  O   H1  H2  O   H1  
H2  O   H1  H2  O   H1  H2  O   H1  H2  O   H1  H2  O   H1  H2  O   H1  H2  O   
H1  H2  O   H1  H2  O   H1  H2  O   H1  H2  O   H1  H2  O   H1  H2  O   H1  H2  
O   H1  H2  O   H1  H2  O   H1  H2  O   H1  H2  O   H1  H2  O   H1  H2  O   H1  
H2  O   H1  H2  O   H1  H2  O   H1  H2  O   H1  H2  O   H1  H2  O   H1  H2  O   
H1  H2  O   H1  H2  O   H1  H2  O   H1  H2  O   H1  H2  O   H1  H2  O   H1  H2  
O   H1  H2  O   H1  H2  O   H1  H2  O   H1  H2  O   H1  H2  O   H1  H2  O   H1  
H2  O   H1  H2  O   H1  H2  O   H1  H2  O   H1  H2  O   H1  H2  O   H1  H2  O   
H1  H2  O   H1  H2  O   H1  H2  O   H1  H2  O   H1  H2  O   H1  H2  O   H1  H2  
O   H1  H2  O   H1  H2  O   H1  H2  O   H1  H2  O   H1  H2  O   H1  H2  O   H1  
H2  O   H1  H2  O   H1  H2  O   H1  H2  O   H1  H2  O   H1  H2  O   H1  H2  O   
H1  H2  O   H1  H2  O   H1  H2  O   H1  H2  O   H1  H2  O   H1  H2  O   H1  H2  
O   H1  H2  O   H1  H2  O   H1  H2  O   H1  H2  O   H1  H2  O   H1  H2  O   H1  
H2  O   H1  H2  O   H1  H2  O   H1  H2  O   H1  H2  O   H1  H2  O   H1  H2  O   
H1  H2  O   H1  H2  O   H1  H2  O   H1  H2  O   H1  H2  O   H1  H2  O   H1  H2  
O   H1  H2  O   H1  H2  O   H1  H2  O   H1  H2  O   H1  H2  O   H1  H2  O   H1  
H2  O   H1  H2  O   H1  H2  O   H1  H2  O   H1  H2  O   H1  H2  O   H1  H2  O   
H1  H2  O   H1  H2  O   H1  H2  O   H1  H2  O   H1  H2  O   H1  H2  O   H1  H2  
O   H1  H2  O   H1  H2  O   H1  H2  O   H1  H2  O   H1  H2  O   H1  H2  O   H1  
H2  O   H1  H2  O   H1  H2  O   H1  H2  O   H1  H2  O   H1  H2  O   H1  H2  O   
H1  H2  O   H1  H2  O   H1  H2  O   H1  H2  O   H1  H2  O   H1  H2  O   H1  H2  
O   H1  H2  O   H1  H2  O   H1  H2  O   H1  H2  O   H1  H2  O   H1  H2  O   H1  
H2  O   H1  H2  O   H1  H2  O   H1  H2  O   H1  H2  O   H1  H2  O   H1  H2  O   
H1  H2  O   H1  H2  O   H1  H2  O   H1  H2  O   H1  H2  O   H1  H2  O   H1  H2  
O   H1  H2  O   H1  H2  O   H1  H2  O   H1  H2  O   H1  H2  O   H1  H2  O   H1  
H2  O   H1  H2  O   H1  H2  O   H1  H2  O   H1  H2  O   H1  H2  O   H1  H2  O   
H1  H2  O   H1  H2  O   H1  H2  O   H1  H2  O   H1  H2  O   H1  H2  O   H1  H2  
O   H1  H2  O   H1  H2  O   H1  H2  O   H1  H2  O   H1  H2  O   H1  H2  O   H1  
H2  O   H1  H2  O   H1  H2  O   H1  H2  O   H1  H2  O   H1  H2  O   H1  H2  O   
H1  H2  O   H1  H2  O   H1  H2  O   H1  H2  O   H1  H2  O   H1  H2  O   H1  H2  
O   H1  H2  O   H1  H2  O   H1  H2  O   H1  H2  O   H1  H2  O   H1  H2  O   H1  
H2  O   H1  H2  O   H1  H2  O   H1  H2  O   H1  H2  O   H1  H2  O   H1  H2  O   
H1  H2  O   H1  H2  O   H1  H2  O   H1  H2  O   H1  H2  O   H1  H2  O   H1  H2  
O   H1  H2  O   H1  H2  O   H1  H2  O   H1  H2  O   H1  H2  O   H1  H2  O   H1  
H2  O   H1  H2  O   H1  H2  O   H1  H2  O   H1  H2  O   H1  H2  O   H1  H2  O   
H1  H2  O   H1  H2  O   H1  H2  O   H1  H2  O   H1  H2  O   H1  H2  O   H1  H2  
O   H1  H2  O   H1  H2  O   H1  H2  O   H1  H2  O   H1  H2  O   H1  H2  O   H1  
H2  O   H1  H2  O   H1  H2  O   H1  H2  O   H1  H2  O   H1  H2  O   H1  H2  O   
H1  H2  O   H1  H2  O   H1  H2  O   H1  H2  O   H1  H2  O   H1  H2  O   H1  H2  
O   H1  H2  O   H1  H2  O   H1  H2  O   H1  H2  O   H1  H2  O   H1  H2  O   H1  
H2  O   H1  H2  O   H1  H2  O   H1  H2  O   H1  H2  O   H1  H2  O   H1  H2  O   
H1  H2  O   H1  H2  O   H1  H2  O   H1  H2  O   H1  H2  O   H1  H2  O   H1  H2  
O   H1  H2  O   H1  H2  O   H1  H2  O   H1  H2  O   H1  H2  O   H1  H2  O   H1  
H2  O   H1  H2  O   H1  H2  O   H1  H2  O   H1  H2  O   H1  H2  O   H1  H2  O   
H1  H2  O   H1  H2  O   H1  H2  O   H1  H2  O   H1  H2  O   H1  H2  O   H1  H2  
O   H1  H2  O   H1  H2  O   H1  H2  O   H1  H2  O   H1  H2  O   H1  H2  O   H1  
H2  O   H1  H2  O   H1  H2  O   H1  H2  O   H1  H2  O   H1  H2  O   H1  H2  O   
H1  H2  O   H1  H2  O   H1  H2  O   H1  H2  O   H1  H2  O   H1  H2  O   H1  H2  
O   H1  H2  O   H1  H2  O   H1  H2  O   H1  H2  O   H1  H2  O   H1  H2  O   H1  
H2  O   H1  H2  O   H1  H2  O   H1  H2  O   H1  H2  O   H1  H2  O   H1  H2  O   
H1  H2  O   H1  H2  O   H1  H2  O   H1  H2  O   H1  H2  O   H1  H2  O   H1  H2  
O   H1  H2  O   H1  H2  O   H1  H2  O   H1  H2  O   H1  H2  O   H1  H2  O   H1  
H2  O   H1  H2  O   H1  H2  O   H1  H2  O   H1  H2  O   H1  H2  O   H1  H2  O   
H1  H2  O   H1  H2  O   H1  H2  O   H1  H2  O   H1  H2  O   H1  H2  O   H1  H2  
O   H1  H2  O   H1  H2  O   H1  H2  O   H1  H2  O   H1  H2  O   H1  H2  O   H1  
H2  O   H1  H2  O   H1  H2  O   H1  H2  O   H1  H2  O   H1  H2  O   H1  H2  O   
H1  H2  O   H1  H2  O   H1  H2  O   H1  H2  O   H1  H2  O   H1  H2  O   H1  H2  
O   H1  H2  O   H1  H2  O   H1  H2  O   H1  H2  O   H1  H2  O   H1  H2  O   H1  
H2  O   H1  H2  O   H1  H2  O   H1  H2  O   H1  H2  O   H1  H2  O   H1  H2  O   
H1  H2  O   H1  H2  O   H1  H2  O   H1  H2  O   H1  H2  O   H1  H2  O   H1  H2  
O   H1  H2  O   H1  H2  O   H1  H2  O   H1  H2  O   H1  H2  O   H1  H2  O   H1  
H2  O   H1  H2  O   H1  H2  O   H1  H2  O   H1  H2  O   H1  H2  O   H1  H2  O   
H1  H2  O   H1  H2  O   H1  H2  O   H1  H2  O   H1  H2  O   H1  H2  O   H1  H2  
O   H1  H2  O   H1  H2  O   H1  H2  O   H1  H2  O   H1  H2  O   H1  H2  O   H1  
H2  O   H1  H2  O   H1  H2  O   H1  H2  O   H1  H2  O   H1  H2  O   H1  H2  O   
H1  H2  O   H1  H2  O   H1  H2  O   H1  H2  O   H1  H2  O   H1  H2  O   H1  H2  
O   H1  H2  O   H1  H2  O   H1  H2  O   H1  H2  O   H1  H2  O   H1  H2  O   H1  
H2  O   H1  H2  O   H1  H2  O   H1  H2  O   H1  H2  O   H1  H2  O   H1  H2  O   
H1  H2  O   H1  H2  O   H1  H2  O   H1  H2  O   H1  H2  O   H1  H2  O   H1  H2  
O   H1  H2  O   H1  H2  O   H1  H2  O   H1  H2  O   H1  H2  O   H1  H2  O   H1  
H2  O   H1  H2  O   H1  H2  O   H1  H2  O   H1  H2  O   H1  H2  O   H1  H2  O   
H1  H2  O   H1  H2  O   H1  H2  O   H1  H2  O   H1  H2  O   H1  H2  O   H1  H2  
O   H1  H2  O   H1  H2  O   H1  H2  O   H1  H2  O   H1  H2  O   H1  H2  O   H1  
H2  O   H1  H2  O   H1  H2  O   H1  H2  O   H1  H2  O   H1  H2  O   H1  H2  O   
H1  H2  O   H1  H2  O   H1  H2  O   H1  H2  O   H1  H2  O   H1  H2  O   H1  H2  
O   H1  H2  O   H1  H2  O   H1  H2  O   H1  H2  O   H1  H2  O   H1  H2  O   H1  
H2  O   H1  H2  O   H1  H2  O   H1  H2  O   H1  H2  O   H1  H2  O   H1  H2  O   
H1  H2  O   H1  H2  O   H1  H2  O   H1  H2  O   H1  H2  O   H1  H2  O   H1  H2  
O   H1  H2  O   H1  H2  O   H1  H2  O   H1  H2  O   H1  H2  O   H1  H2  O   H1  
H2  O   H1  H2  O   H1  H2  O   H1  H2  O   H1  H2  O   H1  H2  O   H1  H2  O   
H1  H2  O   H1  H2  O   H1  H2  O   H1  H2  O   H1  H2  O   H1  H2  O   H1  H2  
O   H1  H2  O   H1  H2  O   H1  H2  O   H1  H2  O   H1  H2  O   H1  H2  O   H1  
H2  O   H1  H2  O   H1  H2  O   H1  H2  O   H1  H2  O   H1  H2  O   H1  H2  O   
H1  H2  O   H1  H2  O   H1  H2  O   H1  H2  O   H1  H2  O   H1  H2  O   H1  H2  
O   H1  H2  O   H1  H2  O   H1  H2  O   H1  H2  O   H1  H2  O   H1  H2  O   H1  
H2  O   H1  H2  O   H1  H2  O   H1  H2  O   H1  H2  O   H1  H2  O   H1  H2  O   
H1  H2  O   H1  H2  O   H1  H2  O   H1  H2  O   H1  H2  O   H1  H2  O   H1  H2  
O   H1  H2  O   H1  H2  O   H1  H2  O   H1  H2  O   H1  H2  O   H1  H2  O   H1  
H2  O   H1  H2  O   H1  H2  O   H1  H2  O   H1  H2  O   H1  H2  O   H1  H2  O   
H1  H2  O   H1  H2  O   H1  H2  O   H1  H2  O   H1  H2  O   H1  H2  O   H1  H2  
O   H1  H2  O   H1  H2  O   H1  H2  O   H1  H2  O   H1  H2  O   H1  H2  O   H1  
H2  O   H1  H2  O   H1  H2  O   H1  H2  O   H1  H2  O   H1  H2  O   H1  H2  O   
H1  H2  O   H1  H2  O   H1  H2  O   H1  H2  O   H1  H2  O   H1  H2  O   H1  H2  
O   H1  H2  O   H1  H2  O   H1  H2  O   H1  H2  O   H1  H2  O   H1  H2  O   H1  
H2  O   H1  H2  O   H1  H2  O   H1  H2  O   H1  H2  O   H1  H2  O   H1  H2  O   
H1  H2  O   H1  H2  O   H1  H2  O   H1  H2  O   H1  H2  O   H1  H2  O   H1  H2  
O   H1  H2  O   H1  H2  O   H1  H2  O   H1  H2  O   H1  H2  O   H1  H2  O   H1  
H2  O   H1  H2  O   H1  H2  O   H1  H2  O   H1  H2  O   H1  H2  O   H1  H2  O   
H1  H2  O   H1  H2  O   H1  H2  O   H1  H2  O   H1  H2  O   H1  H2  O   H1  H2  
O   H1  H2  O   H1  H2  O   H1  H2  O   H1  H2  O   H1  H2  O   H1  H2  O   H1  
H2  O   H1  H2  O   H1  H2  O   H1  H2  O   H1  H2  O   H1  H2  O   H1  H2  O   
H1  H2  O   H1  H2  O   H1  H2  O   H1  H2  O   H1  H2  O   H1  H2  O   H1  H2  
O   H1  H2  O   H1  H2  O   H1  H2  O   H1  H2  O   H1  H2  O   H1  H2  O   H1  
H2  O   H1  H2  O   H1  H2  O   H1  H2  O   H1  H2  O   H1  H2  O   H1  H2  O   
H1  H2  O   H1  H2  O   H1  H2  O   H1  H2  O   H1  H2  O   H1  H2  O   H1  H2  
O   H1  H2  O   H1  H2  O   H1  H2  O   H1  H2  O   H1  H2  O   H1  H2  O   H1  
H2  O   H1  H2  O   H1  H2  O   H1  H2  O   H1  H2  O   H1  H2  O   H1  H2  O   
H1  H2  O   H1  H2  O   H1  H2  O   H1  H2  O   H1  H2  O   H1  H2  O   H1  H2  
O   H1  H2  O   H1  H2  O   H1  H2  O   H1  H2  O   H1  H2  O   H1  H2  O   H1  
H2  O   H1  H2  O   H1  H2  O   H1  H2  O   H1  H2  O   H1  H2  O   H1  H2  O   
H1  H2  O   H1  H2  O   H1  H2  O   H1  H2  O   H1  H2  O   H1  H2  O   H1  H2  
O   H1  H2  O   H1  H2  O   H1  H2  O   H1  H2  O   H1  H2  O   H1  H2  O   H1  
H2  O   H1  H2  O   H1  H2  O   H1  H2  O   H1  H2  O   H1  H2  O   H1  H2  O   
H1  H2  O   H1  H2  O   H1  H2  O   H1  H2  O   H1  H2  O   H1  H2  O   H1  H2  
O   H1  H2  O   H1  H2  O   H1  H2  O   H1  H2  O   H1  H2  O   H1  H2  O   H1  
H2  O   H1  H2  O   H1  H2  O   H1  H2  O   H1  H2  O   H1  H2  O   H1  H2  O   
H1  H2  O   H1  H2  O   H1  H2  O   H1  H2  O   H1  H2  O   H1  H2  O   H1  H2  
O   H1  H2  O   H1  H2  O   H1  H2  O   H1  H2  O   H1  H2  O   H1  H2  O   H1  
H2  O   H1  H2  O   H1  H2  O   H1  H2  O   H1  H2  O   H1  H2  O   H1  H2  O   
H1  H2  O   H1  H2  O   H1  H2  O   H1  H2  O   H1  H2  O   H1  H2  O   H1  H2  
O   H1  H2  O   H1  H2  O   H1  H2  O   H1  H2  O   H1  H2  O   H1  H2  O   H1  
H2  O   H1  H2  O   H1  H2  O   H1  H2  O   H1  H2  O   H1  H2  O   H1  H2  O   
H1  H2  O   H1  H2  O   H1  H2  O   H1  H2  O   H1  H2  O   H1  H2  O   H1  H2  
O   H1  H2  O   H1  H2  O   H1  H2  O   H1  H2  O   H1  H2  O   H1  H2  O   H1  
H2  O   H1  H2  O   H1  H2  O   H1  H2  O   H1  H2  O   H1  H2  O   H1  H2  O   
H1  H2  O   H1  H2  O   H1  H2  O   H1  H2  O   H1  H2  O   H1  H2  O   H1  H2  
O   H1  H2  O   H1  H2  O   H1  H2  O   H1  H2  O   H1  H2  O   H1  H2  O   H1  
H2  O   H1  H2  O   H1  H2  O   H1  H2  O   H1  H2  O   H1  H2  O   H1  H2  O   
H1  H2  O   H1  H2  O   H1  H2  O   H1  H2  O   H1  H2  O   H1  H2  O   H1  H2  
O   H1  H2  O   H1  H2  O   H1  H2  O   H1  H2  O   H1  H2  O   H1  H2  O   H1  
H2  O   H1  H2  O   H1  H2  O   H1  H2  O   H1  H2  O   H1  H2  O   H1  H2  O   
H1  H2  O   H1  H2  O   H1  H2  O   H1  H2  O   H1  H2  O   H1  H2  O   H1  H2  
O   H1  H2  O   H1  H2  O   H1  H2  O   H1  H2  O   H1  H2  O   H1  H2  O   H1  
H2  O   H1  H2  O   H1  H2  O   H1  H2  O   H1  H2  O   H1  H2  O   H1  H2  O   
H1  H2  O   H1  H2  O   H1  H2  O   H1  H2  O   H1  H2  O   H1  H2  O   H1  H2  
O   H1  H2  O   H1  H2  O   H1  H2  O   H1  H2  O   H1  H2  O   H1  H2  O   H1  
H2  O   H1  H2  O   H1  H2  O   H1  H2  O   H1  H2  O   H1  H2  O   H1  H2  O   
H1  H2  O   H1  H2  O   H1  H2  O   H1  H2  O   H1  H2  O   H1  H2  O   H1  H2  
O   H1  H2  O   H1  H2  O   H1  H2  O   H1  H2  O   H1  H2  O   H1  H2  O   H1  
H2  O   H1  H2  O   H1  H2  O   H1  H2  O   H1  H2  O   H1  H2  O   H1  H2  O   
H1  H2  O   H1  H2  O   H1  H2  O   H1  H2  O   H1  H2  O   H1  H2  O   H1  H2  
O   H1  H2  O   H1  H2  O   H1  H2  O   H1  H2  O   H1  H2  O   H1  H2  O   H1  
H2  O   H1  H2  O   H1  H2  O   H1  H2  O   H1  H2  O   H1  H2  O   H1  H2  O   
H1  H2  O   H1  H2  O   H1  H2  O   H1  H2  O   H1  H2  O   H1  H2  O   H1  H2  
O   H1  H2  O   H1  H2  O   H1  H2  O   H1  H2  O   H1  H2  O   H1  H2  O   H1  
H2  O   H1  H2  O   H1  H2  O   H1  H2  O   H1  H2  O   H1  H2  O   H1  H2  O   
H1  H2  O   H1  H2  O   H1  H2  O   H1  H2  O   H1  H2  O   H1  H2  O   H1  H2  
O   H1  H2  O   H1  H2  O   H1  H2  O   H1  H2  O   H1  H2  O   H1  H2  O   H1  
H2  O   H1  H2  O   H1  H2  O   H1  H2  O   H1  H2  O   H1  H2  O   H1  H2  O   
H1  H2  O   H1  H2  O   H1  H2  O   H1  H2  O   H1  H2  O   H1  H2  O   H1  H2  
O   H1  H2  O   H1  H2  O   H1  H2  O   H1  H2  O   H1  H2  O   H1  H2  O   H1  
H2  O   H1  H2  O   H1  H2  O   H1  H2  O   H1  H2  O   H1  H2  O   H1  H2  O   
H1  H2  O   H1  H2  O   H1  H2  O   H1  H2  O   H1  H2  O   H1  H2  O   H1  H2  
O   H1  H2  O   H1  H2  O   H1  H2  O   H1  H2  O   H1  H2  O   H1  H2  O   H1  
H2  O   H1  H2  O   H1  H2  O   H1  H2  O   H1  H2  O   H1  H2  O   H1  H2  O   
H1  H2  O   H1  H2  O   H1  H2  O   H1  H2  O   H1  H2  O   H1  H2  O   H1  H2  
O   H1  H2  O   H1  H2  O   H1  H2  O   H1  H2  O   H1  H2  O   H1  H2  O   H1  
H2  O   H1  H2  O   H1  H2  O   H1  H2  O   H1  H2  O   H1  H2  O   H1  H2  O   
H1  H2  O   H1  H2  O   H1  H2  O   H1  H2  O   H1  H2  O   H1  H2  O   H1  H2  
O   H1  H2  O   H1  H2  O   H1  H2  O   H1  H2  O   H1  H2  O   H1  H2  O   H1  
H2  O   H1  H2  O   H1  H2  O   H1  H2  O   H1  H2  O   H1  H2  O   H1  H2  O   
H1  H2  O   H1  H2  O   H1  H2  O   H1  H2  O   H1  H2  O   H1  H2  O   H1  H2  
O   H1  H2  O   H1  H2  O   H1  H2  O   H1  H2  O   H1  H2  O   H1  H2  O   H1  
H2  O   H1  H2  O   H1  H2  O   H1  H2  O   H1  H2  O   H1  H2  O   H1  H2  O   
H1  H2  O   H1  H2  O   H1  H2  O   H1  H2  O   H1  H2  O   H1  H2  O   H1  H2  
O   H1  H2  O   H1  H2  O   H1  H2  O   H1  H2  O   H1  H2  O   H1  H2  O   H1  
H2  O   H1  H2  O   H1  H2  O   H1  H2  O   H1  H2  O   H1  H2  O   H1  H2  O   
H1  H2  O   H1  H2  O   H1  H2  O   H1  H2  O   H1  H2  O   H1  H2  O   H1  H2  
O   H1  H2  O   H1  H2  O   H1  H2  O   H1  H2  O   H1  H2  O   H1  H2  O   H1  
H2  O   H1  H2  O   H1  H2  O   H1  H2  O   H1  H2  O   H1  H2  O   H1  H2  O   
H1  H2  O   H1  H2  O   H1  H2  O   H1  H2  O   H1  H2  O   H1  H2  O   H1  H2  
O   H1  H2  O   H1  H2  O   H1  H2  O   H1  H2  O   H1  H2  O   H1  H2  O   H1  
H2  O   H1  H2  O   H1  H2  O   H1  H2  O   H1  H2  O   H1  H2  O   H1  H2  O   
H1  H2  O   H1  H2  O   H1  H2  O   H1  H2  O   H1  H2  O   H1  H2  O   H1  H2  
O   H1  H2  O   H1  H2  O   H1  H2  O   H1  H2  O   H1  H2  O   H1  H2  O   H1  
H2  O   H1  H2  O   H1  H2  O   H1  H2  O   H1  H2  O   H1  H2  O   H1  H2  O   
H1  H2  O   H1  H2  O   H1  H2  O   H1  H2  O   H1  H2  O   H1  H2  O   H1  H2  
O   H1  H2  O   H1  H2  O   H1  H2  O   H1  H2  O   H1  H2  O   H1  H2  O   H1  
H2  O   H1  H2  O   H1  H2  O   H1  H2  O   H1  H2  O   H1  H2  O   H1  H2  O   
H1  H2  O   H1  H2  O   H1  H2  O   H1  H2  O   H1  H2  O   H1  H2  O   H1  H2  
O   H1  H2  O   H1  H2  O   H1  H2  O   H1  H2  O   H1  H2  O   H1  H2  O   H1  
H2  O   H1  H2  O   H1  H2  O   H1  H2  O   H1  H2  O   H1  H2  O   H1  H2  O   
H1  H2  O   H1  H2  O   H1  H2  O   H1  H2  O   H1  H2  O   H1  H2  O   H1  H2  
O   H1  H2  O   H1  H2  O   H1  H2  O   H1  H2  O   H1  H2  O   H1  H2  O   H1  
H2  O   H1  H2  O   H1  H2  O   H1  H2  O   H1  H2  O   H1  H2  O   H1  H2  O   
H1  H2  O   H1  H2  O   H1  H2  O   H1  H2  O   H1  H2  O   H1  H2  O   H1  H2  
O   H1  H2  O   H1  H2  O   H1  H2  O   H1  H2  O   H1  H2  O   H1  H2  O   H1  
H2  O   H1  H2  O   H1  H2  O   H1  H2  O   H1  H2  O   H1  H2  O   H1  H2  O   
H1  H2  O   H1  H2  O   H1  H2  O   H1  H2  O   H1  H2  O   H1  H2  O   H1  H2  
O   H1  H2  O   H1  H2  O   H1  H2  O   H1  H2  O   H1  H2  O   H1  H2  O   H1  
H2  O   H1  H2  O   H1  H2  O   H1  H2  O   H1  H2  O   H1  H2  O   H1  H2  O   
H1  H2  O   H1  H2  O   H1  H2  O   H1  H2  O   H1  H2  O   H1  H2  O   H1  H2  
O   H1  H2  O   H1  H2  O   H1  H2  O   H1  H2  O   H1  H2  O   H1  H2  O   H1  
H2  O   H1  H2  O   H1  H2  O   H1  H2  O   H1  H2  O   H1  H2  O   H1  H2  O   
H1  H2  O   H1  H2  O   H1  H2  O   H1  H2  O   H1  H2  O   H1  H2  O   H1  H2  
O   H1  H2  O   H1  H2  
%FLAG CHARGE                                                                    
%FORMAT(5E16.8)                                                                 
  2.04636429E+00 -6.67300626E+00  2.04636429E+00  2.04636429E+00  1.08823576E+01
 -1.03484442E+01 -7.57501011E+00  4.95464337E+00 -5.64891300E-02  1.54889550E+00
 -6.56002800E-02  3.11601330E-01  3.11601330E-01 -1.17533835E+00  6.41424960E-01
  6.41424960E-01  1.26663207E+01 -1.10900918E+01 -1.71417176E+01  7.74629973E+00
  7.74629973E+00  1.08841798E+01 -1.03484442E+01 -7.57501011E+00  4.95464337E+00
  7.81736670E-01  1.39582818E+00 -1.43956170E+00  1.65822930E+00  1.65822930E+00
 -1.96983063E+00  1.08841798E+01 -1.03484442E+01 -7.57501011E+00  4.95464337E+00
  7.81736670E-01  1.39582818E+00 -1.43956170E+00  1.65822930E+00  1.65822930E+00
 -1.96983063E+00  1.08841798E+01 -1.03484442E+01 -7.57501011E+00  4.95464337E+00
 -7.08847470E-01  1.83498561E+00  6.65842842E+00  7.83558900E-02 -4.44259674E+00
  1.16987166E+00  1.16987166E+00  1.16987166E+00 -1.23200970E+01  7.47478746E+00
  1.08841798E+01 -1.03484442E+01 -7.57501011E+00  4.95464337E+00 -4.53735270E-01
  1.53613989E+00  3.85766091E+00  6.41424960E-01  6.41424960E-01 -1.19283176E+01
  7.79003325E+00  1.08841798E+01 -1.03484442E+01 -7.57501011E+00  4.95464337E+00
 -1.08787131E+00  1.58351787E+00  2.37436569E+00  3.40757010E-01 -5.83842492E+00
  1.60720686E+00  1.60720686E+00  1.60720686E+00 -7.83558900E-01  4.30046280E-01
  4.30046280E-01 -1.20267180E+00  3.38934780E-01  3.38934780E-01  3.38934780E-01
  1.08841798E+01 -1.03484442E+01 -7.57501011E+00  4.95464337E+00  7.81736670E-01
  1.39582818E+00 -1.43956170E+00  1.65822930E+00  1.65822930E+00 -1.96983063E+00
  1.08841798E+01 -1.03484442E+01 -7.57501011E+00  4.95464337E+00 -4.53735270E-01
  1.53613989E+00  3.85766091E+00  6.41424960E-01  6.41424960E-01 -1.19283176E+01
  7.79003325E+00  1.08841798E+01 -1.03484442E+01 -7.57501011E+00  4.95464337E+00
 -9.43915140E-01  1.68009606E+00 -2.00809746E+00  8.32759110E-01  8.32759110E-01
  6.43429413E+00 -6.57825030E-01 -7.50940983E+00  1.82223000E+00  1.82223000E+00
  1.82223000E+00 -7.50940983E+00  1.82223000E+00  1.82223000E+00  1.82223000E+00
  1.08841798E+01 -1.03484442E+01 -7.57501011E+00  4.95464337E+00 -2.55112200E-02
  1.59627348E+00 -2.76978960E-01  5.37557850E-01  5.37557850E-01 -2.00445300E-02
 -3.47317038E+00  3.09596877E+00 -4.26584043E+00  3.01761288E+00  5.87851398E+00
 -1.01662212E+01  7.27434216E+00 -4.26584043E+00  3.01761288E+00 -3.47317038E+00
  3.09596877E+00  1.08841798E+01 -1.03484442E+01 -7.57501011E+00  4.95464337E+00
 -5.64891300E-02  1.54889550E+00 -6.56002800E-02  3.11601330E-01  3.11601330E-01
 -1.17533835E+00  6.41424960E-01  6.41424960E-01  1.26663207E+01 -1.10900918E+01
 -1.71417176E+01  7.74629973E+00  7.74629973E+00  1.08841798E+01 -1.03484442E+01
 -7.57501011E+00  4.95464337E+00 -9.43915140E-01  1.68009606E+00 -2.00809746E+00
  8.32759110E-01  8.32759110E-01  6.43429413E+00 -6.57825030E-01 -7.50940983E+00
  1.82223000E+00  1.82223000E+00  1.82223000E+00 -7.50940983E+00  1.82223000E+00
  1.82223000E+00  1.82223000E+00  1.08841798E+01 -1.03484442E+01 -9.40817349E+00
  5.35006728E+00  7.23425310E-01  2.01356415E+00  1.02044880E+00 -3.15245790E-01
 -3.15245790E-01  2.47823280E-01 -7.74447750E-01 -7.74447750E-01  1.46762404E+01
 -1.49204192E+01 -1.49204192E+01  0.00000000E+00  9.77808618E+00 -1.06035564E+01
  0.00000000E+00  0.00000000E+00  0.00000000E+00 -7.57501011E+00  4.95464337E+00
  2.60578890E-01  1.90969704E+00 -3.71917143E+00  1.45231731E+00  1.45231731E+00
  1.29924999E+01 -1.08076461E+01 -1.67481159E+01  7.64607708E+00  7.64607708E+00
  1.08841798E+01 -1.03484442E+01 -7.57501011E+00  4.95464337E+00 -2.55112200E-02
  1.59627348E+00 -2.76978960E-01  5.37557850E-01  5.37557850E-01 -2.00445300E-02
 -3.47317038E+00  3.09596877E+00 -4.26584043E+00  3.01761288E+00  5.87851398E+00
 -1.01662212E+01  7.27434216E+00 -4.26584043E+00  3.01761288E+00 -3.47317038E+00
  3.09596877E+00  1.08841798E+01 -1.03484442E+01 -7.57501011E+00  4.95464337E+00
  7.81736670E-01  1.39582818E+00 -1.43956170E+00  1.65822930E+00  1.65822930E+00
 -1.96983063E+00  1.08841798E+01 -1.03484442E+01 -7.57501011E+00  4.95464337E+00
 -2.71512270E+00  1.77849648E+00  1.77849648E+00  1.77849648E+00  2.04636429E+00
 -6.67300626E+00  2.04636429E+00  2.04636429E+00  1.08823576E+01 -1.03484442E+01
 -6.33953817E+00  5.00566581E+00 -2.46729942E+00  2.20854276E+00 -7.54403220E-01
  1.47600630E+00  1.47600630E+00 -2.18667600E-02 -2.75703399E+00  7.04474118E+00
 -3.09779100E-01  4.88539863E+00 -3.13059114E+00  7.12674153E+00 -2.07916443E+00
  4.22210691E+00  1.33769904E+01 -1.07402236E+01 -7.57501011E+00  4.95464337E+00
 -9.43915140E-01  1.68009606E+00 -2.00809746E+00  8.32759110E-01  8.32759110E-01
  6.43429413E+00 -6.57825030E-01 -7.50940983E+00  1.82223000E+00  1.82223000E+00
  1.82223000E+00 -7.50940983E+00  1.82223000E+00  1.82223000E+00  1.82223000E+00
  1.08841798E+01 -1.03484442E+01 -7.57501011E+00  4.95464337E+00  7.81736670E-01
  1.39582818E+00 -1.43956170E+00  1.65822930E+00  1.65822930E+00 -1.96983063E+00
  1.08841798E+01 -1.03484442E+01 -7.57501011E+00  4.95464337E+00 -4.59201960E-01
  1.27191654E+00  1.27191654E+00  1.08841798E+01 -1.03484442E+01 -7.57501011E+00
  4.95464337E+00 -4.53735270E-01  1.53613989E+00  3.85766091E+00  6.41424960E-01
  6.41424960E-01 -1.19283176E+01  7.79003325E+00  1.08841798E+01 -1.03484442E+01
 -6.33953817E+00  5.00566581E+00 -2.46729942E+00  2.20854276E+00 -7.54403220E-01
  1.47600630E+00  1.47600630E+00 -2.18667600E-02 -2.75703399E+00  7.04474118E+00
 -3.09779100E-01  4.88539863E+00 -3.13059114E+00  7.12674153E+00 -2.07916443E+00
  4.22210691E+00  1.33769904E+01 -1.07402236E+01 -7.57501011E+00  4.95464337E+00
 -9.43915140E-01  1.68009606E+00 -2.00809746E+00  8.32759110E-01  8.32759110E-01
  6.43429413E+00 -6.57825030E-01 -7.50940983E+00  1.82223000E+00  1.82223000E+00
  1.82223000E+00 -7.50940983E+00  1.82223000E+00  1.82223000E+00  1.82223000E+00
  1.08841798E+01 -1.03484442E+01 -7.57501011E+00  4.95464337E+00 -1.59445125E+00
  1.76574087E+00  5.43935655E+00 -5.41202310E-01 -5.81655816E+00  1.44138393E+00
  1.44138393E+00  1.44138393E+00 -5.81655816E+00  1.44138393E+00  1.44138393E+00
  1.44138393E+00  1.08841798E+01 -1.03484442E+01 -9.40817349E+00  5.35006728E+00
  7.23425310E-01  2.01356415E+00  1.02044880E+00 -3.15245790E-01 -3.15245790E-01
  2.47823280E-01 -7.74447750E-01 -7.74447750E-01  1.46762404E+01 -1.49204192E+01
 -1.49204192E+01  0.00000000E+00  9.77808618E+00 -1.06035564E+01  0.00000000E+00
  0.00000000E+00  0.00000000E+00 -7.57501011E+00  4.95464337E+00  6.14091510E-01
  1.49969529E+00 -3.32556975E+00  1.09880469E+00  1.09880469E+00  1.09880469E+00
  1.08841798E+01 -1.03484442E+01 -7.57501011E+00  4.95464337E+00 -9.43915140E-01
  1.68009606E+00 -2.00809746E+00  8.32759110E-01  8.32759110E-01  6.43429413E+00
 -6.57825030E-01 -7.50940983E+00  1.82223000E+00  1.82223000E+00  1.82223000E+00
 -7.50940983E+00  1.82223000E+00  1.82223000E+00  1.82223000E+00  1.08841798E+01
 -1.03484442E+01 -7.57501011E+00  4.95464337E+00 -2.55112200E-02  1.59627348E+00
 -2.76978960E-01  5.37557850E-01  5.37557850E-01 -2.00445300E-02 -3.47317038E+00
  3.09596877E+00 -4.26584043E+00  3.01761288E+00  5.87851398E+00 -1.01662212E+01
  7.27434216E+00 -4.26584043E+00  3.01761288E+00 -3.47317038E+00  3.09596877E+00
  1.08841798E+01 -1.03484442E+01 -7.57501011E+00  4.95464337E+00 -9.43915140E-01
  1.68009606E+00 -2.00809746E+00  8.32759110E-01  8.32759110E-01  6.43429413E+00
 -6.57825030E-01 -7.50940983E+00  1.82223000E+00  1.82223000E+00  1.82223000E+00
 -7.50940983E+00  1.82223000E+00  1.82223000E+00  1.82223000E+00  1.08841798E+01
 -1.03484442E+01 -7.57501011E+00  4.95464337E+00 -1.59445125E+00  1.76574087E+00
  5.43935655E+00 -5.41202310E-01 -5.81655816E+00  1.44138393E+00  1.44138393E+00
  1.44138393E+00 -5.81655816E+00  1.44138393E+00  1.44138393E+00  1.44138393E+00
  1.08841798E+01 -1.03484442E+01 -7.57501011E+00  4.95464337E+00  7.81736670E-01
  1.39582818E+00 -1.43956170E+00  1.65822930E+00  1.65822930E+00 -1.96983063E+00
  1.08841798E+01 -1.03484442E+01 -7.57501011E+00  4.95464337E+00 -4.59201960E-01
  1.27191654E+00  1.27191654E+00  1.08841798E+01 -1.03484442E+01 -9.40817349E+00
  5.35006728E+00  7.23425310E-01  2.01356415E+00  1.02044880E+00 -3.15245790E-01
 -3.15245790E-01  2.47823280E-01 -7.74447750E-01 -7.74447750E-01  1.46762404E+01
 -1.49204192E+01 -1.49204192E+01  0.00000000E+00  9.77808618E+00 -1.06035564E+01
  0.00000000E+00  0.00000000E+00  0.00000000E+00 -6.33953817E+00  5.00566581E+00
 -4.80522051E+00  2.84267880E+00 -1.27556100E-02  5.95869210E-01  5.95869210E-01
  7.10669700E-01  5.19335550E-01  5.19335550E-01  8.85603780E-01  1.25187201E+00
  1.25187201E+00 -9.64870785E+00  6.29762688E+00  1.47163295E+01 -1.57203782E+01
  8.15994594E+00  8.15994594E+00 -1.57203782E+01  8.15994594E+00  8.15994594E+00
  1.33769904E+01 -1.07402236E+01 -7.57501011E+00  4.95464337E+00 -4.59201960E-01
  1.27191654E+00  1.27191654E+00  1.08841798E+01 -1.03484442E+01 -7.57501011E+00
  4.95464337E+00 -4.37335200E-02  1.78214094E+00 -6.25024890E-01  5.37557850E-01
  5.37557850E-01  2.15023140E-01 -2.28872088E+00  2.42356590E+00 -3.10507992E+00
  2.60578890E+00 -1.95343056E+00  2.36343231E+00 -3.10507992E+00  2.60578890E+00
 -2.28872088E+00  2.42356590E+00  1.08841798E+01 -1.03484442E+01 -7.57501011E+00
  4.95464337E+00 -4.37335200E-02  1.78214094E+00 -6.25024890E-01  5.37557850E-01
  5.37557850E-01  2.15023140E-01 -2.28872088E+00  2.42356590E+00 -3.10507992E+00
  2.60578890E+00 -1.95343056E+00  2.36343231E+00 -3.10507992E+00  2.60578890E+00
 -2.28872088E+00  2.42356590E+00  1.08841798E+01 -1.03484442E+01 -7.57501011E+00
  4.95464337E+00 -2.55112200E-02  1.59627348E+00 -2.76978960E-01  5.37557850E-01
  5.37557850E-01 -2.00445300E-02 -3.47317038E+00  3.09596877E+00 -4.26584043E+00
  3.01761288E+00  5.87851398E+00 -1.01662212E+01  7.27434216E+00 -4.26584043E+00
  3.01761288E+00 -3.47317038E+00  3.09596877E+00  1.08841798E+01 -1.03484442E+01
 -7.57501011E+00  4.95464337E+00 -7.08847470E-01  1.83498561E+00  6.65842842E+00
  7.83558900E-02 -4.44259674E+00  1.16987166E+00  1.16987166E+00  1.16987166E+00
 -1.23200970E+01  7.47478746E+00  1.08841798E+01 -1.03484442E+01 -7.57501011E+00
  4.95464337E+00 -2.71512270E+00  1.77849648E+00  1.77849648E+00  1.77849648E+00
  2.04636429E+00 -6.67300626E+00  2.04636429E+00  2.04636429E+00  1.08823576E+01
 -1.03484442E+01 -7.57501011E+00  4.95464337E+00 -5.64891300E-02  1.54889550E+00
 -6.56002800E-02  3.11601330E-01  3.11601330E-01 -1.17533835E+00  6.41424960E-01
  6.41424960E-01  1.26663207E+01 -1.10900918E+01 -1.71417176E+01  7.74629973E+00
  7.74629973E+00  1.08841798E+01 -1.03484442E+01 -7.57501011E+00  4.95464337E+00
  7.81736670E-01  1.39582818E+00 -1.43956170E+00  1.65822930E+00  1.65822930E+00
 -1.96983063E+00  1.08841798E+01 -1.03484442E+01 -7.57501011E+00  4.95464337E+00
  7.81736670E-01  1.39582818E+00 -1.43956170E+00  1.65822930E+00  1.65822930E+00
 -1.96983063E+00  1.08841798E+01 -1.03484442E+01 -7.57501011E+00  4.95464337E+00
 -7.08847470E-01  1.83498561E+00  6.65842842E+00  7.83558900E-02 -4.44259674E+00
  1.16987166E+00  1.16987166E+00  1.16987166E+00 -1.23200970E+01  7.47478746E+00
  1.08841798E+01 -1.03484442E+01 -7.57501011E+00  4.95464337E+00 -4.53735270E-01
  1.53613989E+00  3.85766091E+00  6.41424960E-01  6.41424960E-01 -1.19283176E+01
  7.79003325E+00  1.08841798E+01 -1.03484442E+01 -7.57501011E+00  4.95464337E+00
 -1.08787131E+00  1.58351787E+00  2.37436569E+00  3.40757010E-01 -5.83842492E+00
  1.60720686E+00  1.60720686E+00  1.60720686E+00 -7.83558900E-01  4.30046280E-01
  4.30046280E-01 -1.20267180E+00  3.38934780E-01  3.38934780E-01  3.38934780E-01
  1.08841798E+01 -1.03484442E+01 -7.57501011E+00  4.95464337E+00  7.81736670E-01
  1.39582818E+00 -1.43956170E+00  1.65822930E+00  1.65822930E+00 -1.96983063E+00
  1.08841798E+01 -1.03484442E+01 -7.57501011E+00  4.95464337E+00 -4.53735270E-01
  1.53613989E+00  3.85766091E+00  6.41424960E-01  6.41424960E-01 -1.19283176E+01
  7.79003325E+00  1.08841798E+01 -1.03484442E+01 -7.57501011E+00  4.95464337E+00
 -9.43915140E-01  1.68009606E+00 -2.00809746E+00  8.32759110E-01  8.32759110E-01
  6.43429413E+00 -6.57825030E-01 -7.50940983E+00  1.82223000E+00  1.82223000E+00
  1.82223000E+00 -7.50940983E+00  1.82223000E+00  1.82223000E+00  1.82223000E+00
  1.08841798E+01 -1.03484442E+01 -7.57501011E+00  4.95464337E+00 -2.55112200E-02
  1.59627348E+00 -2.76978960E-01  5.37557850E-01  5.37557850E-01 -2.00445300E-02
 -3.47317038E+00  3.09596877E+00 -4.26584043E+00  3.01761288E+00  5.87851398E+00
 -1.01662212E+01  7.27434216E+00 -4.26584043E+00  3.01761288E+00 -3.47317038E+00
  3.09596877E+00  1.08841798E+01 -1.03484442E+01 -7.57501011E+00  4.95464337E+00
 -5.64891300E-02  1.54889550E+00 -6.56002800E-02  3.11601330E-01  3.11601330E-01
 -1.17533835E+00  6.41424960E-01  6.41424960E-01  1.26663207E+01 -1.10900918E+01
 -1.71417176E+01  7.74629973E+00  7.74629973E+00  1.08841798E+01 -1.03484442E+01
 -7.57501011E+00  4.95464337E+00 -9.43915140E-01  1.68009606E+00 -2.00809746E+00
  8.32759110E-01  8.32759110E-01  6.43429413E+00 -6.57825030E-01 -7.50940983E+00
  1.82223000E+00  1.82223000E+00  1.82223000E+00 -7.50940983E+00  1.82223000E+00
  1.82223000E+00  1.82223000E+00  1.08841798E+01 -1.03484442E+01 -9.40817349E+00
  5.35006728E+00  7.23425310E-01  2.01356415E+00  1.02044880E+00 -3.15245790E-01
 -3.15245790E-01  2.47823280E-01 -7.74447750E-01 -7.74447750E-01  1.46762404E+01
 -1.49204192E+01 -1.49204192E+01  0.00000000E+00  9.77808618E+00 -1.06035564E+01
  0.00000000E+00  0.00000000E+00  0.00000000E+00 -7.57501011E+00  4.95464337E+00
  2.60578890E-01  1.90969704E+00 -3.71917143E+00  1.45231731E+00  1.45231731E+00
  1.29924999E+01 -1.08076461E+01 -1.67481159E+01  7.64607708E+00  7.64607708E+00
  1.08841798E+01 -1.03484442E+01 -7.57501011E+00  4.95464337E+00 -2.55112200E-02
  1.59627348E+00 -2.76978960E-01  5.37557850E-01  5.37557850E-01 -2.00445300E-02
 -3.47317038E+00  3.09596877E+00 -4.26584043E+00  3.01761288E+00  5.87851398E+00
 -1.01662212E+01  7.27434216E+00 -4.26584043E+00  3.01761288E+00 -3.47317038E+00
  3.09596877E+00  1.08841798E+01 -1.03484442E+01 -7.57501011E+00  4.95464337E+00
  7.81736670E-01  1.39582818E+00 -1.43956170E+00  1.65822930E+00  1.65822930E+00
 -1.96983063E+00  1.08841798E+01 -1.03484442E+01 -7.57501011E+00  4.95464337E+00
 -2.71512270E+00  1.77849648E+00  1.77849648E+00  1.77849648E+00  2.04636429E+00
 -6.67300626E+00  2.04636429E+00  2.04636429E+00  1.08823576E+01 -1.03484442E+01
 -6.33953817E+00  5.00566581E+00 -2.46729942E+00  2.20854276E+00 -7.54403220E-01
  1.47600630E+00  1.47600630E+00 -2.18667600E-02 -2.75703399E+00  7.04474118E+00
 -3.09779100E-01  4.88539863E+00 -3.13059114E+00  7.12674153E+00 -2.07916443E+00
  4.22210691E+00  1.33769904E+01 -1.07402236E+01 -7.57501011E+00  4.95464337E+00
 -9.43915140E-01  1.68009606E+00 -2.00809746E+00  8.32759110E-01  8.32759110E-01
  6.43429413E+00 -6.57825030E-01 -7.50940983E+00  1.82223000E+00  1.82223000E+00
  1.82223000E+00 -7.50940983E+00  1.82223000E+00  1.82223000E+00  1.82223000E+00
  1.08841798E+01 -1.03484442E+01 -7.57501011E+00  4.95464337E+00  7.81736670E-01
  1.39582818E+00 -1.43956170E+00  1.65822930E+00  1.65822930E+00 -1.96983063E+00
  1.08841798E+01 -1.03484442E+01 -7.57501011E+00  4.95464337E+00 -4.59201960E-01
  1.27191654E+00  1.27191654E+00  1.08841798E+01 -1.03484442E+01 -7.57501011E+00
  4.95464337E+00 -4.53735270E-01  1.53613989E+00  3.85766091E+00  6.41424960E-01
  6.41424960E-01 -1.19283176E+01  7.79003325E+00  1.08841798E+01 -1.03484442E+01
 -6.33953817E+00  5.00566581E+00 -2.46729942E+00  2.20854276E+00 -7.54403220E-01
  1.47600630E+00  1.47600630E+00 -2.18667600E-02 -2.75703399E+00  7.04474118E+00
 -3.09779100E-01  4.88539863E+00 -3.13059114E+00  7.12674153E+00 -2.07916443E+00
  4.22210691E+00  1.33769904E+01 -1.07402236E+01 -7.57501011E+00  4.95464337E+00
 -9.43915140E-01  1.68009606E+00 -2.00809746E+00  8.32759110E-01  8.32759110E-01
  6.43429413E+00 -6.57825030E-01 -7.50940983E+00  1.82223000E+00  1.82223000E+00
  1.82223000E+00 -7.50940983E+00  1.82223000E+00  1.82223000E+00  1.82223000E+00
  1.08841798E+01 -1.03484442E+01 -7.57501011E+00  4.95464337E+00 -1.59445125E+00
  1.76574087E+00  5.43935655E+00 -5.41202310E-01 -5.81655816E+00  1.44138393E+00
  1.44138393E+00  1.44138393E+00 -5.81655816E+00  1.44138393E+00  1.44138393E+00
  1.44138393E+00  1.08841798E+01 -1.03484442E+01 -9.40817349E+00  5.35006728E+00
  7.23425310E-01  2.01356415E+00  1.02044880E+00 -3.15245790E-01 -3.15245790E-01
  2.47823280E-01 -7.74447750E-01 -7.74447750E-01  1.46762404E+01 -1.49204192E+01
 -1.49204192E+01  0.00000000E+00  9.77808618E+00 -1.06035564E+01  0.00000000E+00
  0.00000000E+00  0.00000000E+00 -7.57501011E+00  4.95464337E+00  6.14091510E-01
  1.49969529E+00 -3.32556975E+00  1.09880469E+00  1.09880469E+00  1.09880469E+00
  1.08841798E+01 -1.03484442E+01 -7.57501011E+00  4.95464337E+00 -9.43915140E-01
  1.68009606E+00 -2.00809746E+00  8.32759110E-01  8.32759110E-01  6.43429413E+00
 -6.57825030E-01 -7.50940983E+00  1.82223000E+00  1.82223000E+00  1.82223000E+00
 -7.50940983E+00  1.82223000E+00  1.82223000E+00  1.82223000E+00  1.08841798E+01
 -1.03484442E+01 -7.57501011E+00  4.95464337E+00 -2.55112200E-02  1.59627348E+00
 -2.76978960E-01  5.37557850E-01  5.37557850E-01 -2.00445300E-02 -3.47317038E+00
  3.09596877E+00 -4.26584043E+00  3.01761288E+00  5.87851398E+00 -1.01662212E+01
  7.27434216E+00 -4.26584043E+00  3.01761288E+00 -3.47317038E+00  3.09596877E+00
  1.08841798E+01 -1.03484442E+01 -7.57501011E+00  4.95464337E+00 -9.43915140E-01
  1.68009606E+00 -2.00809746E+00  8.32759110E-01  8.32759110E-01  6.43429413E+00
 -6.57825030E-01 -7.50940983E+00  1.82223000E+00  1.82223000E+00  1.82223000E+00
 -7.50940983E+00  1.82223000E+00  1.82223000E+00  1.82223000E+00  1.08841798E+01
 -1.03484442E+01 -7.57501011E+00  4.95464337E+00 -1.59445125E+00  1.76574087E+00
  5.43935655E+00 -5.41202310E-01 -5.81655816E+00  1.44138393E+00  1.44138393E+00
  1.44138393E+00 -5.81655816E+00  1.44138393E+00  1.44138393E+00  1.44138393E+00
  1.08841798E+01 -1.03484442E+01 -7.57501011E+00  4.95464337E+00  7.81736670E-01
  1.39582818E+00 -1.43956170E+00  1.65822930E+00  1.65822930E+00 -1.96983063E+00
  1.08841798E+01 -1.03484442E+01 -7.57501011E+00  4.95464337E+00 -4.59201960E-01
  1.27191654E+00  1.27191654E+00  1.08841798E+01 -1.03484442E+01 -9.40817349E+00
  5.35006728E+00  7.23425310E-01  2.01356415E+00  1.02044880E+00 -3.15245790E-01
 -3.15245790E-01  2.47823280E-01 -7.74447750E-01 -7.74447750E-01  1.46762404E+01
 -1.49204192E+01 -1.49204192E+01  0.00000000E+00  9.77808618E+00 -1.06035564E+01
  0.00000000E+00  0.00000000E+00  0.00000000E+00 -6.33953817E+00  5.00566581E+00
 -4.80522051E+00  2.84267880E+00 -1.27556100E-02  5.95869210E-01  5.95869210E-01
  7.10669700E-01  5.19335550E-01  5.19335550E-01  8.85603780E-01  1.25187201E+00
  1.25187201E+00 -9.64870785E+00  6.29762688E+00  1.47163295E+01 -1.57203782E+01
  8.15994594E+00  8.15994594E+00 -1.57203782E+01  8.15994594E+00  8.15994594E+00
  1.33769904E+01 -1.07402236E+01 -7.57501011E+00  4.95464337E+00 -4.59201960E-01
  1.27191654E+00  1.27191654E+00  1.08841798E+01 -1.03484442E+01 -7.57501011E+00
  4.95464337E+00 -4.37335200E-02  1.78214094E+00 -6.25024890E-01  5.37557850E-01
  5.37557850E-01  2.15023140E-01 -2.28872088E+00  2.42356590E+00 -3.10507992E+00
  2.60578890E+00 -1.95343056E+00  2.36343231E+00 -3.10507992E+00  2.60578890E+00
 -2.28872088E+00  2.42356590E+00  1.08841798E+01 -1.03484442E+01 -7.57501011E+00
  4.95464337E+00 -4.37335200E-02  1.78214094E+00 -6.25024890E-01  5.37557850E-01
  5.37557850E-01  2.15023140E-01 -2.28872088E+00  2.42356590E+00 -3.10507992E+00
  2.60578890E+00 -1.95343056E+00  2.36343231E+00 -3.10507992E+00  2.60578890E+00
 -2.28872088E+00  2.42356590E+00  1.08841798E+01 -1.03484442E+01 -7.57501011E+00
  4.95464337E+00 -2.55112200E-02  1.59627348E+00 -2.76978960E-01  5.37557850E-01
  5.37557850E-01 -2.00445300E-02 -3.47317038E+00  3.09596877E+00 -4.26584043E+00
  3.01761288E+00  5.87851398E+00 -1.01662212E+01  7.27434216E+00 -4.26584043E+00
  3.01761288E+00 -3.47317038E+00  3.09596877E+00  1.08841798E+01 -1.03484442E+01
 -7.57501011E+00  4.95464337E+00 -7.08847470E-01  1.83498561E+00  6.65842842E+00
  7.83558900E-02 -4.44259674E+00  1.16987166E+00  1.16987166E+00  1.16987166E+00
 -1.23200970E+01  7.47478746E+00  1.08841798E+01 -1.03484442E+01 -7.57501011E+00
  4.95464337E+00 -2.71512270E+00  1.77849648E+00  1.77849648E+00  1.77849648E+00
  2.04636429E+00 -6.67300626E+00  2.04636429E+00  2.04636429E+00  1.08823576E+01
 -1.03484442E+01 -7.57501011E+00  4.95464337E+00 -5.64891300E-02  1.54889550E+00
 -6.56002800E-02  3.11601330E-01  3.11601330E-01 -1.17533835E+00  6.41424960E-01
  6.41424960E-01  1.26663207E+01 -1.10900918E+01 -1.71417176E+01  7.74629973E+00
  7.74629973E+00  1.08841798E+01 -1.03484442E+01 -7.57501011E+00  4.95464337E+00
  7.81736670E-01  1.39582818E+00 -1.43956170E+00  1.65822930E+00  1.65822930E+00
 -1.96983063E+00  1.08841798E+01 -1.03484442E+01 -7.57501011E+00  4.95464337E+00
  7.81736670E-01  1.39582818E+00 -1.43956170E+00  1.65822930E+00  1.65822930E+00
 -1.96983063E+00  1.08841798E+01 -1.03484442E+01 -7.57501011E+00  4.95464337E+00
 -7.08847470E-01  1.83498561E+00  6.65842842E+00  7.83558900E-02 -4.44259674E+00
  1.16987166E+00  1.16987166E+00  1.16987166E+00 -1.23200970E+01  7.47478746E+00
  1.08841798E+01 -1.03484442E+01 -7.57501011E+00  4.95464337E+00 -4.53735270E-01
  1.53613989E+00  3.85766091E+00  6.41424960E-01  6.41424960E-01 -1.19283176E+01
  7.79003325E+00  1.08841798E+01 -1.03484442E+01 -7.57501011E+00  4.95464337E+00
 -1.08787131E+00  1.58351787E+00  2.37436569E+00  3.40757010E-01 -5.83842492E+00
  1.60720686E+00  1.60720686E+00  1.60720686E+00 -7.83558900E-01  4.30046280E-01
  4.30046280E-01 -1.20267180E+00  3.38934780E-01  3.38934780E-01  3.38934780E-01
  1.08841798E+01 -1.03484442E+01 -7.57501011E+00  4.95464337E+00  7.81736670E-01
  1.39582818E+00 -1.43956170E+00  1.65822930E+00  1.65822930E+00 -1.96983063E+00
  1.08841798E+01 -1.03484442E+01 -7.57501011E+00  4.95464337E+00 -4.53735270E-01
  1.53613989E+00  3.85766091E+00  6.41424960E-01  6.41424960E-01 -1.19283176E+01
  7.79003325E+00  1.08841798E+01 -1.03484442E+01 -7.57501011E+00  4.95464337E+00
 -9.43915140E-01  1.68009606E+00 -2.00809746E+00  8.32759110E-01  8.32759110E-01
  6.43429413E+00 -6.57825030E-01 -7.50940983E+00  1.82223000E+00  1.82223000E+00
  1.82223000E+00 -7.50940983E+00  1.82223000E+00  1.82223000E+00  1.82223000E+00
  1.08841798E+01 -1.03484442E+01 -7.57501011E+00  4.95464337E+00 -2.55112200E-02
  1.59627348E+00 -2.76978960E-01  5.37557850E-01  5.37557850E-01 -2.00445300E-02
 -3.47317038E+00  3.09596877E+00 -4.26584043E+00  3.01761288E+00  5.87851398E+00
 -1.01662212E+01  7.27434216E+00 -4.26584043E+00  3.01761288E+00 -3.47317038E+00
  3.09596877E+00  1.08841798E+01 -1.03484442E+01 -7.57501011E+00  4.95464337E+00
 -5.64891300E-02  1.54889550E+00 -6.56002800E-02  3.11601330E-01  3.11601330E-01
 -1.17533835E+00  6.41424960E-01  6.41424960E-01  1.26663207E+01 -1.10900918E+01
 -1.71417176E+01  7.74629973E+00  7.74629973E+00  1.08841798E+01 -1.03484442E+01
 -7.57501011E+00  4.95464337E+00 -9.43915140E-01  1.68009606E+00 -2.00809746E+00
  8.32759110E-01  8.32759110E-01  6.43429413E+00 -6.57825030E-01 -7.50940983E+00
  1.82223000E+00  1.82223000E+00  1.82223000E+00 -7.50940983E+00  1.82223000E+00
  1.82223000E+00  1.82223000E+00  1.08841798E+01 -1.03484442E+01 -9.40817349E+00
  5.35006728E+00  7.23425310E-01  2.01356415E+00  1.02044880E+00 -3.15245790E-01
 -3.15245790E-01  2.47823280E-01 -7.74447750E-01 -7.74447750E-01  1.46762404E+01
 -1.49204192E+01 -1.49204192E+01  0.00000000E+00  9.77808618E+00 -1.06035564E+01
  0.00000000E+00  0.00000000E+00  0.00000000E+00 -7.57501011E+00  4.95464337E+00
  2.60578890E-01  1.90969704E+00 -3.71917143E+00  1.45231731E+00  1.45231731E+00
  1.29924999E+01 -1.08076461E+01 -1.67481159E+01  7.64607708E+00  7.64607708E+00
  1.08841798E+01 -1.03484442E+01 -7.57501011E+00  4.95464337E+00 -2.55112200E-02
  1.59627348E+00 -2.76978960E-01  5.37557850E-01  5.37557850E-01 -2.00445300E-02
 -3.47317038E+00  3.09596877E+00 -4.26584043E+00  3.01761288E+00  5.87851398E+00
 -1.01662212E+01  7.27434216E+00 -4.26584043E+00  3.01761288E+00 -3.47317038E+00
  3.09596877E+00  1.08841798E+01 -1.03484442E+01 -7.57501011E+00  4.95464337E+00
  7.81736670E-01  1.39582818E+00 -1.43956170E+00  1.65822930E+00  1.65822930E+00
 -1.96983063E+00  1.08841798E+01 -1.03484442E+01 -7.57501011E+00  4.95464337E+00
 -2.71512270E+00  1.77849648E+00  1.77849648E+00  1.77849648E+00  2.04636429E+00
 -6.67300626E+00  2.04636429E+00  2.04636429E+00  1.08823576E+01 -1.03484442E+01
 -6.33953817E+00  5.00566581E+00 -2.46729942E+00  2.20854276E+00 -7.54403220E-01
  1.47600630E+00  1.47600630E+00 -2.18667600E-02 -2.75703399E+00  7.04474118E+00
 -3.09779100E-01  4.88539863E+00 -3.13059114E+00  7.12674153E+00 -2.07916443E+00
  4.22210691E+00  1.33769904E+01 -1.07402236E+01 -7.57501011E+00  4.95464337E+00
 -9.43915140E-01  1.68009606E+00 -2.00809746E+00  8.32759110E-01  8.32759110E-01
  6.43429413E+00 -6.57825030E-01 -7.50940983E+00  1.82223000E+00  1.82223000E+00
  1.82223000E+00 -7.50940983E+00  1.82223000E+00  1.82223000E+00  1.82223000E+00
  1.08841798E+01 -1.03484442E+01 -7.57501011E+00  4.95464337E+00  7.81736670E-01
  1.39582818E+00 -1.43956170E+00  1.65822930E+00  1.65822930E+00 -1.96983063E+00
  1.08841798E+01 -1.03484442E+01 -7.57501011E+00  4.95464337E+00 -4.59201960E-01
  1.27191654E+00  1.27191654E+00  1.08841798E+01 -1.03484442E+01 -7.57501011E+00
  4.95464337E+00 -4.53735270E-01  1.53613989E+00  3.85766091E+00  6.41424960E-01
  6.41424960E-01 -1.19283176E+01  7.79003325E+00  1.08841798E+01 -1.03484442E+01
 -6.33953817E+00  5.00566581E+00 -2.46729942E+00  2.20854276E+00 -7.54403220E-01
  1.47600630E+00  1.47600630E+00 -2.18667600E-02 -2.75703399E+00  7.04474118E+00
 -3.09779100E-01  4.88539863E+00 -3.13059114E+00  7.12674153E+00 -2.07916443E+00
  4.22210691E+00  1.33769904E+01 -1.07402236E+01 -7.57501011E+00  4.95464337E+00
 -9.43915140E-01  1.68009606E+00 -2.00809746E+00  8.32759110E-01  8.32759110E-01
  6.43429413E+00 -6.57825030E-01 -7.50940983E+00  1.82223000E+00  1.82223000E+00
  1.82223000E+00 -7.50940983E+00  1.82223000E+00  1.82223000E+00  1.82223000E+00
  1.08841798E+01 -1.03484442E+01 -7.57501011E+00  4.95464337E+00 -1.59445125E+00
  1.76574087E+00  5.43935655E+00 -5.41202310E-01 -5.81655816E+00  1.44138393E+00
  1.44138393E+00  1.44138393E+00 -5.81655816E+00  1.44138393E+00  1.44138393E+00
  1.44138393E+00  1.08841798E+01 -1.03484442E+01 -9.40817349E+00  5.35006728E+00
  7.23425310E-01  2.01356415E+00  1.02044880E+00 -3.15245790E-01 -3.15245790E-01
  2.47823280E-01 -7.74447750E-01 -7.74447750E-01  1.46762404E+01 -1.49204192E+01
 -1.49204192E+01  0.00000000E+00  9.77808618E+00 -1.06035564E+01  0.00000000E+00
  0.00000000E+00  0.00000000E+00 -7.57501011E+00  4.95464337E+00  6.14091510E-01
  1.49969529E+00 -3.32556975E+00  1.09880469E+00  1.09880469E+00  1.09880469E+00
  1.08841798E+01 -1.03484442E+01 -7.57501011E+00  4.95464337E+00 -9.43915140E-01
  1.68009606E+00 -2.00809746E+00  8.32759110E-01  8.32759110E-01  6.43429413E+00
 -6.57825030E-01 -7.50940983E+00  1.82223000E+00  1.82223000E+00  1.82223000E+00
 -7.50940983E+00  1.82223000E+00  1.82223000E+00  1.82223000E+00  1.08841798E+01
 -1.03484442E+01 -7.57501011E+00  4.95464337E+00 -2.55112200E-02  1.59627348E+00
 -2.76978960E-01  5.37557850E-01  5.37557850E-01 -2.00445300E-02 -3.47317038E+00
  3.09596877E+00 -4.26584043E+00  3.01761288E+00  5.87851398E+00 -1.01662212E+01
  7.27434216E+00 -4.26584043E+00  3.01761288E+00 -3.47317038E+00  3.09596877E+00
  1.08841798E+01 -1.03484442E+01 -7.57501011E+00  4.95464337E+00 -9.43915140E-01
  1.68009606E+00 -2.00809746E+00  8.32759110E-01  8.32759110E-01  6.43429413E+00
 -6.57825030E-01 -7.50940983E+00  1.82223000E+00  1.82223000E+00  1.82223000E+00
 -7.50940983E+00  1.82223000E+00  1.82223000E+00  1.82223000E+00  1.08841798E+01
 -1.03484442E+01 -7.57501011E+00  4.95464337E+00 -1.59445125E+00  1.76574087E+00
  5.43935655E+00 -5.41202310E-01 -5.81655816E+00  1.44138393E+00  1.44138393E+00
  1.44138393E+00 -5.81655816E+00  1.44138393E+00  1.44138393E+00  1.44138393E+00
  1.08841798E+01 -1.03484442E+01 -7.57501011E+00  4.95464337E+00  7.81736670E-01
  1.39582818E+00 -1.43956170E+00  1.65822930E+00  1.65822930E+00 -1.96983063E+00
  1.08841798E+01 -1.03484442E+01 -7.57501011E+00  4.95464337E+00 -4.59201960E-01
  1.27191654E+00  1.27191654E+00  1.08841798E+01 -1.03484442E+01 -9.40817349E+00
  5.35006728E+00  7.23425310E-01  2.01356415E+00  1.02044880E+00 -3.15245790E-01
 -3.15245790E-01  2.47823280E-01 -7.74447750E-01 -7.74447750E-01  1.46762404E+01
 -1.49204192E+01 -1.49204192E+01  0.00000000E+00  9.77808618E+00 -1.06035564E+01
  0.00000000E+00  0.00000000E+00  0.00000000E+00 -6.33953817E+00  5.00566581E+00
 -4.80522051E+00  2.84267880E+00 -1.27556100E-02  5.95869210E-01  5.95869210E-01
  7.10669700E-01  5.19335550E-01  5.19335550E-01  8.85603780E-01  1.25187201E+00
  1.25187201E+00 -9.64870785E+00  6.29762688E+00  1.47163295E+01 -1.57203782E+01
  8.15994594E+00  8.15994594E+00 -1.57203782E+01  8.15994594E+00  8.15994594E+00
  1.33769904E+01 -1.07402236E+01 -7.57501011E+00  4.95464337E+00 -4.59201960E-01
  1.27191654E+00  1.27191654E+00  1.08841798E+01 -1.03484442E+01 -7.57501011E+00
  4.95464337E+00 -4.37335200E-02  1.78214094E+00 -6.25024890E-01  5.37557850E-01
  5.37557850E-01  2.15023140E-01 -2.28872088E+00  2.42356590E+00 -3.10507992E+00
  2.60578890E+00 -1.95343056E+00  2.36343231E+00 -3.10507992E+00  2.60578890E+00
 -2.28872088E+00  2.42356590E+00  1.08841798E+01 -1.03484442E+01 -7.57501011E+00
  4.95464337E+00 -4.37335200E-02  1.78214094E+00 -6.25024890E-01  5.37557850E-01
  5.37557850E-01  2.15023140E-01 -2.28872088E+00  2.42356590E+00 -3.10507992E+00
  2.60578890E+00 -1.95343056E+00  2.36343231E+00 -3.10507992E+00  2.60578890E+00
 -2.28872088E+00  2.42356590E+00  1.08841798E+01 -1.03484442E+01 -7.57501011E+00
  4.95464337E+00 -2.55112200E-02  1.59627348E+00 -2.76978960E-01  5.37557850E-01
  5.37557850E-01 -2.00445300E-02 -3.47317038E+00  3.09596877E+00 -4.26584043E+00
  3.01761288E+00  5.87851398E+00 -1.01662212E+01  7.27434216E+00 -4.26584043E+00
  3.01761288E+00 -3.47317038E+00  3.09596877E+00  1.08841798E+01 -1.03484442E+01
 -7.57501011E+00  4.95464337E+00 -7.08847470E-01  1.83498561E+00  6.65842842E+00
  7.83558900E-02 -4.44259674E+00  1.16987166E+00  1.16987166E+00  1.16987166E+00
 -1.23200970E+01  7.47478746E+00  1.08841798E+01 -1.03484442E+01 -7.57501011E+00
  4.95464337E+00 -2.71512270E+00  1.77849648E+00  1.77849648E+00  1.77849648E+00
  2.04636429E+00 -6.67300626E+00  2.04636429E+00  2.04636429E+00  1.08823576E+01
 -1.03484442E+01 -7.57501011E+00  4.95464337E+00 -5.64891300E-02  1.54889550E+00
 -6.56002800E-02  3.11601330E-01  3.11601330E-01 -1.17533835E+00  6.41424960E-01
  6.41424960E-01  1.26663207E+01 -1.10900918E+01 -1.71417176E+01  7.74629973E+00
  7.74629973E+00  1.08841798E+01 -1.03484442E+01 -7.57501011E+00  4.95464337E+00
  7.81736670E-01  1.39582818E+00 -1.43956170E+00  1.65822930E+00  1.65822930E+00
 -1.96983063E+00  1.08841798E+01 -1.03484442E+01 -7.57501011E+00  4.95464337E+00
  7.81736670E-01  1.39582818E+00 -1.43956170E+00  1.65822930E+00  1.65822930E+00
 -1.96983063E+00  1.08841798E+01 -1.03484442E+01 -7.57501011E+00  4.95464337E+00
 -7.08847470E-01  1.83498561E+00  6.65842842E+00  7.83558900E-02 -4.44259674E+00
  1.16987166E+00  1.16987166E+00  1.16987166E+00 -1.23200970E+01  7.47478746E+00
  1.08841798E+01 -1.03484442E+01 -7.57501011E+00  4.95464337E+00 -4.53735270E-01
  1.53613989E+00  3.85766091E+00  6.41424960E-01  6.41424960E-01 -1.19283176E+01
  7.79003325E+00  1.08841798E+01 -1.03484442E+01 -7.57501011E+00  4.95464337E+00
 -1.08787131E+00  1.58351787E+00  2.37436569E+00  3.40757010E-01 -5.83842492E+00
  1.60720686E+00  1.60720686E+00  1.60720686E+00 -7.83558900E-01  4.30046280E-01
  4.30046280E-01 -1.20267180E+00  3.38934780E-01  3.38934780E-01  3.38934780E-01
  1.08841798E+01 -1.03484442E+01 -7.57501011E+00  4.95464337E+00  7.81736670E-01
  1.39582818E+00 -1.43956170E+00  1.65822930E+00  1.65822930E+00 -1.96983063E+00
  1.08841798E+01 -1.03484442E+01 -7.57501011E+00  4.95464337E+00 -4.53735270E-01
  1.53613989E+00  3.85766091E+00  6.41424960E-01  6.41424960E-01 -1.19283176E+01
  7.79003325E+00  1.08841798E+01 -1.03484442E+01 -7.57501011E+00  4.95464337E+00
 -9.43915140E-01  1.68009606E+00 -2.00809746E+00  8.32759110E-01  8.32759110E-01
  6.43429413E+00 -6.57825030E-01 -7.50940983E+00  1.82223000E+00  1.82223000E+00
  1.82223000E+00 -7.50940983E+00  1.82223000E+00  1.82223000E+00  1.82223000E+00
  1.08841798E+01 -1.03484442E+01 -7.57501011E+00  4.95464337E+00 -2.55112200E-02
  1.59627348E+00 -2.76978960E-01  5.37557850E-01  5.37557850E-01 -2.00445300E-02
 -3.47317038E+00  3.09596877E+00 -4.26584043E+00  3.01761288E+00  5.87851398E+00
 -1.01662212E+01  7.27434216E+00 -4.26584043E+00  3.01761288E+00 -3.47317038E+00
  3.09596877E+00  1.08841798E+01 -1.03484442E+01 -7.57501011E+00  4.95464337E+00
 -5.64891300E-02  1.54889550E+00 -6.56002800E-02  3.11601330E-01  3.11601330E-01
 -1.17533835E+00  6.41424960E-01  6.41424960E-01  1.26663207E+01 -1.10900918E+01
 -1.71417176E+01  7.74629973E+00  7.74629973E+00  1.08841798E+01 -1.03484442E+01
 -7.57501011E+00  4.95464337E+00 -9.43915140E-01  1.68009606E+00 -2.00809746E+00
  8.32759110E-01  8.32759110E-01  6.43429413E+00 -6.57825030E-01 -7.50940983E+00
  1.82223000E+00  1.82223000E+00  1.82223000E+00 -7.50940983E+00  1.82223000E+00
  1.82223000E+00  1.82223000E+00  1.08841798E+01 -1.03484442E+01 -9.40817349E+00
  5.35006728E+00  7.23425310E-01  2.01356415E+00  1.02044880E+00 -3.15245790E-01
 -3.15245790E-01  2.47823280E-01 -7.74447750E-01 -7.74447750E-01  1.46762404E+01
 -1.49204192E+01 -1.49204192E+01  0.00000000E+00  9.77808618E+00 -1.06035564E+01
  0.00000000E+00  0.00000000E+00  0.00000000E+00 -7.57501011E+00  4.95464337E+00
  2.60578890E-01  1.90969704E+00 -3.71917143E+00  1.45231731E+00  1.45231731E+00
  1.29924999E+01 -1.08076461E+01 -1.67481159E+01  7.64607708E+00  7.64607708E+00
  1.08841798E+01 -1.03484442E+01 -7.57501011E+00  4.95464337E+00 -2.55112200E-02
  1.59627348E+00 -2.76978960E-01  5.37557850E-01  5.37557850E-01 -2.00445300E-02
 -3.47317038E+00  3.09596877E+00 -4.26584043E+00  3.01761288E+00  5.87851398E+00
 -1.01662212E+01  7.27434216E+00 -4.26584043E+00  3.01761288E+00 -3.47317038E+00
  3.09596877E+00  1.08841798E+01 -1.03484442E+01 -7.57501011E+00  4.95464337E+00
  7.81736670E-01  1.39582818E+00 -1.43956170E+00  1.65822930E+00  1.65822930E+00
 -1.96983063E+00  1.08841798E+01 -1.03484442E+01 -7.57501011E+00  4.95464337E+00
 -2.71512270E+00  1.77849648E+00  1.77849648E+00  1.77849648E+00  2.04636429E+00
 -6.67300626E+00  2.04636429E+00  2.04636429E+00  1.08823576E+01 -1.03484442E+01
 -6.33953817E+00  5.00566581E+00 -2.46729942E+00  2.20854276E+00 -7.54403220E-01
  1.47600630E+00  1.47600630E+00 -2.18667600E-02 -2.75703399E+00  7.04474118E+00
 -3.09779100E-01  4.88539863E+00 -3.13059114E+00  7.12674153E+00 -2.07916443E+00
  4.22210691E+00  1.33769904E+01 -1.07402236E+01 -7.57501011E+00  4.95464337E+00
 -9.43915140E-01  1.68009606E+00 -2.00809746E+00  8.32759110E-01  8.32759110E-01
  6.43429413E+00 -6.57825030E-01 -7.50940983E+00  1.82223000E+00  1.82223000E+00
  1.82223000E+00 -7.50940983E+00  1.82223000E+00  1.82223000E+00  1.82223000E+00
  1.08841798E+01 -1.03484442E+01 -7.57501011E+00  4.95464337E+00  7.81736670E-01
  1.39582818E+00 -1.43956170E+00  1.65822930E+00  1.65822930E+00 -1.96983063E+00
  1.08841798E+01 -1.03484442E+01 -7.57501011E+00  4.95464337E+00 -4.59201960E-01
  1.27191654E+00  1.27191654E+00  1.08841798E+01 -1.03484442E+01 -7.57501011E+00
  4.95464337E+00 -4.53735270E-01  1.53613989E+00  3.85766091E+00  6.41424960E-01
  6.41424960E-01 -1.19283176E+01  7.79003325E+00  1.08841798E+01 -1.03484442E+01
 -6.33953817E+00  5.00566581E+00 -2.46729942E+00  2.20854276E+00 -7.54403220E-01
  1.47600630E+00  1.47600630E+00 -2.18667600E-02 -2.75703399E+00  7.04474118E+00
 -3.09779100E-01  4.88539863E+00 -3.13059114E+00  7.12674153E+00 -2.07916443E+00
  4.22210691E+00  1.33769904E+01 -1.07402236E+01 -7.57501011E+00  4.95464337E+00
 -9.43915140E-01  1.68009606E+00 -2.00809746E+00  8.32759110E-01  8.32759110E-01
  6.43429413E+00 -6.57825030E-01 -7.50940983E+00  1.82223000E+00  1.82223000E+00
  1.82223000E+00 -7.50940983E+00  1.82223000E+00  1.82223000E+00  1.82223000E+00
  1.08841798E+01 -1.03484442E+01 -7.57501011E+00  4.95464337E+00 -1.59445125E+00
  1.76574087E+00  5.43935655E+00 -5.41202310E-01 -5.81655816E+00  1.44138393E+00
  1.44138393E+00  1.44138393E+00 -5.81655816E+00  1.44138393E+00  1.44138393E+00
  1.44138393E+00  1.08841798E+01 -1.03484442E+01 -9.40817349E+00  5.35006728E+00
  7.23425310E-01  2.01356415E+00  1.02044880E+00 -3.15245790E-01 -3.15245790E-01
  2.47823280E-01 -7.74447750E-01 -7.74447750E-01  1.46762404E+01 -1.49204192E+01
 -1.49204192E+01  0.00000000E+00  9.77808618E+00 -1.06035564E+01  0.00000000E+00
  0.00000000E+00  0.00000000E+00 -7.57501011E+00  4.95464337E+00  6.14091510E-01
  1.49969529E+00 -3.32556975E+00  1.09880469E+00  1.09880469E+00  1.09880469E+00
  1.08841798E+01 -1.03484442E+01 -7.57501011E+00  4.95464337E+00 -9.43915140E-01
  1.68009606E+00 -2.00809746E+00  8.32759110E-01  8.32759110E-01  6.43429413E+00
 -6.57825030E-01 -7.50940983E+00  1.82223000E+00  1.82223000E+00  1.82223000E+00
 -7.50940983E+00  1.82223000E+00  1.82223000E+00  1.82223000E+00  1.08841798E+01
 -1.03484442E+01 -7.57501011E+00  4.95464337E+00 -2.55112200E-02  1.59627348E+00
 -2.76978960E-01  5.37557850E-01  5.37557850E-01 -2.00445300E-02 -3.47317038E+00
  3.09596877E+00 -4.26584043E+00  3.01761288E+00  5.87851398E+00 -1.01662212E+01
  7.27434216E+00 -4.26584043E+00  3.01761288E+00 -3.47317038E+00  3.09596877E+00
  1.08841798E+01 -1.03484442E+01 -7.57501011E+00  4.95464337E+00 -9.43915140E-01
  1.68009606E+00 -2.00809746E+00  8.32759110E-01  8.32759110E-01  6.43429413E+00
 -6.57825030E-01 -7.50940983E+00  1.82223000E+00  1.82223000E+00  1.82223000E+00
 -7.50940983E+00  1.82223000E+00  1.82223000E+00  1.82223000E+00  1.08841798E+01
 -1.03484442E+01 -7.57501011E+00  4.95464337E+00 -1.59445125E+00  1.76574087E+00
  5.43935655E+00 -5.41202310E-01 -5.81655816E+00  1.44138393E+00  1.44138393E+00
  1.44138393E+00 -5.81655816E+00  1.44138393E+00  1.44138393E+00  1.44138393E+00
  1.08841798E+01 -1.03484442E+01 -7.57501011E+00  4.95464337E+00  7.81736670E-01
  1.39582818E+00 -1.43956170E+00  1.65822930E+00  1.65822930E+00 -1.96983063E+00
  1.08841798E+01 -1.03484442E+01 -7.57501011E+00  4.95464337E+00 -4.59201960E-01
  1.27191654E+00  1.27191654E+00  1.08841798E+01 -1.03484442E+01 -9.40817349E+00
  5.35006728E+00  7.23425310E-01  2.01356415E+00  1.02044880E+00 -3.15245790E-01
 -3.15245790E-01  2.47823280E-01 -7.74447750E-01 -7.74447750E-01  1.46762404E+01
 -1.49204192E+01 -1.49204192E+01  0.00000000E+00  9.77808618E+00 -1.06035564E+01
  0.00000000E+00  0.00000000E+00  0.00000000E+00 -6.33953817E+00  5.00566581E+00
 -4.80522051E+00  2.84267880E+00 -1.27556100E-02  5.95869210E-01  5.95869210E-01
  7.10669700E-01  5.19335550E-01  5.19335550E-01  8.85603780E-01  1.25187201E+00
  1.25187201E+00 -9.64870785E+00  6.29762688E+00  1.47163295E+01 -1.57203782E+01
  8.15994594E+00  8.15994594E+00 -1.57203782E+01  8.15994594E+00  8.15994594E+00
  1.33769904E+01 -1.07402236E+01 -7.57501011E+00  4.95464337E+00 -4.59201960E-01
  1.27191654E+00  1.27191654E+00  1.08841798E+01 -1.03484442E+01 -7.57501011E+00
  4.95464337E+00 -4.37335200E-02  1.78214094E+00 -6.25024890E-01  5.37557850E-01
  5.37557850E-01  2.15023140E-01 -2.28872088E+00  2.42356590E+00 -3.10507992E+00
  2.60578890E+00 -1.95343056E+00  2.36343231E+00 -3.10507992E+00  2.60578890E+00
 -2.28872088E+00  2.42356590E+00  1.08841798E+01 -1.03484442E+01 -7.57501011E+00
  4.95464337E+00 -4.37335200E-02  1.78214094E+00 -6.25024890E-01  5.37557850E-01
  5.37557850E-01  2.15023140E-01 -2.28872088E+00  2.42356590E+00 -3.10507992E+00
  2.60578890E+00 -1.95343056E+00  2.36343231E+00 -3.10507992E+00  2.60578890E+00
 -2.28872088E+00  2.42356590E+00  1.08841798E+01 -1.03484442E+01 -7.57501011E+00
  4.95464337E+00 -2.55112200E-02  1.59627348E+00 -2.76978960E-01  5.37557850E-01
  5.37557850E-01 -2.00445300E-02 -3.47317038E+00  3.09596877E+00 -4.26584043E+00
  3.01761288E+00  5.87851398E+00 -1.01662212E+01  7.27434216E+00 -4.26584043E+00
  3.01761288E+00 -3.47317038E+00  3.09596877E+00  1.08841798E+01 -1.03484442E+01
 -7.57501011E+00  4.95464337E+00 -7.08847470E-01  1.83498561E+00  6.65842842E+00
  7.83558900E-02 -4.44259674E+00  1.16987166E+00  1.16987166E+00  1.16987166E+00
 -1.23200970E+01  7.47478746E+00  1.08841798E+01 -1.03484442E+01 -7.57501011E+00
  4.95464337E+00 -2.71512270E+00  1.77849648E+00  1.77849648E+00  1.77849648E+00
 -1.51973982E+01  7.59869910E+00  7.59869910E+00 -1.51973982E+01  7.59869910E+00
  7.59869910E+00 -1.51973982E+01  7.59869910E+00  7.59869910E+00 -1.51973982E+01
  7.59869910E+00  7.59869910E+00 -1.51973982E+01  7.59869910E+00  7.59869910E+00
 -1.51973982E+01  7.59869910E+00  7.59869910E+00 -1.51973982E+01  7.59869910E+00
  7.59869910E+00 -1.51973982E+01  7.59869910E+00  7.59869910E+00 -1.51973982E+01
  7.59869910E+00  7.59869910E+00 -1.51973982E+01  7.59869910E+00  7.59869910E+00
 -1.51973982E+01  7.59869910E+00  7.59869910E+00 -1.51973982E+01  7.59869910E+00
  7.59869910E+00 -1.51973982E+01  7.59869910E+00  7.59869910E+00 -1.51973982E+01
  7.59869910E+00  7.59869910E+00 -1.51973982E+01  7.59869910E+00  7.59869910E+00
 -1.51973982E+01  7.59869910E+00  7.59869910E+00 -1.51973982E+01  7.59869910E+00
  7.59869910E+00 -1.51973982E+01  7.59869910E+00  7.59869910E+00 -1.51973982E+01
  7.59869910E+00  7.59869910E+00 -1.51973982E+01  7.59869910E+00  7.59869910E+00
 -1.51973982E+01  7.59869910E+00  7.59869910E+00 -1.51973982E+01  7.59869910E+00
  7.59869910E+00 -1.51973982E+01  7.59869910E+00  7.59869910E+00 -1.51973982E+01
  7.59869910E+00  7.59869910E+00 -1.51973982E+01  7.59869910E+00  7.59869910E+00
 -1.51973982E+01  7.59869910E+00  7.59869910E+00 -1.51973982E+01  7.59869910E+00
  7.59869910E+00 -1.51973982E+01  7.59869910E+00  7.59869910E+00 -1.51973982E+01
  7.59869910E+00  7.59869910E+00 -1.51973982E+01  7.59869910E+00  7.59869910E+00
 -1.51973982E+01  7.59869910E+00  7.59869910E+00 -1.51973982E+01  7.59869910E+00
  7.59869910E+00 -1.51973982E+01  7.59869910E+00  7.59869910E+00 -1.51973982E+01
  7.59869910E+00  7.59869910E+00 -1.51973982E+01  7.59869910E+00  7.59869910E+00
 -1.51973982E+01  7.59869910E+00  7.59869910E+00 -1.51973982E+01  7.59869910E+00
  7.59869910E+00 -1.51973982E+01  7.59869910E+00  7.59869910E+00 -1.51973982E+01
  7.59869910E+00  7.59869910E+00 -1.51973982E+01  7.59869910E+00  7.59869910E+00
 -1.51973982E+01  7.59869910E+00  7.59869910E+00 -1.51973982E+01  7.59869910E+00
  7.59869910E+00 -1.51973982E+01  7.59869910E+00  7.59869910E+00 -1.51973982E+01
  7.59869910E+00  7.59869910E+00 -1.51973982E+01  7.59869910E+00  7.59869910E+00
 -1.51973982E+01  7.59869910E+00  7.59869910E+00 -1.51973982E+01  7.59869910E+00
  7.59869910E+00 -1.51973982E+01  7.59869910E+00  7.59869910E+00 -1.51973982E+01
  7.59869910E+00  7.59869910E+00 -1.51973982E+01  7.59869910E+00  7.59869910E+00
 -1.51973982E+01  7.59869910E+00  7.59869910E+00 -1.51973982E+01  7.59869910E+00
  7.59869910E+00 -1.51973982E+01  7.59869910E+00  7.59869910E+00 -1.51973982E+01
  7.59869910E+00  7.59869910E+00 -1.51973982E+01  7.59869910E+00  7.59869910E+00
 -1.51973982E+01  7.59869910E+00  7.59869910E+00 -1.51973982E+01  7.59869910E+00
  7.59869910E+00 -1.51973982E+01  7.59869910E+00  7.59869910E+00 -1.51973982E+01
  7.59869910E+00  7.59869910E+00 -1.51973982E+01  7.59869910E+00  7.59869910E+00
 -1.51973982E+01  7.59869910E+00  7.59869910E+00 -1.51973982E+01  7.59869910E+00
  7.59869910E+00 -1.51973982E+01  7.59869910E+00  7.59869910E+00 -1.51973982E+01
  7.59869910E+00  7.59869910E+00 -1.51973982E+01  7.59869910E+00  7.59869910E+00
 -1.51973982E+01  7.59869910E+00  7.59869910E+00 -1.51973982E+01  7.59869910E+00
  7.59869910E+00 -1.51973982E+01  7.59869910E+00  7.59869910E+00 -1.51973982E+01
  7.59869910E+00  7.59869910E+00 -1.51973982E+01  7.59869910E+00  7.59869910E+00
 -1.51973982E+01  7.59869910E+00  7.59869910E+00 -1.51973982E+01  7.59869910E+00
  7.59869910E+00 -1.51973982E+01  7.59869910E+00  7.59869910E+00 -1.51973982E+01
  7.59869910E+00  7.59869910E+00 -1.51973982E+01  7.59869910E+00  7.59869910E+00
 -1.51973982E+01  7.59869910E+00  7.59869910E+00 -1.51973982E+01  7.59869910E+00
  7.59869910E+00 -1.51973982E+01  7.59869910E+00  7.59869910E+00 -1.51973982E+01
  7.59869910E+00  7.59869910E+00 -1.51973982E+01  7.59869910E+00  7.59869910E+00
 -1.51973982E+01  7.59869910E+00  7.59869910E+00 -1.51973982E+01  7.59869910E+00
  7.59869910E+00 -1.51973982E+01  7.59869910E+00  7.59869910E+00 -1.51973982E+01
  7.59869910E+00  7.59869910E+00 -1.51973982E+01  7.59869910E+00  7.59869910E+00
 -1.51973982E+01  7.59869910E+00  7.59869910E+00 -1.51973982E+01  7.59869910E+00
  7.59869910E+00 -1.51973982E+01  7.59869910E+00  7.59869910E+00 -1.51973982E+01
  7.59869910E+00  7.59869910E+00 -1.51973982E+01  7.59869910E+00  7.59869910E+00
 -1.51973982E+01  7.59869910E+00  7.59869910E+00 -1.51973982E+01  7.59869910E+00
  7.59869910E+00 -1.51973982E+01  7.59869910E+00  7.59869910E+00 -1.51973982E+01
  7.59869910E+00  7.59869910E+00 -1.51973982E+01  7.59869910E+00  7.59869910E+00
 -1.51973982E+01  7.59869910E+00  7.59869910E+00 -1.51973982E+01  7.59869910E+00
  7.59869910E+00 -1.51973982E+01  7.59869910E+00  7.59869910E+00 -1.51973982E+01
  7.59869910E+00  7.59869910E+00 -1.51973982E+01  7.59869910E+00  7.59869910E+00
 -1.51973982E+01  7.59869910E+00  7.59869910E+00 -1.51973982E+01  7.59869910E+00
  7.59869910E+00 -1.51973982E+01  7.59869910E+00  7.59869910E+00 -1.51973982E+01
  7.59869910E+00  7.59869910E+00 -1.51973982E+01  7.59869910E+00  7.59869910E+00
 -1.51973982E+01  7.59869910E+00  7.59869910E+00 -1.51973982E+01  7.59869910E+00
  7.59869910E+00 -1.51973982E+01  7.59869910E+00  7.59869910E+00 -1.51973982E+01
  7.59869910E+00  7.59869910E+00 -1.51973982E+01  7.59869910E+00  7.59869910E+00
 -1.51973982E+01  7.59869910E+00  7.59869910E+00 -1.51973982E+01  7.59869910E+00
  7.59869910E+00 -1.51973982E+01  7.59869910E+00  7.59869910E+00 -1.51973982E+01
  7.59869910E+00  7.59869910E+00 -1.51973982E+01  7.59869910E+00  7.59869910E+00
 -1.51973982E+01  7.59869910E+00  7.59869910E+00 -1.51973982E+01  7.59869910E+00
  7.59869910E+00 -1.51973982E+01  7.59869910E+00  7.59869910E+00 -1.51973982E+01
  7.59869910E+00  7.59869910E+00 -1.51973982E+01  7.59869910E+00  7.59869910E+00
 -1.51973982E+01  7.59869910E+00  7.59869910E+00 -1.51973982E+01  7.59869910E+00
  7.59869910E+00 -1.51973982E+01  7.59869910E+00  7.59869910E+00 -1.51973982E+01
  7.59869910E+00  7.59869910E+00 -1.51973982E+01  7.59869910E+00  7.59869910E+00
 -1.51973982E+01  7.59869910E+00  7.59869910E+00 -1.51973982E+01  7.59869910E+00
  7.59869910E+00 -1.51973982E+01  7.59869910E+00  7.59869910E+00 -1.51973982E+01
  7.59869910E+00  7.59869910E+00 -1.51973982E+01  7.59869910E+00  7.59869910E+00
 -1.51973982E+01  7.59869910E+00  7.59869910E+00 -1.51973982E+01  7.59869910E+00
  7.59869910E+00 -1.51973982E+01  7.59869910E+00  7.59869910E+00 -1.51973982E+01
  7.59869910E+00  7.59869910E+00 -1.51973982E+01  7.59869910E+00  7.59869910E+00
 -1.51973982E+01  7.59869910E+00  7.59869910E+00 -1.51973982E+01  7.59869910E+00
  7.59869910E+00 -1.51973982E+01  7.59869910E+00  7.59869910E+00 -1.51973982E+01
  7.59869910E+00  7.59869910E+00 -1.51973982E+01  7.59869910E+00  7.59869910E+00
 -1.51973982E+01  7.59869910E+00  7.59869910E+00 -1.51973982E+01  7.59869910E+00
  7.59869910E+00 -1.51973982E+01  7.59869910E+00  7.59869910E+00 -1.51973982E+01
  7.59869910E+00  7.59869910E+00 -1.51973982E+01  7.59869910E+00  7.59869910E+00
 -1.51973982E+01  7.59869910E+00  7.59869910E+00 -1.51973982E+01  7.59869910E+00
  7.59869910E+00 -1.51973982E+01  7.59869910E+00  7.59869910E+00 -1.51973982E+01
  7.59869910E+00  7.59869910E+00 -1.51973982E+01  7.59869910E+00  7.59869910E+00
 -1.51973982E+01  7.59869910E+00  7.59869910E+00 -1.51973982E+01  7.59869910E+00
  7.59869910E+00 -1.51973982E+01  7.59869910E+00  7.59869910E+00 -1.51973982E+01
  7.59869910E+00  7.59869910E+00 -1.51973982E+01  7.59869910E+00  7.59869910E+00
 -1.51973982E+01  7.59869910E+00  7.59869910E+00 -1.51973982E+01  7.59869910E+00
  7.59869910E+00 -1.51973982E+01  7.59869910E+00  7.59869910E+00 -1.51973982E+01
  7.59869910E+00  7.59869910E+00 -1.51973982E+01  7.59869910E+00  7.59869910E+00
 -1.51973982E+01  7.59869910E+00  7.59869910E+00 -1.51973982E+01  7.59869910E+00
  7.59869910E+00 -1.51973982E+01  7.59869910E+00  7.59869910E+00 -1.51973982E+01
  7.59869910E+00  7.59869910E+00 -1.51973982E+01  7.59869910E+00  7.59869910E+00
 -1.51973982E+01  7.59869910E+00  7.59869910E+00 -1.51973982E+01  7.59869910E+00
  7.59869910E+00 -1.51973982E+01  7.59869910E+00  7.59869910E+00 -1.51973982E+01
  7.59869910E+00  7.59869910E+00 -1.51973982E+01  7.59869910E+00  7.59869910E+00
 -1.51973982E+01  7.59869910E+00  7.59869910E+00 -1.51973982E+01  7.59869910E+00
  7.59869910E+00 -1.51973982E+01  7.59869910E+00  7.59869910E+00 -1.51973982E+01
  7.59869910E+00  7.59869910E+00 -1.51973982E+01  7.59869910E+00  7.59869910E+00
 -1.51973982E+01  7.59869910E+00  7.59869910E+00 -1.51973982E+01  7.59869910E+00
  7.59869910E+00 -1.51973982E+01  7.59869910E+00  7.59869910E+00 -1.51973982E+01
  7.59869910E+00  7.59869910E+00 -1.51973982E+01  7.59869910E+00  7.59869910E+00
 -1.51973982E+01  7.59869910E+00  7.59869910E+00 -1.51973982E+01  7.59869910E+00
  7.59869910E+00 -1.51973982E+01  7.59869910E+00  7.59869910E+00 -1.51973982E+01
  7.59869910E+00  7.59869910E+00 -1.51973982E+01  7.59869910E+00  7.59869910E+00
 -1.51973982E+01  7.59869910E+00  7.59869910E+00 -1.51973982E+01  7.59869910E+00
  7.59869910E+00 -1.51973982E+01  7.59869910E+00  7.59869910E+00 -1.51973982E+01
  7.59869910E+00  7.59869910E+00 -1.51973982E+01  7.59869910E+00  7.59869910E+00
 -1.51973982E+01  7.59869910E+00  7.59869910E+00 -1.51973982E+01  7.59869910E+00
  7.59869910E+00 -1.51973982E+01  7.59869910E+00  7.59869910E+00 -1.51973982E+01
  7.59869910E+00  7.59869910E+00 -1.51973982E+01  7.59869910E+00  7.59869910E+00
 -1.51973982E+01  7.59869910E+00  7.59869910E+00 -1.51973982E+01  7.59869910E+00
  7.59869910E+00 -1.51973982E+01  7.59869910E+00  7.59869910E+00 -1.51973982E+01
  7.59869910E+00  7.59869910E+00 -1.51973982E+01  7.59869910E+00  7.59869910E+00
 -1.51973982E+01  7.59869910E+00  7.59869910E+00 -1.51973982E+01  7.59869910E+00
  7.59869910E+00 -1.51973982E+01  7.59869910E+00  7.59869910E+00 -1.51973982E+01
  7.59869910E+00  7.59869910E+00 -1.51973982E+01  7.59869910E+00  7.59869910E+00
 -1.51973982E+01  7.59869910E+00  7.59869910E+00 -1.51973982E+01  7.59869910E+00
  7.59869910E+00 -1.51973982E+01  7.59869910E+00  7.59869910E+00 -1.51973982E+01
  7.59869910E+00  7.59869910E+00 -1.51973982E+01  7.59869910E+00  7.59869910E+00
 -1.51973982E+01  7.59869910E+00  7.59869910E+00 -1.51973982E+01  7.59869910E+00
  7.59869910E+00 -1.51973982E+01  7.59869910E+00  7.59869910E+00 -1.51973982E+01
  7.59869910E+00  7.59869910E+00 -1.51973982E+01  7.59869910E+00  7.59869910E+00
 -1.51973982E+01  7.59869910E+00  7.59869910E+00 -1.51973982E+01  7.59869910E+00
  7.59869910E+00 -1.51973982E+01  7.59869910E+00  7.59869910E+00 -1.51973982E+01
  7.59869910E+00  7.59869910E+00 -1.51973982E+01  7.59869910E+00  7.59869910E+00
 -1.51973982E+01  7.59869910E+00  7.59869910E+00 -1.51973982E+01  7.59869910E+00
  7.59869910E+00 -1.51973982E+01  7.59869910E+00  7.59869910E+00 -1.51973982E+01
  7.59869910E+00  7.59869910E+00 -1.51973982E+01  7.59869910E+00  7.59869910E+00
 -1.51973982E+01  7.59869910E+00  7.59869910E+00 -1.51973982E+01  7.59869910E+00
  7.59869910E+00 -1.51973982E+01  7.59869910E+00  7.59869910E+00 -1.51973982E+01
  7.59869910E+00  7.59869910E+00 -1.51973982E+01  7.59869910E+00  7.59869910E+00
 -1.51973982E+01  7.59869910E+00  7.59869910E+00 -1.51973982E+01  7.59869910E+00
  7.59869910E+00 -1.51973982E+01  7.59869910E+00  7.59869910E+00 -1.51973982E+01
  7.59869910E+00  7.59869910E+00 -1.51973982E+01  7.59869910E+00  7.59869910E+00
 -1.51973982E+01  7.59869910E+00  7.59869910E+00 -1.51973982E+01  7.59869910E+00
  7.59869910E+00 -1.51973982E+01  7.59869910E+00  7.59869910E+00 -1.51973982E+01
  7.59869910E+00  7.59869910E+00 -1.51973982E+01  7.59869910E+00  7.59869910E+00
 -1.51973982E+01  7.59869910E+00  7.59869910E+00 -1.51973982E+01  7.59869910E+00
  7.59869910E+00 -1.51973982E+01  7.59869910E+00  7.59869910E+00 -1.51973982E+01
  7.59869910E+00  7.59869910E+00 -1.51973982E+01  7.59869910E+00  7.59869910E+00
 -1.51973982E+01  7.59869910E+00  7.59869910E+00 -1.51973982E+01  7.59869910E+00
  7.59869910E+00 -1.51973982E+01  7.59869910E+00  7.59869910E+00 -1.51973982E+01
  7.59869910E+00  7.59869910E+00 -1.51973982E+01  7.59869910E+00  7.59869910E+00
 -1.51973982E+01  7.59869910E+00  7.59869910E+00 -1.51973982E+01  7.59869910E+00
  7.59869910E+00 -1.51973982E+01  7.59869910E+00  7.59869910E+00 -1.51973982E+01
  7.59869910E+00  7.59869910E+00 -1.51973982E+01  7.59869910E+00  7.59869910E+00
 -1.51973982E+01  7.59869910E+00  7.59869910E+00 -1.51973982E+01  7.59869910E+00
  7.59869910E+00 -1.51973982E+01  7.59869910E+00  7.59869910E+00 -1.51973982E+01
  7.59869910E+00  7.59869910E+00 -1.51973982E+01  7.59869910E+00  7.59869910E+00
 -1.51973982E+01  7.59869910E+00  7.59869910E+00 -1.51973982E+01  7.59869910E+00
  7.59869910E+00 -1.51973982E+01  7.59869910E+00  7.59869910E+00 -1.51973982E+01
  7.59869910E+00  7.59869910E+00 -1.51973982E+01  7.59869910E+00  7.59869910E+00
 -1.51973982E+01  7.59869910E+00  7.59869910E+00 -1.51973982E+01  7.59869910E+00
  7.59869910E+00 -1.51973982E+01  7.59869910E+00  7.59869910E+00 -1.51973982E+01
  7.59869910E+00  7.59869910E+00 -1.51973982E+01  7.59869910E+00  7.59869910E+00
 -1.51973982E+01  7.59869910E+00  7.59869910E+00 -1.51973982E+01  7.59869910E+00
  7.59869910E+00 -1.51973982E+01  7.59869910E+00  7.59869910E+00 -1.51973982E+01
  7.59869910E+00  7.59869910E+00 -1.51973982E+01  7.59869910E+00  7.59869910E+00
 -1.51973982E+01  7.59869910E+00  7.59869910E+00 -1.51973982E+01  7.59869910E+00
  7.59869910E+00 -1.51973982E+01  7.59869910E+00  7.59869910E+00 -1.51973982E+01
  7.59869910E+00  7.59869910E+00 -1.51973982E+01  7.59869910E+00  7.59869910E+00
 -1.51973982E+01  7.59869910E+00  7.59869910E+00 -1.51973982E+01  7.59869910E+00
  7.59869910E+00 -1.51973982E+01  7.59869910E+00  7.59869910E+00 -1.51973982E+01
  7.59869910E+00  7.59869910E+00 -1.51973982E+01  7.59869910E+00  7.59869910E+00
 -1.51973982E+01  7.59869910E+00  7.59869910E+00 -1.51973982E+01  7.59869910E+00
  7.59869910E+00 -1.51973982E+01  7.59869910E+00  7.59869910E+00 -1.51973982E+01
  7.59869910E+00  7.59869910E+00 -1.51973982E+01  7.59869910E+00  7.59869910E+00
 -1.51973982E+01  7.59869910E+00  7.59869910E+00 -1.51973982E+01  7.59869910E+00
  7.59869910E+00 -1.51973982E+01  7.59869910E+00  7.59869910E+00 -1.51973982E+01
  7.59869910E+00  7.59869910E+00 -1.51973982E+01  7.59869910E+00  7.59869910E+00
 -1.51973982E+01  7.59869910E+00  7.59869910E+00 -1.51973982E+01  7.59869910E+00
  7.59869910E+00 -1.51973982E+01  7.59869910E+00  7.59869910E+00 -1.51973982E+01
  7.59869910E+00  7.59869910E+00 -1.51973982E+01  7.59869910E+00  7.59869910E+00
 -1.51973982E+01  7.59869910E+00  7.59869910E+00 -1.51973982E+01  7.59869910E+00
  7.59869910E+00 -1.51973982E+01  7.59869910E+00  7.59869910E+00 -1.51973982E+01
  7.59869910E+00  7.59869910E+00 -1.51973982E+01  7.59869910E+00  7.59869910E+00
 -1.51973982E+01  7.59869910E+00  7.59869910E+00 -1.51973982E+01  7.59869910E+00
  7.59869910E+00 -1.51973982E+01  7.59869910E+00  7.59869910E+00 -1.51973982E+01
  7.59869910E+00  7.59869910E+00 -1.51973982E+01  7.59869910E+00  7.59869910E+00
 -1.51973982E+01  7.59869910E+00  7.59869910E+00 -1.51973982E+01  7.59869910E+00
  7.59869910E+00 -1.51973982E+01  7.59869910E+00  7.59869910E+00 -1.51973982E+01
  7.59869910E+00  7.59869910E+00 -1.51973982E+01  7.59869910E+00  7.59869910E+00
 -1.51973982E+01  7.59869910E+00  7.59869910E+00 -1.51973982E+01  7.59869910E+00
  7.59869910E+00 -1.51973982E+01  7.59869910E+00  7.59869910E+00 -1.51973982E+01
  7.59869910E+00  7.59869910E+00 -1.51973982E+01  7.59869910E+00  7.59869910E+00
 -1.51973982E+01  7.59869910E+00  7.59869910E+00 -1.51973982E+01  7.59869910E+00
  7.59869910E+00 -1.51973982E+01  7.59869910E+00  7.59869910E+00 -1.51973982E+01
  7.59869910E+00  7.59869910E+00 -1.51973982E+01  7.59869910E+00  7.59869910E+00
 -1.51973982E+01  7.59869910E+00  7.59869910E+00 -1.51973982E+01  7.59869910E+00
  7.59869910E+00 -1.51973982E+01  7.59869910E+00  7.59869910E+00 -1.51973982E+01
  7.59869910E+00  7.59869910E+00 -1.51973982E+01  7.59869910E+00  7.59869910E+00
 -1.51973982E+01  7.59869910E+00  7.59869910E+00 -1.51973982E+01  7.59869910E+00
  7.59869910E+00 -1.51973982E+01  7.59869910E+00  7.59869910E+00 -1.51973982E+01
  7.59869910E+00  7.59869910E+00 -1.51973982E+01  7.59869910E+00  7.59869910E+00
 -1.51973982E+01  7.59869910E+00  7.59869910E+00 -1.51973982E+01  7.59869910E+00
  7.59869910E+00 -1.51973982E+01  7.59869910E+00  7.59869910E+00 -1.51973982E+01
  7.59869910E+00  7.59869910E+00 -1.51973982E+01  7.59869910E+00  7.59869910E+00
 -1.51973982E+01  7.59869910E+00  7.59869910E+00 -1.51973982E+01  7.59869910E+00
  7.59869910E+00 -1.51973982E+01  7.59869910E+00  7.59869910E+00 -1.51973982E+01
  7.59869910E+00  7.59869910E+00 -1.51973982E+01  7.59869910E+00  7.59869910E+00
 -1.51973982E+01  7.59869910E+00  7.59869910E+00 -1.51973982E+01  7.59869910E+00
  7.59869910E+00 -1.51973982E+01  7.59869910E+00  7.59869910E+00 -1.51973982E+01
  7.59869910E+00  7.59869910E+00 -1.51973982E+01  7.59869910E+00  7.59869910E+00
 -1.51973982E+01  7.59869910E+00  7.59869910E+00 -1.51973982E+01  7.59869910E+00
  7.59869910E+00 -1.51973982E+01  7.59869910E+00  7.59869910E+00 -1.51973982E+01
  7.59869910E+00  7.59869910E+00 -1.51973982E+01  7.59869910E+00  7.59869910E+00
 -1.51973982E+01  7.59869910E+00  7.59869910E+00 -1.51973982E+01  7.59869910E+00
  7.59869910E+00 -1.51973982E+01  7.59869910E+00  7.59869910E+00 -1.51973982E+01
  7.59869910E+00  7.59869910E+00 -1.51973982E+01  7.59869910E+00  7.59869910E+00
 -1.51973982E+01  7.59869910E+00  7.59869910E+00 -1.51973982E+01  7.59869910E+00
  7.59869910E+00 -1.51973982E+01  7.59869910E+00  7.59869910E+00 -1.51973982E+01
  7.59869910E+00  7.59869910E+00 -1.51973982E+01  7.59869910E+00  7.59869910E+00
 -1.51973982E+01  7.59869910E+00  7.59869910E+00 -1.51973982E+01  7.59869910E+00
  7.59869910E+00 -1.51973982E+01  7.59869910E+00  7.59869910E+00 -1.51973982E+01
  7.59869910E+00  7.59869910E+00 -1.51973982E+01  7.59869910E+00  7.59869910E+00
 -1.51973982E+01  7.59869910E+00  7.59869910E+00 -1.51973982E+01  7.59869910E+00
  7.59869910E+00 -1.51973982E+01  7.59869910E+00  7.59869910E+00 -1.51973982E+01
  7.59869910E+00  7.59869910E+00 -1.51973982E+01  7.59869910E+00  7.59869910E+00
 -1.51973982E+01  7.59869910E+00  7.59869910E+00 -1.51973982E+01  7.59869910E+00
  7.59869910E+00 -1.51973982E+01  7.59869910E+00  7.59869910E+00 -1.51973982E+01
  7.59869910E+00  7.59869910E+00 -1.51973982E+01  7.59869910E+00  7.59869910E+00
 -1.51973982E+01  7.59869910E+00  7.59869910E+00 -1.51973982E+01  7.59869910E+00
  7.59869910E+00 -1.51973982E+01  7.59869910E+00  7.59869910E+00 -1.51973982E+01
  7.59869910E+00  7.59869910E+00 -1.51973982E+01  7.59869910E+00  7.59869910E+00
 -1.51973982E+01  7.59869910E+00  7.59869910E+00 -1.51973982E+01  7.59869910E+00
  7.59869910E+00 -1.51973982E+01  7.59869910E+00  7.59869910E+00 -1.51973982E+01
  7.59869910E+00  7.59869910E+00 -1.51973982E+01  7.59869910E+00  7.59869910E+00
 -1.51973982E+01  7.59869910E+00  7.59869910E+00 -1.51973982E+01  7.59869910E+00
  7.59869910E+00 -1.51973982E+01  7.59869910E+00  7.59869910E+00 -1.51973982E+01
  7.59869910E+00  7.59869910E+00 -1.51973982E+01  7.59869910E+00  7.59869910E+00
 -1.51973982E+01  7.59869910E+00  7.59869910E+00 -1.51973982E+01  7.59869910E+00
  7.59869910E+00 -1.51973982E+01  7.59869910E+00  7.59869910E+00 -1.51973982E+01
  7.59869910E+00  7.59869910E+00 -1.51973982E+01  7.59869910E+00  7.59869910E+00
 -1.51973982E+01  7.59869910E+00  7.59869910E+00 -1.51973982E+01  7.59869910E+00
  7.59869910E+00 -1.51973982E+01  7.59869910E+00  7.59869910E+00 -1.51973982E+01
  7.59869910E+00  7.59869910E+00 -1.51973982E+01  7.59869910E+00  7.59869910E+00
 -1.51973982E+01  7.59869910E+00  7.59869910E+00 -1.51973982E+01  7.59869910E+00
  7.59869910E+00 -1.51973982E+01  7.59869910E+00  7.59869910E+00 -1.51973982E+01
  7.59869910E+00  7.59869910E+00 -1.51973982E+01  7.59869910E+00  7.59869910E+00
 -1.51973982E+01  7.59869910E+00  7.59869910E+00 -1.51973982E+01  7.59869910E+00
  7.59869910E+00 -1.51973982E+01  7.59869910E+00  7.59869910E+00 -1.51973982E+01
  7.59869910E+00  7.59869910E+00 -1.51973982E+01  7.59869910E+00  7.59869910E+00
 -1.51973982E+01  7.59869910E+00  7.59869910E+00 -1.51973982E+01  7.59869910E+00
  7.59869910E+00 -1.51973982E+01  7.59869910E+00  7.59869910E+00 -1.51973982E+01
  7.59869910E+00  7.59869910E+00 -1.51973982E+01  7.59869910E+00  7.59869910E+00
 -1.51973982E+01  7.59869910E+00  7.59869910E+00 -1.51973982E+01  7.59869910E+00
  7.59869910E+00 -1.51973982E+01  7.59869910E+00  7.59869910E+00 -1.51973982E+01
  7.59869910E+00  7.59869910E+00 -1.51973982E+01  7.59869910E+00  7.59869910E+00
 -1.51973982E+01  7.59869910E+00  7.59869910E+00 -1.51973982E+01  7.59869910E+00
  7.59869910E+00 -1.51973982E+01  7.59869910E+00  7.59869910E+00 -1.51973982E+01
  7.59869910E+00  7.59869910E+00 -1.51973982E+01  7.59869910E+00  7.59869910E+00
 -1.51973982E+01  7.59869910E+00  7.59869910E+00 -1.51973982E+01  7.59869910E+00
  7.59869910E+00 -1.51973982E+01  7.59869910E+00  7.59869910E+00 -1.51973982E+01
  7.59869910E+00  7.59869910E+00 -1.51973982E+01  7.59869910E+00  7.59869910E+00
 -1.51973982E+01  7.59869910E+00  7.59869910E+00 -1.51973982E+01  7.59869910E+00
  7.59869910E+00 -1.51973982E+01  7.59869910E+00  7.59869910E+00 -1.51973982E+01
  7.59869910E+00  7.59869910E+00 -1.51973982E+01  7.59869910E+00  7.59869910E+00
 -1.51973982E+01  7.59869910E+00  7.59869910E+00 -1.51973982E+01  7.59869910E+00
  7.59869910E+00 -1.51973982E+01  7.59869910E+00  7.59869910E+00 -1.51973982E+01
  7.59869910E+00  7.59869910E+00 -1.51973982E+01  7.59869910E+00  7.59869910E+00
 -1.51973982E+01  7.59869910E+00  7.59869910E+00 -1.51973982E+01  7.59869910E+00
  7.59869910E+00 -1.51973982E+01  7.59869910E+00  7.59869910E+00 -1.51973982E+01
  7.59869910E+00  7.59869910E+00 -1.51973982E+01  7.59869910E+00  7.59869910E+00
 -1.51973982E+01  7.59869910E+00  7.59869910E+00 -1.51973982E+01  7.59869910E+00
  7.59869910E+00 -1.51973982E+01  7.59869910E+00  7.59869910E+00 -1.51973982E+01
  7.59869910E+00  7.59869910E+00 -1.51973982E+01  7.59869910E+00  7.59869910E+00
 -1.51973982E+01  7.59869910E+00  7.59869910E+00 -1.51973982E+01  7.59869910E+00
  7.59869910E+00 -1.51973982E+01  7.59869910E+00  7.59869910E+00 -1.51973982E+01
  7.59869910E+00  7.59869910E+00 -1.51973982E+01  7.59869910E+00  7.59869910E+00
 -1.51973982E+01  7.59869910E+00  7.59869910E+00 -1.51973982E+01  7.59869910E+00
  7.59869910E+00 -1.51973982E+01  7.59869910E+00  7.59869910E+00 -1.51973982E+01
  7.59869910E+00  7.59869910E+00 -1.51973982E+01  7.59869910E+00  7.59869910E+00
 -1.51973982E+01  7.59869910E+00  7.59869910E+00 -1.51973982E+01  7.59869910E+00
  7.59869910E+00 -1.51973982E+01  7.59869910E+00  7.59869910E+00 -1.51973982E+01
  7.59869910E+00  7.59869910E+00 -1.51973982E+01  7.59869910E+00  7.59869910E+00
 -1.51973982E+01  7.59869910E+00  7.59869910E+00 -1.51973982E+01  7.59869910E+00
  7.59869910E+00 -1.51973982E+01  7.59869910E+00  7.59869910E+00 -1.51973982E+01
  7.59869910E+00  7.59869910E+00 -1.51973982E+01  7.59869910E+00  7.59869910E+00
 -1.51973982E+01  7.59869910E+00  7.59869910E+00 -1.51973982E+01  7.59869910E+00
  7.59869910E+00 -1.51973982E+01  7.59869910E+00  7.59869910E+00 -1.51973982E+01
  7.59869910E+00  7.59869910E+00 -1.51973982E+01  7.59869910E+00  7.59869910E+00
 -1.51973982E+01  7.59869910E+00  7.59869910E+00 -1.51973982E+01  7.59869910E+00
  7.59869910E+00 -1.51973982E+01  7.59869910E+00  7.59869910E+00 -1.51973982E+01
  7.59869910E+00  7.59869910E+00 -1.51973982E+01  7.59869910E+00  7.59869910E+00
 -1.51973982E+01  7.59869910E+00  7.59869910E+00 -1.51973982E+01  7.59869910E+00
  7.59869910E+00 -1.51973982E+01  7.59869910E+00  7.59869910E+00 -1.51973982E+01
  7.59869910E+00  7.59869910E+00 -1.51973982E+01  7.59869910E+00  7.59869910E+00
 -1.51973982E+01  7.59869910E+00  7.59869910E+00 -1.51973982E+01  7.59869910E+00
  7.59869910E+00 -1.51973982E+01  7.59869910E+00  7.59869910E+00 -1.51973982E+01
  7.59869910E+00  7.59869910E+00 -1.51973982E+01  7.59869910E+00  7.59869910E+00
 -1.51973982E+01  7.59869910E+00  7.59869910E+00 -1.51973982E+01  7.59869910E+00
  7.59869910E+00 -1.51973982E+01  7.59869910E+00  7.59869910E+00 -1.51973982E+01
  7.59869910E+00  7.59869910E+00 -1.51973982E+01  7.59869910E+00  7.59869910E+00
 -1.51973982E+01  7.59869910E+00  7.59869910E+00 -1.51973982E+01  7.59869910E+00
  7.59869910E+00 -1.51973982E+01  7.59869910E+00  7.59869910E+00 -1.51973982E+01
  7.59869910E+00  7.59869910E+00 -1.51973982E+01  7.59869910E+00  7.59869910E+00
 -1.51973982E+01  7.59869910E+00  7.59869910E+00 -1.51973982E+01  7.59869910E+00
  7.59869910E+00 -1.51973982E+01  7.59869910E+00  7.59869910E+00 -1.51973982E+01
  7.59869910E+00  7.59869910E+00 -1.51973982E+01  7.59869910E+00  7.59869910E+00
 -1.51973982E+01  7.59869910E+00  7.59869910E+00 -1.51973982E+01  7.59869910E+00
  7.59869910E+00 -1.51973982E+01  7.59869910E+00  7.59869910E+00 -1.51973982E+01
  7.59869910E+00  7.59869910E+00 -1.51973982E+01  7.59869910E+00  7.59869910E+00
 -1.51973982E+01  7.59869910E+00  7.59869910E+00 -1.51973982E+01  7.59869910E+00
  7.59869910E+00 -1.51973982E+01  7.59869910E+00  7.59869910E+00 -1.51973982E+01
  7.59869910E+00  7.59869910E+00 -1.51973982E+01  7.59869910E+00  7.59869910E+00
 -1.51973982E+01  7.59869910E+00  7.59869910E+00 -1.51973982E+01  7.59869910E+00
  7.59869910E+00 -1.51973982E+01  7.59869910E+00  7.59869910E+00 -1.51973982E+01
  7.59869910E+00  7.59869910E+00 -1.51973982E+01  7.59869910E+00  7.59869910E+00
 -1.51973982E+01  7.59869910E+00  7.59869910E+00 -1.51973982E+01  7.59869910E+00
  7.59869910E+00 -1.51973982E+01  7.59869910E+00  7.59869910E+00 -1.51973982E+01
  7.59869910E+00  7.59869910E+00 -1.51973982E+01  7.59869910E+00  7.59869910E+00
 -1.51973982E+01  7.59869910E+00  7.59869910E+00 -1.51973982E+01  7.59869910E+00
  7.59869910E+00 -1.51973982E+01  7.59869910E+00  7.59869910E+00 -1.51973982E+01
  7.59869910E+00  7.59869910E+00 -1.51973982E+01  7.59869910E+00  7.59869910E+00
 -1.51973982E+01  7.59869910E+00  7.59869910E+00 -1.51973982E+01  7.59869910E+00
  7.59869910E+00 -1.51973982E+01  7.59869910E+00  7.59869910E+00 -1.51973982E+01
  7.59869910E+00  7.59869910E+00 -1.51973982E+01  7.59869910E+00  7.59869910E+00
 -1.51973982E+01  7.59869910E+00  7.59869910E+00 -1.51973982E+01  7.59869910E+00
  7.59869910E+00 -1.51973982E+01  7.59869910E+00  7.59869910E+00 -1.51973982E+01
  7.59869910E+00  7.59869910E+00 -1.51973982E+01  7.59869910E+00  7.59869910E+00
 -1.51973982E+01  7.59869910E+00  7.59869910E+00 -1.51973982E+01  7.59869910E+00
  7.59869910E+00 -1.51973982E+01  7.59869910E+00  7.59869910E+00 -1.51973982E+01
  7.59869910E+00  7.59869910E+00 -1.51973982E+01  7.59869910E+00  7.59869910E+00
 -1.51973982E+01  7.59869910E+00  7.59869910E+00 -1.51973982E+01  7.59869910E+00
  7.59869910E+00 -1.51973982E+01  7.59869910E+00  7.59869910E+00 -1.51973982E+01
  7.59869910E+00  7.59869910E+00 -1.51973982E+01  7.59869910E+00  7.59869910E+00
 -1.51973982E+01  7.59869910E+00  7.59869910E+00 -1.51973982E+01  7.59869910E+00
  7.59869910E+00 -1.51973982E+01  7.59869910E+00  7.59869910E+00 -1.51973982E+01
  7.59869910E+00  7.59869910E+00 -1.51973982E+01  7.59869910E+00  7.59869910E+00
 -1.51973982E+01  7.59869910E+00  7.59869910E+00 -1.51973982E+01  7.59869910E+00
  7.59869910E+00 -1.51973982E+01  7.59869910E+00  7.59869910E+00 -1.51973982E+01
  7.59869910E+00  7.59869910E+00 -1.51973982E+01  7.59869910E+00  7.59869910E+00
 -1.51973982E+01  7.59869910E+00  7.59869910E+00 -1.51973982E+01  7.59869910E+00
  7.59869910E+00 -1.51973982E+01  7.59869910E+00  7.59869910E+00 -1.51973982E+01
  7.59869910E+00  7.59869910E+00 -1.51973982E+01  7.59869910E+00  7.59869910E+00
 -1.51973982E+01  7.59869910E+00  7.59869910E+00 -1.51973982E+01  7.59869910E+00
  7.59869910E+00 -1.51973982E+01  7.59869910E+00  7.59869910E+00 -1.51973982E+01
  7.59869910E+00  7.59869910E+00 -1.51973982E+01  7.59869910E+00  7.59869910E+00
 -1.51973982E+01  7.59869910E+00  7.59869910E+00 -1.51973982E+01  7.59869910E+00
  7.59869910E+00 -1.51973982E+01  7.59869910E+00  7.59869910E+00 -1.51973982E+01
  7.59869910E+00  7.59869910E+00 -1.51973982E+01  7.59869910E+00  7.59869910E+00
 -1.51973982E+01  7.59869910E+00  7.59869910E+00 -1.51973982E+01  7.59869910E+00
  7.59869910E+00 -1.51973982E+01  7.59869910E+00  7.59869910E+00 -1.51973982E+01
  7.59869910E+00  7.59869910E+00 -1.51973982E+01  7.59869910E+00  7.59869910E+00
 -1.51973982E+01  7.59869910E+00  7.59869910E+00 -1.51973982E+01  7.59869910E+00
  7.59869910E+00 -1.51973982E+01  7.59869910E+00  7.59869910E+00 -1.51973982E+01
  7.59869910E+00  7.59869910E+00 -1.51973982E+01  7.59869910E+00  7.59869910E+00
 -1.51973982E+01  7.59869910E+00  7.59869910E+00 -1.51973982E+01  7.59869910E+00
  7.59869910E+00 -1.51973982E+01  7.59869910E+00  7.59869910E+00 -1.51973982E+01
  7.59869910E+00  7.59869910E+00 -1.51973982E+01  7.59869910E+00  7.59869910E+00
 -1.51973982E+01  7.59869910E+00  7.59869910E+00 -1.51973982E+01  7.59869910E+00
  7.59869910E+00 -1.51973982E+01  7.59869910E+00  7.59869910E+00 -1.51973982E+01
  7.59869910E+00  7.59869910E+00 -1.51973982E+01  7.59869910E+00  7.59869910E+00
 -1.51973982E+01  7.59869910E+00  7.59869910E+00 -1.51973982E+01  7.59869910E+00
  7.59869910E+00 -1.51973982E+01  7.59869910E+00  7.59869910E+00 -1.51973982E+01
  7.59869910E+00  7.59869910E+00 -1.51973982E+01  7.59869910E+00  7.59869910E+00
 -1.51973982E+01  7.59869910E+00  7.59869910E+00 -1.51973982E+01  7.59869910E+00
  7.59869910E+00 -1.51973982E+01  7.59869910E+00  7.59869910E+00 -1.51973982E+01
  7.59869910E+00  7.59869910E+00 -1.51973982E+01  7.59869910E+00  7.59869910E+00
 -1.51973982E+01  7.59869910E+00  7.59869910E+00 -1.51973982E+01  7.59869910E+00
  7.59869910E+00 -1.51973982E+01  7.59869910E+00  7.59869910E+00 -1.51973982E+01
  7.59869910E+00  7.59869910E+00 -1.51973982E+01  7.59869910E+00  7.59869910E+00
 -1.51973982E+01  7.59869910E+00  7.59869910E+00 -1.51973982E+01  7.59869910E+00
  7.59869910E+00 -1.51973982E+01  7.59869910E+00  7.59869910E+00 -1.51973982E+01
  7.59869910E+00  7.59869910E+00 -1.51973982E+01  7.59869910E+00  7.59869910E+00
 -1.51973982E+01  7.59869910E+00  7.59869910E+00 -1.51973982E+01  7.59869910E+00
  7.59869910E+00 -1.51973982E+01  7.59869910E+00  7.59869910E+00 -1.51973982E+01
  7.59869910E+00  7.59869910E+00 -1.51973982E+01  7.59869910E+00  7.59869910E+00
 -1.51973982E+01  7.59869910E+00  7.59869910E+00 -1.51973982E+01  7.59869910E+00
  7.59869910E+00 -1.51973982E+01  7.59869910E+00  7.59869910E+00 -1.51973982E+01
  7.59869910E+00  7.59869910E+00 -1.51973982E+01  7.59869910E+00  7.59869910E+00
 -1.51973982E+01  7.59869910E+00  7.59869910E+00 -1.51973982E+01  7.59869910E+00
  7.59869910E+00 -1.51973982E+01  7.59869910E+00  7.59869910E+00 -1.51973982E+01
  7.59869910E+00  7.59869910E+00 -1.51973982E+01  7.59869910E+00  7.59869910E+00
 -1.51973982E+01  7.59869910E+00  7.59869910E+00 -1.51973982E+01  7.59869910E+00
  7.59869910E+00 -1.51973982E+01  7.59869910E+00  7.59869910E+00 -1.51973982E+01
  7.59869910E+00  7.59869910E+00 -1.51973982E+01  7.59869910E+00  7.59869910E+00
 -1.51973982E+01  7.59869910E+00  7.59869910E+00 -1.51973982E+01  7.59869910E+00
  7.59869910E+00 -1.51973982E+01  7.59869910E+00  7.59869910E+00 -1.51973982E+01
  7.59869910E+00  7.59869910E+00 -1.51973982E+01  7.59869910E+00  7.59869910E+00
 -1.51973982E+01  7.59869910E+00  7.59869910E+00 -1.51973982E+01  7.59869910E+00
  7.59869910E+00 -1.51973982E+01  7.59869910E+00  7.59869910E+00 -1.51973982E+01
  7.59869910E+00  7.59869910E+00 -1.51973982E+01  7.59869910E+00  7.59869910E+00
 -1.51973982E+01  7.59869910E+00  7.59869910E+00 -1.51973982E+01  7.59869910E+00
  7.59869910E+00 -1.51973982E+01  7.59869910E+00  7.59869910E+00 -1.51973982E+01
  7.59869910E+00  7.59869910E+00 -1.51973982E+01  7.59869910E+00  7.59869910E+00
 -1.51973982E+01  7.59869910E+00  7.59869910E+00 -1.51973982E+01  7.59869910E+00
  7.59869910E+00 -1.51973982E+01  7.59869910E+00  7.59869910E+00 -1.51973982E+01
  7.59869910E+00  7.59869910E+00 -1.51973982E+01  7.59869910E+00  7.59869910E+00
 -1.51973982E+01  7.59869910E+00  7.59869910E+00 -1.51973982E+01  7.59869910E+00
  7.59869910E+00 -1.51973982E+01  7.59869910E+00  7.59869910E+00 -1.51973982E+01
  7.59869910E+00  7.59869910E+00 -1.51973982E+01  7.59869910E+00  7.59869910E+00
 -1.51973982E+01  7.59869910E+00  7.59869910E+00 -1.51973982E+01  7.59869910E+00
  7.59869910E+00 -1.51973982E+01  7.59869910E+00  7.59869910E+00 -1.51973982E+01
  7.59869910E+00  7.59869910E+00 -1.51973982E+01  7.59869910E+00  7.59869910E+00
 -1.51973982E+01  7.59869910E+00  7.59869910E+00 -1.51973982E+01  7.59869910E+00
  7.59869910E+00 -1.51973982E+01  7.59869910E+00  7.59869910E+00 -1.51973982E+01
  7.59869910E+00  7.59869910E+00 -1.51973982E+01  7.59869910E+00  7.59869910E+00
 -1.51973982E+01  7.59869910E+00  7.59869910E+00 -1.51973982E+01  7.59869910E+00
  7.59869910E+00 -1.51973982E+01  7.59869910E+00  7.59869910E+00 -1.51973982E+01
  7.59869910E+00  7.59869910E+00 -1.51973982E+01  7.59869910E+00  7.59869910E+00
 -1.51973982E+01  7.59869910E+00  7.59869910E+00 -1.51973982E+01  7.59869910E+00
  7.59869910E+00 -1.51973982E+01  7.59869910E+00  7.59869910E+00 -1.51973982E+01
  7.59869910E+00  7.59869910E+00 -1.51973982E+01  7.59869910E+00  7.59869910E+00
 -1.51973982E+01  7.59869910E+00  7.59869910E+00 -1.51973982E+01  7.59869910E+00
  7.59869910E+00 -1.51973982E+01  7.59869910E+00  7.59869910E+00 -1.51973982E+01
  7.59869910E+00  7.59869910E+00 -1.51973982E+01  7.59869910E+00  7.59869910E+00
 -1.51973982E+01  7.59869910E+00  7.59869910E+00 -1.51973982E+01  7.59869910E+00
  7.59869910E+00 -1.51973982E+01  7.59869910E+00  7.59869910E+00 -1.51973982E+01
  7.59869910E+00  7.59869910E+00 -1.51973982E+01  7.59869910E+00  7.59869910E+00
 -1.51973982E+01  7.59869910E+00  7.59869910E+00 -1.51973982E+01  7.59869910E+00
  7.59869910E+00 -1.51973982E+01  7.59869910E+00  7.59869910E+00 -1.51973982E+01
  7.59869910E+00  7.59869910E+00 -1.51973982E+01  7.59869910E+00  7.59869910E+00
 -1.51973982E+01  7.59869910E+00  7.59869910E+00 -1.51973982E+01  7.59869910E+00
  7.59869910E+00 -1.51973982E+01  7.59869910E+00  7.59869910E+00 -1.51973982E+01
  7.59869910E+00  7.59869910E+00 -1.51973982E+01  7.59869910E+00  7.59869910E+00
 -1.51973982E+01  7.59869910E+00  7.59869910E+00 -1.51973982E+01  7.59869910E+00
  7.59869910E+00 -1.51973982E+01  7.59869910E+00  7.59869910E+00 -1.51973982E+01
  7.59869910E+00  7.59869910E+00 -1.51973982E+01  7.59869910E+00  7.59869910E+00
 -1.51973982E+01  7.59869910E+00  7.59869910E+00 -1.51973982E+01  7.59869910E+00
  7.59869910E+00 -1.51973982E+01  7.59869910E+00  7.59869910E+00 -1.51973982E+01
  7.59869910E+00  7.59869910E+00 -1.51973982E+01  7.59869910E+00  7.59869910E+00
 -1.51973982E+01  7.59869910E+00  7.59869910E+00 -1.51973982E+01  7.59869910E+00
  7.59869910E+00 -1.51973982E+01  7.59869910E+00  7.59869910E+00 -1.51973982E+01
  7.59869910E+00  7.59869910E+00 -1.51973982E+01  7.59869910E+00  7.59869910E+00
 -1.51973982E+01  7.59869910E+00  7.59869910E+00 -1.51973982E+01  7.59869910E+00
  7.59869910E+00 -1.51973982E+01  7.59869910E+00  7.59869910E+00 -1.51973982E+01
  7.59869910E+00  7.59869910E+00 -1.51973982E+01  7.59869910E+00  7.59869910E+00
 -1.51973982E+01  7.59869910E+00  7.59869910E+00 -1.51973982E+01  7.59869910E+00
  7.59869910E+00 -1.51973982E+01  7.59869910E+00  7.59869910E+00 -1.51973982E+01
  7.59869910E+00  7.59869910E+00 -1.51973982E+01  7.59869910E+00  7.59869910E+00
 -1.51973982E+01  7.59869910E+00  7.59869910E+00 -1.51973982E+01  7.59869910E+00
  7.59869910E+00 -1.51973982E+01  7.59869910E+00  7.59869910E+00 -1.51973982E+01
  7.59869910E+00  7.59869910E+00 -1.51973982E+01  7.59869910E+00  7.59869910E+00
 -1.51973982E+01  7.59869910E+00  7.59869910E+00 -1.51973982E+01  7.59869910E+00
  7.59869910E+00 -1.51973982E+01  7.59869910E+00  7.59869910E+00 -1.51973982E+01
  7.59869910E+00  7.59869910E+00 -1.51973982E+01  7.59869910E+00  7.59869910E+00
 -1.51973982E+01  7.59869910E+00  7.59869910E+00 -1.51973982E+01  7.59869910E+00
  7.59869910E+00 -1.51973982E+01  7.59869910E+00  7.59869910E+00 -1.51973982E+01
  7.59869910E+00  7.59869910E+00 -1.51973982E+01  7.59869910E+00  7.59869910E+00
 -1.51973982E+01  7.59869910E+00  7.59869910E+00 -1.51973982E+01  7.59869910E+00
  7.59869910E+00 -1.51973982E+01  7.59869910E+00  7.59869910E+00 -1.51973982E+01
  7.59869910E+00  7.59869910E+00 -1.51973982E+01  7.59869910E+00  7.59869910E+00
 -1.51973982E+01  7.59869910E+00  7.59869910E+00 -1.51973982E+01  7.59869910E+00
  7.59869910E+00 -1.51973982E+01  7.59869910E+00  7.59869910E+00 -1.51973982E+01
  7.59869910E+00  7.59869910E+00 -1.51973982E+01  7.59869910E+00  7.59869910E+00
 -1.51973982E+01  7.59869910E+00  7.59869910E+00 -1.51973982E+01  7.59869910E+00
  7.59869910E+00 -1.51973982E+01  7.59869910E+00  7.59869910E+00 -1.51973982E+01
  7.59869910E+00  7.59869910E+00 -1.51973982E+01  7.59869910E+00  7.59869910E+00
 -1.51973982E+01  7.59869910E+00  7.59869910E+00 -1.51973982E+01  7.59869910E+00
  7.59869910E+00 -1.51973982E+01  7.59869910E+00  7.59869910E+00 -1.51973982E+01
  7.59869910E+00  7.59869910E+00 -1.51973982E+01  7.59869910E+00  7.59869910E+00
 -1.51973982E+01  7.59869910E+00  7.59869910E+00 -1.51973982E+01  7.59869910E+00
  7.59869910E+00 -1.51973982E+01  7.59869910E+00  7.59869910E+00 -1.51973982E+01
  7.59869910E+00  7.59869910E+00 -1.51973982E+01  7.59869910E+00  7.59869910E+00
 -1.51973982E+01  7.59869910E+00  7.59869910E+00 -1.51973982E+01  7.59869910E+00
  7.59869910E+00 -1.51973982E+01  7.59869910E+00  7.59869910E+00 -1.51973982E+01
  7.59869910E+00  7.59869910E+00 -1.51973982E+01  7.59869910E+00  7.59869910E+00
 -1.51973982E+01  7.59869910E+00  7.59869910E+00 -1.51973982E+01  7.59869910E+00
  7.59869910E+00 -1.51973982E+01  7.59869910E+00  7.59869910E+00 -1.51973982E+01
  7.59869910E+00  7.59869910E+00 -1.51973982E+01  7.59869910E+00  7.59869910E+00
 -1.51973982E+01  7.59869910E+00  7.59869910E+00 -1.51973982E+01  7.59869910E+00
  7.59869910E+00 -1.51973982E+01  7.59869910E+00  7.59869910E+00 -1.51973982E+01
  7.59869910E+00  7.59869910E+00 -1.51973982E+01  7.59869910E+00  7.59869910E+00
 -1.51973982E+01  7.59869910E+00  7.59869910E+00 -1.51973982E+01  7.59869910E+00
  7.59869910E+00 -1.51973982E+01  7.59869910E+00  7.59869910E+00 -1.51973982E+01
  7.59869910E+00  7.59869910E+00 -1.51973982E+01  7.59869910E+00  7.59869910E+00
 -1.51973982E+01  7.59869910E+00  7.59869910E+00 -1.51973982E+01  7.59869910E+00
  7.59869910E+00 -1.51973982E+01  7.59869910E+00  7.59869910E+00 -1.51973982E+01
  7.59869910E+00  7.59869910E+00 -1.51973982E+01  7.59869910E+00  7.59869910E+00
 -1.51973982E+01  7.59869910E+00  7.59869910E+00 -1.51973982E+01  7.59869910E+00
  7.59869910E+00 -1.51973982E+01  7.59869910E+00  7.59869910E+00 -1.51973982E+01
  7.59869910E+00  7.59869910E+00 -1.51973982E+01  7.59869910E+00  7.59869910E+00
 -1.51973982E+01  7.59869910E+00  7.59869910E+00 -1.51973982E+01  7.59869910E+00
  7.59869910E+00 -1.51973982E+01  7.59869910E+00  7.59869910E+00 -1.51973982E+01
  7.59869910E+00  7.59869910E+00 -1.51973982E+01  7.59869910E+00  7.59869910E+00
 -1.51973982E+01  7.59869910E+00  7.59869910E+00 -1.51973982E+01  7.59869910E+00
  7.59869910E+00 -1.51973982E+01  7.59869910E+00  7.59869910E+00 -1.51973982E+01
  7.59869910E+00  7.59869910E+00 -1.51973982E+01  7.59869910E+00  7.59869910E+00
 -1.51973982E+01  7.59869910E+00  7.59869910E+00 -1.51973982E+01  7.59869910E+00
  7.59869910E+00 -1.51973982E+01  7.59869910E+00  7.59869910E+00 -1.51973982E+01
  7.59869910E+00  7.59869910E+00 -1.51973982E+01  7.59869910E+00  7.59869910E+00
 -1.51973982E+01  7.59869910E+00  7.59869910E+00 -1.51973982E+01  7.59869910E+00
  7.59869910E+00 -1.51973982E+01  7.59869910E+00  7.59869910E+00 -1.51973982E+01
  7.59869910E+00  7.59869910E+00 -1.51973982E+01  7.59869910E+00  7.59869910E+00
 -1.51973982E+01  7.59869910E+00  7.59869910E+00 -1.51973982E+01  7.59869910E+00
  7.59869910E+00 -1.51973982E+01  7.59869910E+00  7.59869910E+00 -1.51973982E+01
  7.59869910E+00  7.59869910E+00 -1.51973982E+01  7.59869910E+00  7.59869910E+00
 -1.51973982E+01  7.59869910E+00  7.59869910E+00 -1.51973982E+01  7.59869910E+00
  7.59869910E+00 -1.51973982E+01  7.59869910E+00  7.59869910E+00 -1.51973982E+01
  7.59869910E+00  7.59869910E+00 -1.51973982E+01  7.59869910E+00  7.59869910E+00
 -1.51973982E+01  7.59869910E+00  7.59869910E+00 -1.51973982E+01  7.59869910E+00
  7.59869910E+00 -1.51973982E+01  7.59869910E+00  7.59869910E+00 -1.51973982E+01
  7.59869910E+00  7.59869910E+00 -1.51973982E+01  7.59869910E+00  7.59869910E+00
 -1.51973982E+01  7.59869910E+00  7.59869910E+00 -1.51973982E+01  7.59869910E+00
  7.59869910E+00 -1.51973982E+01  7.59869910E+00  7.59869910E+00 -1.51973982E+01
  7.59869910E+00  7.59869910E+00 -1.51973982E+01  7.59869910E+00  7.59869910E+00
 -1.51973982E+01  7.59869910E+00  7.59869910E+00 -1.51973982E+01  7.59869910E+00
  7.59869910E+00 -1.51973982E+01  7.59869910E+00  7.59869910E+00 -1.51973982E+01
  7.59869910E+00  7.59869910E+00 -1.51973982E+01  7.59869910E+00  7.59869910E+00
 -1.51973982E+01  7.59869910E+00  7.59869910E+00 -1.51973982E+01  7.59869910E+00
  7.59869910E+00 -1.51973982E+01  7.59869910E+00  7.59869910E+00 -1.51973982E+01
  7.59869910E+00  7.59869910E+00 -1.51973982E+01  7.59869910E+00  7.59869910E+00
 -1.51973982E+01  7.59869910E+00  7.59869910E+00 -1.51973982E+01  7.59869910E+00
  7.59869910E+00 -1.51973982E+01  7.59869910E+00  7.59869910E+00 -1.51973982E+01
  7.59869910E+00  7.59869910E+00 -1.51973982E+01  7.59869910E+00  7.59869910E+00
 -1.51973982E+01  7.59869910E+00  7.59869910E+00 -1.51973982E+01  7.59869910E+00
  7.59869910E+00 -1.51973982E+01  7.59869910E+00  7.59869910E+00 -1.51973982E+01
  7.59869910E+00  7.59869910E+00 -1.51973982E+01  7.59869910E+00  7.59869910E+00
 -1.51973982E+01  7.59869910E+00  7.59869910E+00 -1.51973982E+01  7.59869910E+00
  7.59869910E+00 -1.51973982E+01  7.59869910E+00  7.59869910E+00 -1.51973982E+01
  7.59869910E+00  7.59869910E+00 -1.51973982E+01  7.59869910E+00  7.59869910E+00
 -1.51973982E+01  7.59869910E+00  7.59869910E+00 -1.51973982E+01  7.59869910E+00
  7.59869910E+00 -1.51973982E+01  7.59869910E+00  7.59869910E+00 -1.51973982E+01
  7.59869910E+00  7.59869910E+00 -1.51973982E+01  7.59869910E+00  7.59869910E+00
 -1.51973982E+01  7.59869910E+00  7.59869910E+00 -1.51973982E+01  7.59869910E+00
  7.59869910E+00 -1.51973982E+01  7.59869910E+00  7.59869910E+00 -1.51973982E+01
  7.59869910E+00  7.59869910E+00 -1.51973982E+01  7.59869910E+00  7.59869910E+00
 -1.51973982E+01  7.59869910E+00  7.59869910E+00 -1.51973982E+01  7.59869910E+00
  7.59869910E+00 -1.51973982E+01  7.59869910E+00  7.59869910E+00 -1.51973982E+01
  7.59869910E+00  7.59869910E+00 -1.51973982E+01  7.59869910E+00  7.59869910E+00
 -1.51973982E+01  7.59869910E+00  7.59869910E+00 -1.51973982E+01  7.59869910E+00
  7.59869910E+00 -1.51973982E+01  7.59869910E+00  7.59869910E+00 -1.51973982E+01
  7.59869910E+00  7.59869910E+00 -1.51973982E+01  7.59869910E+00  7.59869910E+00
 -1.51973982E+01  7.59869910E+00  7.59869910E+00 -1.51973982E+01  7.59869910E+00
  7.59869910E+00 -1.51973982E+01  7.59869910E+00  7.59869910E+00 -1.51973982E+01
  7.59869910E+00  7.59869910E+00 -1.51973982E+01  7.59869910E+00  7.59869910E+00
 -1.51973982E+01  7.59869910E+00  7.59869910E+00 -1.51973982E+01  7.59869910E+00
  7.59869910E+00 -1.51973982E+01  7.59869910E+00  7.59869910E+00 -1.51973982E+01
  7.59869910E+00  7.59869910E+00 -1.51973982E+01  7.59869910E+00  7.59869910E+00
 -1.51973982E+01  7.59869910E+00  7.59869910E+00 -1.51973982E+01  7.59869910E+00
  7.59869910E+00 -1.51973982E+01  7.59869910E+00  7.59869910E+00 -1.51973982E+01
  7.59869910E+00  7.59869910E+00 -1.51973982E+01  7.59869910E+00  7.59869910E+00
 -1.51973982E+01  7.59869910E+00  7.59869910E+00 -1.51973982E+01  7.59869910E+00
  7.59869910E+00 -1.51973982E+01  7.59869910E+00  7.59869910E+00 -1.51973982E+01
  7.59869910E+00  7.59869910E+00 -1.51973982E+01  7.59869910E+00  7.59869910E+00
 -1.51973982E+01  7.59869910E+00  7.59869910E+00 -1.51973982E+01  7.59869910E+00
  7.59869910E+00 -1.51973982E+01  7.59869910E+00  7.59869910E+00 -1.51973982E+01
  7.59869910E+00  7.59869910E+00 -1.51973982E+01  7.59869910E+00  7.59869910E+00
 -1.51973982E+01  7.59869910E+00  7.59869910E+00 -1.51973982E+01  7.59869910E+00
  7.59869910E+00 -1.51973982E+01  7.59869910E+00  7.59869910E+00 -1.51973982E+01
  7.59869910E+00  7.59869910E+00 -1.51973982E+01  7.59869910E+00  7.59869910E+00
 -1.51973982E+01  7.59869910E+00  7.59869910E+00 -1.51973982E+01  7.59869910E+00
  7.59869910E+00 -1.51973982E+01  7.59869910E+00  7.59869910E+00 -1.51973982E+01
  7.59869910E+00  7.59869910E+00 -1.51973982E+01  7.59869910E+00  7.59869910E+00
 -1.51973982E+01  7.59869910E+00  7.59869910E+00 -1.51973982E+01  7.59869910E+00
  7.59869910E+00 -1.51973982E+01  7.59869910E+00  7.59869910E+00 -1.51973982E+01
  7.59869910E+00  7.59869910E+00 -1.51973982E+01  7.59869910E+00  7.59869910E+00
 -1.51973982E+01  7.59869910E+00  7.59869910E+00 -1.51973982E+01  7.59869910E+00
  7.59869910E+00 -1.51973982E+01  7.59869910E+00  7.59869910E+00 -1.51973982E+01
  7.59869910E+00  7.59869910E+00 -1.51973982E+01  7.59869910E+00  7.59869910E+00
 -1.51973982E+01  7.59869910E+00  7.59869910E+00 -1.51973982E+01  7.59869910E+00
  7.59869910E+00 -1.51973982E+01  7.59869910E+00  7.59869910E+00 -1.51973982E+01
  7.59869910E+00  7.59869910E+00 -1.51973982E+01  7.59869910E+00  7.59869910E+00
 -1.51973982E+01  7.59869910E+00  7.59869910E+00 -1.51973982E+01  7.59869910E+00
  7.59869910E+00 -1.51973982E+01  7.59869910E+00  7.59869910E+00 -1.51973982E+01
  7.59869910E+00  7.59869910E+00 -1.51973982E+01  7.59869910E+00  7.59869910E+00
 -1.51973982E+01  7.59869910E+00  7.59869910E+00 -1.51973982E+01  7.59869910E+00
  7.59869910E+00 -1.51973982E+01  7.59869910E+00  7.59869910E+00 -1.51973982E+01
  7.59869910E+00  7.59869910E+00 -1.51973982E+01  7.59869910E+00  7.59869910E+00
 -1.51973982E+01  7.59869910E+00  7.59869910E+00 -1.51973982E+01  7.59869910E+00
  7.59869910E+00 -1.51973982E+01  7.59869910E+00  7.59869910E+00 -1.51973982E+01
  7.59869910E+00  7.59869910E+00 -1.51973982E+01  7.59869910E+00  7.59869910E+00
 -1.51973982E+01  7.59869910E+00  7.59869910E+00 -1.51973982E+01  7.59869910E+00
  7.59869910E+00 -1.51973982E+01  7.59869910E+00  7.59869910E+00 -1.51973982E+01
  7.59869910E+00  7.59869910E+00 -1.51973982E+01  7.59869910E+00  7.59869910E+00
 -1.51973982E+01  7.59869910E+00  7.59869910E+00 -1.51973982E+01  7.59869910E+00
  7.59869910E+00 -1.51973982E+01  7.59869910E+00  7.59869910E+00 -1.51973982E+01
  7.59869910E+00  7.59869910E+00 -1.51973982E+01  7.59869910E+00  7.59869910E+00
 -1.51973982E+01  7.59869910E+00  7.59869910E+00 -1.51973982E+01  7.59869910E+00
  7.59869910E+00 -1.51973982E+01  7.59869910E+00  7.59869910E+00 -1.51973982E+01
  7.59869910E+00  7.59869910E+00 -1.51973982E+01  7.59869910E+00  7.59869910E+00
 -1.51973982E+01  7.59869910E+00  7.59869910E+00 -1.51973982E+01  7.59869910E+00
  7.59869910E+00 -1.51973982E+01  7.59869910E+00  7.59869910E+00 -1.51973982E+01
  7.59869910E+00  7.59869910E+00 -1.51973982E+01  7.59869910E+00  7.59869910E+00
 -1.51973982E+01  7.59869910E+00  7.59869910E+00 -1.51973982E+01  7.59869910E+00
  7.59869910E+00 -1.51973982E+01  7.59869910E+00  7.59869910E+00 -1.51973982E+01
  7.59869910E+00  7.59869910E+00 -1.51973982E+01  7.59869910E+00  7.59869910E+00
 -1.51973982E+01  7.59869910E+00  7.59869910E+00 -1.51973982E+01  7.59869910E+00
  7.59869910E+00 -1.51973982E+01  7.59869910E+00  7.59869910E+00 -1.51973982E+01
  7.59869910E+00  7.59869910E+00 -1.51973982E+01  7.59869910E+00  7.59869910E+00
 -1.51973982E+01  7.59869910E+00  7.59869910E+00 -1.51973982E+01  7.59869910E+00
  7.59869910E+00 -1.51973982E+01  7.59869910E+00  7.59869910E+00 -1.51973982E+01
  7.59869910E+00  7.59869910E+00 -1.51973982E+01  7.59869910E+00  7.59869910E+00
 -1.51973982E+01  7.59869910E+00  7.59869910E+00 -1.51973982E+01  7.59869910E+00
  7.59869910E+00 -1.51973982E+01  7.59869910E+00  7.59869910E+00 -1.51973982E+01
  7.59869910E+00  7.59869910E+00 -1.51973982E+01  7.59869910E+00  7.59869910E+00
 -1.51973982E+01  7.59869910E+00  7.59869910E+00 -1.51973982E+01  7.59869910E+00
  7.59869910E+00 -1.51973982E+01  7.59869910E+00  7.59869910E+00 -1.51973982E+01
  7.59869910E+00  7.59869910E+00 -1.51973982E+01  7.59869910E+00  7.59869910E+00
 -1.51973982E+01  7.59869910E+00  7.59869910E+00 -1.51973982E+01  7.59869910E+00
  7.59869910E+00 -1.51973982E+01  7.59869910E+00  7.59869910E+00 -1.51973982E+01
  7.59869910E+00  7.59869910E+00 -1.51973982E+01  7.59869910E+00  7.59869910E+00
 -1.51973982E+01  7.59869910E+00  7.59869910E+00 -1.51973982E+01  7.59869910E+00
  7.59869910E+00 -1.51973982E+01  7.59869910E+00  7.59869910E+00 -1.51973982E+01
  7.59869910E+00  7.59869910E+00 -1.51973982E+01  7.59869910E+00  7.59869910E+00
 -1.51973982E+01  7.59869910E+00  7.59869910E+00 -1.51973982E+01  7.59869910E+00
  7.59869910E+00 -1.51973982E+01  7.59869910E+00  7.59869910E+00 -1.51973982E+01
  7.59869910E+00  7.59869910E+00 -1.51973982E+01  7.59869910E+00  7.59869910E+00
 -1.51973982E+01  7.59869910E+00  7.59869910E+00 -1.51973982E+01  7.59869910E+00
  7.59869910E+00 -1.51973982E+01  7.59869910E+00  7.59869910E+00 -1.51973982E+01
  7.59869910E+00  7.59869910E+00 -1.51973982E+01  7.59869910E+00  7.59869910E+00
 -1.51973982E+01  7.59869910E+00  7.59869910E+00 -1.51973982E+01  7.59869910E+00
  7.59869910E+00 -1.51973982E+01  7.59869910E+00  7.59869910E+00 -1.51973982E+01
  7.59869910E+00  7.59869910E+00 -1.51973982E+01  7.59869910E+00  7.59869910E+00
 -1.51973982E+01  7.59869910E+00  7.59869910E+00 -1.51973982E+01  7.59869910E+00
  7.59869910E+00 -1.51973982E+01  7.59869910E+00  7.59869910E+00 -1.51973982E+01
  7.59869910E+00  7.59869910E+00 -1.51973982E+01  7.59869910E+00  7.59869910E+00
 -1.51973982E+01  7.59869910E+00  7.59869910E+00 -1.51973982E+01  7.59869910E+00
  7.59869910E+00 -1.51973982E+01  7.59869910E+00  7.59869910E+00 -1.51973982E+01
  7.59869910E+00  7.59869910E+00 -1.51973982E+01  7.59869910E+00  7.59869910E+00
 -1.51973982E+01  7.59869910E+00  7.59869910E+00 -1.51973982E+01  7.59869910E+00
  7.59869910E+00 -1.51973982E+01  7.59869910E+00  7.59869910E+00 -1.51973982E+01
  7.59869910E+00  7.59869910E+00 -1.51973982E+01  7.59869910E+00  7.59869910E+00
 -1.51973982E+01  7.59869910E+00  7.59869910E+00 -1.51973982E+01  7.59869910E+00
  7.59869910E+00 -1.51973982E+01  7.59869910E+00  7.59869910E+00 -1.51973982E+01
  7.59869910E+00  7.59869910E+00 -1.51973982E+01  7.59869910E+00  7.59869910E+00
 -1.51973982E+01  7.59869910E+00  7.59869910E+00 -1.51973982E+01  7.59869910E+00
  7.59869910E+00 -1.51973982E+01  7.59869910E+00  7.59869910E+00 -1.51973982E+01
  7.59869910E+00  7.59869910E+00 -1.51973982E+01  7.59869910E+00  7.59869910E+00
 -1.51973982E+01  7.59869910E+00  7.59869910E+00 -1.51973982E+01  7.59869910E+00
  7.59869910E+00 -1.51973982E+01  7.59869910E+00  7.59869910E+00 -1.51973982E+01
  7.59869910E+00  7.59869910E+00 -1.51973982E+01  7.59869910E+00  7.59869910E+00
 -1.51973982E+01  7.59869910E+00  7.59869910E+00 -1.51973982E+01  7.59869910E+00
  7.59869910E+00 -1.51973982E+01  7.59869910E+00  7.59869910E+00 -1.51973982E+01
  7.59869910E+00  7.59869910E+00 -1.51973982E+01  7.59869910E+00  7.59869910E+00
 -1.51973982E+01  7.59869910E+00  7.59869910E+00 -1.51973982E+01  7.59869910E+00
  7.59869910E+00 -1.51973982E+01  7.59869910E+00  7.59869910E+00 -1.51973982E+01
  7.59869910E+00  7.59869910E+00 -1.51973982E+01  7.59869910E+00  7.59869910E+00
 -1.51973982E+01  7.59869910E+00  7.59869910E+00 -1.51973982E+01  7.59869910E+00
  7.59869910E+00 -1.51973982E+01  7.59869910E+00  7.59869910E+00 -1.51973982E+01
  7.59869910E+00  7.59869910E+00 -1.51973982E+01  7.59869910E+00  7.59869910E+00
 -1.51973982E+01  7.59869910E+00  7.59869910E+00 -1.51973982E+01  7.59869910E+00
  7.59869910E+00 -1.51973982E+01  7.59869910E+00  7.59869910E+00 -1.51973982E+01
  7.59869910E+00  7.59869910E+00 -1.51973982E+01  7.59869910E+00  7.59869910E+00
 -1.51973982E+01  7.59869910E+00  7.59869910E+00 -1.51973982E+01  7.59869910E+00
  7.59869910E+00 -1.51973982E+01  7.59869910E+00  7.59869910E+00 -1.51973982E+01
  7.59869910E+00  7.59869910E+00 -1.51973982E+01  7.59869910E+00  7.59869910E+00
 -1.51973982E+01  7.59869910E+00  7.59869910E+00 -1.51973982E+01  7.59869910E+00
  7.59869910E+00 -1.51973982E+01  7.59869910E+00  7.59869910E+00 -1.51973982E+01
  7.59869910E+00  7.59869910E+00 -1.51973982E+01  7.59869910E+00  7.59869910E+00
 -1.51973982E+01  7.59869910E+00  7.59869910E+00 -1.51973982E+01  7.59869910E+00
  7.59869910E+00 -1.51973982E+01  7.59869910E+00  7.59869910E+00 -1.51973982E+01
  7.59869910E+00  7.59869910E+00 -1.51973982E+01  7.59869910E+00  7.59869910E+00
 -1.51973982E+01  7.59869910E+00  7.59869910E+00 -1.51973982E+01  7.59869910E+00
  7.59869910E+00 -1.51973982E+01  7.59869910E+00  7.59869910E+00 -1.51973982E+01
  7.59869910E+00  7.59869910E+00 -1.51973982E+01  7.59869910E+00  7.59869910E+00
 -1.51973982E+01  7.59869910E+00  7.59869910E+00 -1.51973982E+01  7.59869910E+00
  7.59869910E+00 -1.51973982E+01  7.59869910E+00  7.59869910E+00 -1.51973982E+01
  7.59869910E+00  7.59869910E+00 -1.51973982E+01  7.59869910E+00  7.59869910E+00
 -1.51973982E+01  7.59869910E+00  7.59869910E+00 -1.51973982E+01  7.59869910E+00
  7.59869910E+00 -1.51973982E+01  7.59869910E+00  7.59869910E+00 -1.51973982E+01
  7.59869910E+00  7.59869910E+00 -1.51973982E+01  7.59869910E+00  7.59869910E+00
 -1.51973982E+01  7.59869910E+00  7.59869910E+00 -1.51973982E+01  7.59869910E+00
  7.59869910E+00 -1.51973982E+01  7.59869910E+00  7.59869910E+00 -1.51973982E+01
  7.59869910E+00  7.59869910E+00 -1.51973982E+01  7.59869910E+00  7.59869910E+00
 -1.51973982E+01  7.59869910E+00  7.59869910E+00 -1.51973982E+01  7.59869910E+00
  7.59869910E+00 -1.51973982E+01  7.59869910E+00  7.59869910E+00 -1.51973982E+01
  7.59869910E+00  7.59869910E+00 -1.51973982E+01  7.59869910E+00  7.59869910E+00
 -1.51973982E+01  7.59869910E+00  7.59869910E+00 -1.51973982E+01  7.59869910E+00
  7.59869910E+00 -1.51973982E+01  7.59869910E+00  7.59869910E+00 -1.51973982E+01
  7.59869910E+00  7.59869910E+00 -1.51973982E+01  7.59869910E+00  7.59869910E+00
 -1.51973982E+01  7.59869910E+00  7.59869910E+00 -1.51973982E+01  7.59869910E+00
  7.59869910E+00 -1.51973982E+01  7.59869910E+00  7.59869910E+00 -1.51973982E+01
  7.59869910E+00  7.59869910E+00 -1.51973982E+01  7.59869910E+00  7.59869910E+00
 -1.51973982E+01  7.59869910E+00  7.59869910E+00 -1.51973982E+01  7.59869910E+00
  7.59869910E+00 -1.51973982E+01  7.59869910E+00  7.59869910E+00 -1.51973982E+01
  7.59869910E+00  7.59869910E+00 -1.51973982E+01  7.59869910E+00  7.59869910E+00
 -1.51973982E+01  7.59869910E+00  7.59869910E+00 -1.51973982E+01  7.59869910E+00
  7.59869910E+00 -1.51973982E+01  7.59869910E+00  7.59869910E+00 -1.51973982E+01
  7.59869910E+00  7.59869910E+00 -1.51973982E+01  7.59869910E+00  7.59869910E+00
 -1.51973982E+01  7.59869910E+00  7.59869910E+00 -1.51973982E+01  7.59869910E+00
  7.59869910E+00 -1.51973982E+01  7.59869910E+00  7.59869910E+00 -1.51973982E+01
  7.59869910E+00  7.59869910E+00 -1.51973982E+01  7.59869910E+00  7.59869910E+00
 -1.51973982E+01  7.59869910E+00  7.59869910E+00 -1.51973982E+01  7.59869910E+00
  7.59869910E+00 -1.51973982E+01  7.59869910E+00  7.59869910E+00 -1.51973982E+01
  7.59869910E+00  7.59869910E+00 -1.51973982E+01  7.59869910E+00  7.59869910E+00
 -1.51973982E+01  7.59869910E+00  7.59869910E+00 -1.51973982E+01  7.59869910E+00
  7.59869910E+00 -1.51973982E+01  7.59869910E+00  7.59869910E+00 -1.51973982E+01
  7.59869910E+00  7.59869910E+00 -1.51973982E+01  7.59869910E+00  7.59869910E+00
 -1.51973982E+01  7.59869910E+00  7.59869910E+00 -1.51973982E+01  7.59869910E+00
  7.59869910E+00 -1.51973982E+01  7.59869910E+00  7.59869910E+00 -1.51973982E+01
  7.59869910E+00  7.59869910E+00 -1.51973982E+01  7.59869910E+00  7.59869910E+00
 -1.51973982E+01  7.59869910E+00  7.59869910E+00 -1.51973982E+01  7.59869910E+00
  7.59869910E+00 -1.51973982E+01  7.59869910E+00  7.59869910E+00 -1.51973982E+01
  7.59869910E+00  7.59869910E+00 -1.51973982E+01  7.59869910E+00  7.59869910E+00
 -1.51973982E+01  7.59869910E+00  7.59869910E+00 -1.51973982E+01  7.59869910E+00
  7.59869910E+00 -1.51973982E+01  7.59869910E+00  7.59869910E+00 -1.51973982E+01
  7.59869910E+00  7.59869910E+00 -1.51973982E+01  7.59869910E+00  7.59869910E+00
 -1.51973982E+01  7.59869910E+00  7.59869910E+00 -1.51973982E+01  7.59869910E+00
  7.59869910E+00 -1.51973982E+01  7.59869910E+00  7.59869910E+00 -1.51973982E+01
  7.59869910E+00  7.59869910E+00 -1.51973982E+01  7.59869910E+00  7.59869910E+00
 -1.51973982E+01  7.59869910E+00  7.59869910E+00 -1.51973982E+01  7.59869910E+00
  7.59869910E+00 -1.51973982E+01  7.59869910E+00  7.59869910E+00 -1.51973982E+01
  7.59869910E+00  7.59869910E+00 -1.51973982E+01  7.59869910E+00  7.59869910E+00
 -1.51973982E+01  7.59869910E+00  7.59869910E+00 -1.51973982E+01  7.59869910E+00
  7.59869910E+00 -1.51973982E+01  7.59869910E+00  7.59869910E+00 -1.51973982E+01
  7.59869910E+00  7.59869910E+00 -1.51973982E+01  7.59869910E+00  7.59869910E+00
 -1.51973982E+01  7.59869910E+00  7.59869910E+00 -1.51973982E+01  7.59869910E+00
  7.59869910E+00 -1.51973982E+01  7.59869910E+00  7.59869910E+00 -1.51973982E+01
  7.59869910E+00  7.59869910E+00 -1.51973982E+01  7.59869910E+00  7.59869910E+00
 -1.51973982E+01  7.59869910E+00  7.59869910E+00 -1.51973982E+01  7.59869910E+00
  7.59869910E+00 -1.51973982E+01  7.59869910E+00  7.59869910E+00 -1.51973982E+01
  7.59869910E+00  7.59869910E+00 -1.51973982E+01  7.59869910E+00  7.59869910E+00
 -1.51973982E+01  7.59869910E+00  7.59869910E+00 -1.51973982E+01  7.59869910E+00
  7.59869910E+00 -1.51973982E+01  7.59869910E+00  7.59869910E+00 -1.51973982E+01
  7.59869910E+00  7.59869910E+00 -1.51973982E+01  7.59869910E+00  7.59869910E+00
 -1.51973982E+01  7.59869910E+00  7.59869910E+00 -1.51973982E+01  7.59869910E+00
  7.59869910E+00 -1.51973982E+01  7.59869910E+00  7.59869910E+00 -1.51973982E+01
  7.59869910E+00  7.59869910E+00 -1.51973982E+01  7.59869910E+00  7.59869910E+00
 -1.51973982E+01  7.59869910E+00  7.59869910E+00 -1.51973982E+01  7.59869910E+00
  7.59869910E+00 -1.51973982E+01  7.59869910E+00  7.59869910E+00 -1.51973982E+01
  7.59869910E+00  7.59869910E+00 -1.51973982E+01  7.59869910E+00  7.59869910E+00
 -1.51973982E+01  7.59869910E+00  7.59869910E+00 -1.51973982E+01  7.59869910E+00
  7.59869910E+00 -1.51973982E+01  7.59869910E+00  7.59869910E+00 -1.51973982E+01
  7.59869910E+00  7.59869910E+00 -1.51973982E+01  7.59869910E+00  7.59869910E+00
 -1.51973982E+01  7.59869910E+00  7.59869910E+00 -1.51973982E+01  7.59869910E+00
  7.59869910E+00 -1.51973982E+01  7.59869910E+00  7.59869910E+00 -1.51973982E+01
  7.59869910E+00  7.59869910E+00 -1.51973982E+01  7.59869910E+00  7.59869910E+00
 -1.51973982E+01  7.59869910E+00  7.59869910E+00 -1.51973982E+01  7.59869910E+00
  7.59869910E+00 -1.51973982E+01  7.59869910E+00  7.59869910E+00 -1.51973982E+01
  7.59869910E+00  7.59869910E+00 -1.51973982E+01  7.59869910E+00  7.59869910E+00
 -1.51973982E+01  7.59869910E+00  7.59869910E+00 -1.51973982E+01  7.59869910E+00
  7.59869910E+00 -1.51973982E+01  7.59869910E+00  7.59869910E+00 -1.51973982E+01
  7.59869910E+00  7.59869910E+00 -1.51973982E+01  7.59869910E+00  7.59869910E+00
 -1.51973982E+01  7.59869910E+00  7.59869910E+00 -1.51973982E+01  7.59869910E+00
  7.59869910E+00 -1.51973982E+01  7.59869910E+00  7.59869910E+00 -1.51973982E+01
  7.59869910E+00  7.59869910E+00 -1.51973982E+01  7.59869910E+00  7.59869910E+00
 -1.51973982E+01  7.59869910E+00  7.59869910E+00 -1.51973982E+01  7.59869910E+00
  7.59869910E+00 -1.51973982E+01  7.59869910E+00  7.59869910E+00 -1.51973982E+01
  7.59869910E+00  7.59869910E+00 -1.51973982E+01  7.59869910E+00  7.59869910E+00
 -1.51973982E+01  7.59869910E+00  7.59869910E+00 -1.51973982E+01  7.59869910E+00
  7.59869910E+00 -1.51973982E+01  7.59869910E+00  7.59869910E+00 -1.51973982E+01
  7.59869910E+00  7.59869910E+00 -1.51973982E+01  7.59869910E+00  7.59869910E+00
 -1.51973982E+01  7.59869910E+00  7.59869910E+00 -1.51973982E+01  7.59869910E+00
  7.59869910E+00 -1.51973982E+01  7.59869910E+00  7.59869910E+00 -1.51973982E+01
  7.59869910E+00  7.59869910E+00 -1.51973982E+01  7.59869910E+00  7.59869910E+00
 -1.51973982E+01  7.59869910E+00  7.59869910E+00 -1.51973982E+01  7.59869910E+00
  7.59869910E+00 -1.51973982E+01  7.59869910E+00  7.59869910E+00 -1.51973982E+01
  7.59869910E+00  7.59869910E+00 -1.51973982E+01  7.59869910E+00  7.59869910E+00
 -1.51973982E+01  7.59869910E+00  7.59869910E+00 -1.51973982E+01  7.59869910E+00
  7.59869910E+00 -1.51973982E+01  7.59869910E+00  7.59869910E+00 -1.51973982E+01
  7.59869910E+00  7.59869910E+00 -1.51973982E+01  7.59869910E+00  7.59869910E+00
 -1.51973982E+01  7.59869910E+00  7.59869910E+00 -1.51973982E+01  7.59869910E+00
  7.59869910E+00 -1.51973982E+01  7.59869910E+00  7.59869910E+00 -1.51973982E+01
  7.59869910E+00  7.59869910E+00 -1.51973982E+01  7.59869910E+00  7.59869910E+00
 -1.51973982E+01  7.59869910E+00  7.59869910E+00 -1.51973982E+01  7.59869910E+00
  7.59869910E+00 -1.51973982E+01  7.59869910E+00  7.59869910E+00 -1.51973982E+01
  7.59869910E+00  7.59869910E+00 -1.51973982E+01  7.59869910E+00  7.59869910E+00
 -1.51973982E+01  7.59869910E+00  7.59869910E+00 -1.51973982E+01  7.59869910E+00
  7.59869910E+00 -1.51973982E+01  7.59869910E+00  7.59869910E+00 -1.51973982E+01
  7.59869910E+00  7.59869910E+00 -1.51973982E+01  7.59869910E+00  7.59869910E+00
 -1.51973982E+01  7.59869910E+00  7.59869910E+00 -1.51973982E+01  7.59869910E+00
  7.59869910E+00 -1.51973982E+01  7.59869910E+00  7.59869910E+00 -1.51973982E+01
  7.59869910E+00  7.59869910E+00 -1.51973982E+01  7.59869910E+00  7.59869910E+00
 -1.51973982E+01  7.59869910E+00  7.59869910E+00 -1.51973982E+01  7.59869910E+00
  7.59869910E+00 -1.51973982E+01  7.59869910E+00  7.59869910E+00 -1.51973982E+01
  7.59869910E+00  7.59869910E+00 -1.51973982E+01  7.59869910E+00  7.59869910E+00
 -1.51973982E+01  7.59869910E+00  7.59869910E+00 -1.51973982E+01  7.59869910E+00
  7.59869910E+00 -1.51973982E+01  7.59869910E+00  7.59869910E+00 -1.51973982E+01
  7.59869910E+00  7.59869910E+00 -1.51973982E+01  7.59869910E+00  7.59869910E+00
 -1.51973982E+01  7.59869910E+00  7.59869910E+00 -1.51973982E+01  7.59869910E+00
  7.59869910E+00 -1.51973982E+01  7.59869910E+00  7.59869910E+00 -1.51973982E+01
  7.59869910E+00  7.59869910E+00 -1.51973982E+01  7.59869910E+00  7.59869910E+00
 -1.51973982E+01  7.59869910E+00  7.59869910E+00 -1.51973982E+01  7.59869910E+00
  7.59869910E+00 -1.51973982E+01  7.59869910E+00  7.59869910E+00 -1.51973982E+01
  7.59869910E+00  7.59869910E+00 -1.51973982E+01  7.59869910E+00  7.59869910E+00
 -1.51973982E+01  7.59869910E+00  7.59869910E+00 -1.51973982E+01  7.59869910E+00
  7.59869910E+00 -1.51973982E+01  7.59869910E+00  7.59869910E+00 -1.51973982E+01
  7.59869910E+00  7.59869910E+00 -1.51973982E+01  7.59869910E+00  7.59869910E+00
 -1.51973982E+01  7.59869910E+00  7.59869910E+00 -1.51973982E+01  7.59869910E+00
  7.59869910E+00 -1.51973982E+01  7.59869910E+00  7.59869910E+00 -1.51973982E+01
  7.59869910E+00  7.59869910E+00 -1.51973982E+01  7.59869910E+00  7.59869910E+00
 -1.51973982E+01  7.59869910E+00  7.59869910E+00 -1.51973982E+01  7.59869910E+00
  7.59869910E+00 -1.51973982E+01  7.59869910E+00  7.59869910E+00 -1.51973982E+01
  7.59869910E+00  7.59869910E+00 -1.51973982E+01  7.59869910E+00  7.59869910E+00
 -1.51973982E+01  7.59869910E+00  7.59869910E+00 -1.51973982E+01  7.59869910E+00
  7.59869910E+00 -1.51973982E+01  7.59869910E+00  7.59869910E+00 -1.51973982E+01
  7.59869910E+00  7.59869910E+00 -1.51973982E+01  7.59869910E+00  7.59869910E+00
 -1.51973982E+01  7.59869910E+00  7.59869910E+00 -1.51973982E+01  7.59869910E+00
  7.59869910E+00 -1.51973982E+01  7.59869910E+00  7.59869910E+00 -1.51973982E+01
  7.59869910E+00  7.59869910E+00 -1.51973982E+01  7.59869910E+00  7.59869910E+00
 -1.51973982E+01  7.59869910E+00  7.59869910E+00 -1.51973982E+01  7.59869910E+00
  7.59869910E+00 -1.51973982E+01  7.59869910E+00  7.59869910E+00 -1.51973982E+01
  7.59869910E+00  7.59869910E+00 -1.51973982E+01  7.59869910E+00  7.59869910E+00
 -1.51973982E+01  7.59869910E+00  7.59869910E+00 -1.51973982E+01  7.59869910E+00
  7.59869910E+00 -1.51973982E+01  7.59869910E+00  7.59869910E+00 -1.51973982E+01
  7.59869910E+00  7.59869910E+00 -1.51973982E+01  7.59869910E+00  7.59869910E+00
 -1.51973982E+01  7.59869910E+00  7.59869910E+00 -1.51973982E+01  7.59869910E+00
  7.59869910E+00 -1.51973982E+01  7.59869910E+00  7.59869910E+00 -1.51973982E+01
  7.59869910E+00  7.59869910E+00 -1.51973982E+01  7.59869910E+00  7.59869910E+00
 -1.51973982E+01  7.59869910E+00  7.59869910E+00 -1.51973982E+01  7.59869910E+00
  7.59869910E+00 -1.51973982E+01  7.59869910E+00  7.59869910E+00 -1.51973982E+01
  7.59869910E+00  7.59869910E+00 -1.51973982E+01  7.59869910E+00  7.59869910E+00
 -1.51973982E+01  7.59869910E+00  7.59869910E+00 -1.51973982E+01  7.59869910E+00
  7.59869910E+00 -1.51973982E+01  7.59869910E+00  7.59869910E+00 -1.51973982E+01
  7.59869910E+00  7.59869910E+00 -1.51973982E+01  7.59869910E+00  7.59869910E+00
 -1.51973982E+01  7.59869910E+00  7.59869910E+00 -1.51973982E+01  7.59869910E+00
  7.59869910E+00 -1.51973982E+01  7.59869910E+00  7.59869910E+00 -1.51973982E+01
  7.59869910E+00  7.59869910E+00 -1.51973982E+01  7.59869910E+00  7.59869910E+00
 -1.51973982E+01  7.59869910E+00  7.59869910E+00 -1.51973982E+01  7.59869910E+00
  7.59869910E+00 -1.51973982E+01  7.59869910E+00  7.59869910E+00 -1.51973982E+01
  7.59869910E+00  7.59869910E+00 -1.51973982E+01  7.59869910E+00  7.59869910E+00
 -1.51973982E+01  7.59869910E+00  7.59869910E+00 -1.51973982E+01  7.59869910E+00
  7.59869910E+00 -1.51973982E+01  7.59869910E+00  7.59869910E+00 -1.51973982E+01
  7.59869910E+00  7.59869910E+00 -1.51973982E+01  7.59869910E+00  7.59869910E+00
 -1.51973982E+01  7.59869910E+00  7.59869910E+00 -1.51973982E+01  7.59869910E+00
  7.59869910E+00 -1.51973982E+01  7.59869910E+00  7.59869910E+00 -1.51973982E+01
  7.59869910E+00  7.59869910E+00 -1.51973982E+01  7.59869910E+00  7.59869910E+00
 -1.51973982E+01  7.59869910E+00  7.59869910E+00 -1.51973982E+01  7.59869910E+00
  7.59869910E+00 -1.51973982E+01  7.59869910E+00  7.59869910E+00 -1.51973982E+01
  7.59869910E+00  7.59869910E+00 -1.51973982E+01  7.59869910E+00  7.59869910E+00
 -1.51973982E+01  7.59869910E+00  7.59869910E+00 -1.51973982E+01  7.59869910E+00
  7.59869910E+00 -1.51973982E+01  7.59869910E+00  7.59869910E+00 -1.51973982E+01
  7.59869910E+00  7.59869910E+00 -1.51973982E+01  7.59869910E+00  7.59869910E+00
 -1.51973982E+01  7.59869910E+00  7.59869910E+00 -1.51973982E+01  7.59869910E+00
  7.59869910E+00 -1.51973982E+01  7.59869910E+00  7.59869910E+00 -1.51973982E+01
  7.59869910E+00  7.59869910E+00 -1.51973982E+01  7.59869910E+00  7.59869910E+00
 -1.51973982E+01  7.59869910E+00  7.59869910E+00 -1.51973982E+01  7.59869910E+00
  7.59869910E+00 -1.51973982E+01  7.59869910E+00  7.59869910E+00 -1.51973982E+01
  7.59869910E+00  7.59869910E+00 -1.51973982E+01  7.59869910E+00  7.59869910E+00
 -1.51973982E+01  7.59869910E+00  7.59869910E+00 -1.51973982E+01  7.59869910E+00
  7.59869910E+00 -1.51973982E+01  7.59869910E+00  7.59869910E+00 -1.51973982E+01
  7.59869910E+00  7.59869910E+00 -1.51973982E+01  7.59869910E+00  7.59869910E+00
 -1.51973982E+01  7.59869910E+00  7.59869910E+00 -1.51973982E+01  7.59869910E+00
  7.59869910E+00 -1.51973982E+01  7.59869910E+00  7.59869910E+00 -1.51973982E+01
  7.59869910E+00  7.59869910E+00 -1.51973982E+01  7.59869910E+00  7.59869910E+00
 -1.51973982E+01  7.59869910E+00  7.59869910E+00 -1.51973982E+01  7.59869910E+00
  7.59869910E+00 -1.51973982E+01  7.59869910E+00  7.59869910E+00 -1.51973982E+01
  7.59869910E+00  7.59869910E+00 -1.51973982E+01  7.59869910E+00  7.59869910E+00
 -1.51973982E+01  7.59869910E+00  7.59869910E+00 -1.51973982E+01  7.59869910E+00
  7.59869910E+00 -1.51973982E+01  7.59869910E+00  7.59869910E+00 -1.51973982E+01
  7.59869910E+00  7.59869910E+00 -1.51973982E+01  7.59869910E+00  7.59869910E+00
 -1.51973982E+01  7.59869910E+00  7.59869910E+00 -1.51973982E+01  7.59869910E+00
  7.59869910E+00 -1.51973982E+01  7.59869910E+00  7.59869910E+00 -1.51973982E+01
  7.59869910E+00  7.59869910E+00 -1.51973982E+01  7.59869910E+00  7.59869910E+00
 -1.51973982E+01  7.59869910E+00  7.59869910E+00 -1.51973982E+01  7.59869910E+00
  7.59869910E+00 -1.51973982E+01  7.59869910E+00  7.59869910E+00 -1.51973982E+01
  7.59869910E+00  7.59869910E+00 -1.51973982E+01  7.59869910E+00  7.59869910E+00
 -1.51973982E+01  7.59869910E+00  7.59869910E+00 -1.51973982E+01  7.59869910E+00
  7.59869910E+00 -1.51973982E+01  7.59869910E+00  7.59869910E+00 -1.51973982E+01
  7.59869910E+00  7.59869910E+00 -1.51973982E+01  7.59869910E+00  7.59869910E+00
 -1.51973982E+01  7.59869910E+00  7.59869910E+00 -1.51973982E+01  7.59869910E+00
  7.59869910E+00 -1.51973982E+01  7.59869910E+00  7.59869910E+00 -1.51973982E+01
  7.59869910E+00  7.59869910E+00 -1.51973982E+01  7.59869910E+00  7.59869910E+00
 -1.51973982E+01  7.59869910E+00  7.59869910E+00 -1.51973982E+01  7.59869910E+00
  7.59869910E+00 -1.51973982E+01  7.59869910E+00  7.59869910E+00 -1.51973982E+01
  7.59869910E+00  7.59869910E+00 -1.51973982E+01  7.59869910E+00  7.59869910E+00
 -1.51973982E+01  7.59869910E+00  7.59869910E+00 -1.51973982E+01  7.59869910E+00
  7.59869910E+00 -1.51973982E+01  7.59869910E+00  7.59869910E+00 -1.51973982E+01
  7.59869910E+00  7.59869910E+00 -1.51973982E+01  7.59869910E+00  7.59869910E+00
 -1.51973982E+01  7.59869910E+00  7.59869910E+00 -1.51973982E+01  7.59869910E+00
  7.59869910E+00 -1.51973982E+01  7.59869910E+00  7.59869910E+00 -1.51973982E+01
  7.59869910E+00  7.59869910E+00 -1.51973982E+01  7.59869910E+00  7.59869910E+00
 -1.51973982E+01  7.59869910E+00  7.59869910E+00 -1.51973982E+01  7.59869910E+00
  7.59869910E+00 -1.51973982E+01  7.59869910E+00  7.59869910E+00 -1.51973982E+01
  7.59869910E+00  7.59869910E+00 -1.51973982E+01  7.59869910E+00  7.59869910E+00
 -1.51973982E+01  7.59869910E+00  7.59869910E+00 -1.51973982E+01  7.59869910E+00
  7.59869910E+00 -1.51973982E+01  7.59869910E+00  7.59869910E+00 -1.51973982E+01
  7.59869910E+00  7.59869910E+00 -1.51973982E+01  7.59869910E+00  7.59869910E+00
 -1.51973982E+01  7.59869910E+00  7.59869910E+00 -1.51973982E+01  7.59869910E+00
  7.59869910E+00 -1.51973982E+01  7.59869910E+00  7.59869910E+00 -1.51973982E+01
  7.59869910E+00  7.59869910E+00 -1.51973982E+01  7.59869910E+00  7.59869910E+00
 -1.51973982E+01  7.59869910E+00  7.59869910E+00 -1.51973982E+01  7.59869910E+00
  7.59869910E+00 -1.51973982E+01  7.59869910E+00  7.59869910E+00 -1.51973982E+01
  7.59869910E+00  7.59869910E+00 -1.51973982E+01  7.59869910E+00  7.59869910E+00
 -1.51973982E+01  7.59869910E+00  7.59869910E+00 -1.51973982E+01  7.59869910E+00
  7.59869910E+00 -1.51973982E+01  7.59869910E+00  7.59869910E+00 -1.51973982E+01
  7.59869910E+00  7.59869910E+00 -1.51973982E+01  7.59869910E+00  7.59869910E+00
 -1.51973982E+01  7.59869910E+00  7.59869910E+00 -1.51973982E+01  7.59869910E+00
  7.59869910E+00 -1.51973982E+01  7.59869910E+00  7.59869910E+00 -1.51973982E+01
  7.59869910E+00  7.59869910E+00 -1.51973982E+01  7.59869910E+00  7.59869910E+00
 -1.51973982E+01  7.59869910E+00  7.59869910E+00 -1.51973982E+01  7.59869910E+00
  7.59869910E+00 -1.51973982E+01  7.59869910E+00  7.59869910E+00 -1.51973982E+01
  7.59869910E+00  7.59869910E+00 -1.51973982E+01  7.59869910E+00  7.59869910E+00
 -1.51973982E+01  7.59869910E+00  7.59869910E+00 -1.51973982E+01  7.59869910E+00
  7.59869910E+00 -1.51973982E+01  7.59869910E+00  7.59869910E+00 -1.51973982E+01
  7.59869910E+00  7.59869910E+00 -1.51973982E+01  7.59869910E+00  7.59869910E+00
 -1.51973982E+01  7.59869910E+00  7.59869910E+00 -1.51973982E+01  7.59869910E+00
  7.59869910E+00 -1.51973982E+01  7.59869910E+00  7.59869910E+00 -1.51973982E+01
  7.59869910E+00  7.59869910E+00 -1.51973982E+01  7.59869910E+00  7.59869910E+00
 -1.51973982E+01  7.59869910E+00  7.59869910E+00 -1.51973982E+01  7.59869910E+00
  7.59869910E+00 -1.51973982E+01  7.59869910E+00  7.59869910E+00 -1.51973982E+01
  7.59869910E+00  7.59869910E+00 -1.51973982E+01  7.59869910E+00  7.59869910E+00
 -1.51973982E+01  7.59869910E+00  7.59869910E+00 -1.51973982E+01  7.59869910E+00
  7.59869910E+00 -1.51973982E+01  7.59869910E+00  7.59869910E+00 -1.51973982E+01
  7.59869910E+00  7.59869910E+00 -1.51973982E+01  7.59869910E+00  7.59869910E+00
 -1.51973982E+01  7.59869910E+00  7.59869910E+00 -1.51973982E+01  7.59869910E+00
  7.59869910E+00 -1.51973982E+01  7.59869910E+00  7.59869910E+00 -1.51973982E+01
  7.59869910E+00  7.59869910E+00 -1.51973982E+01  7.59869910E+00  7.59869910E+00
 -1.51973982E+01  7.59869910E+00  7.59869910E+00 -1.51973982E+01  7.59869910E+00
  7.59869910E+00 -1.51973982E+01  7.59869910E+00  7.59869910E+00 -1.51973982E+01
  7.59869910E+00  7.59869910E+00 -1.51973982E+01  7.59869910E+00  7.59869910E+00
 -1.51973982E+01  7.59869910E+00  7.59869910E+00 -1.51973982E+01  7.59869910E+00
  7.59869910E+00 -1.51973982E+01  7.59869910E+00  7.59869910E+00 -1.51973982E+01
  7.59869910E+00  7.59869910E+00 -1.51973982E+01  7.59869910E+00  7.59869910E+00
 -1.51973982E+01  7.59869910E+00  7.59869910E+00 -1.51973982E+01  7.59869910E+00
  7.59869910E+00 -1.51973982E+01  7.59869910E+00  7.59869910E+00 -1.51973982E+01
  7.59869910E+00  7.59869910E+00 -1.51973982E+01  7.59869910E+00  7.59869910E+00
 -1.51973982E+01  7.59869910E+00  7.59869910E+00 -1.51973982E+01  7.59869910E+00
  7.59869910E+00 -1.51973982E+01  7.59869910E+00  7.59869910E+00 -1.51973982E+01
  7.59869910E+00  7.59869910E+00 -1.51973982E+01  7.59869910E+00  7.59869910E+00
 -1.51973982E+01  7.59869910E+00  7.59869910E+00 -1.51973982E+01  7.59869910E+00
  7.59869910E+00 -1.51973982E+01  7.59869910E+00  7.59869910E+00 -1.51973982E+01
  7.59869910E+00  7.59869910E+00 -1.51973982E+01  7.59869910E+00  7.59869910E+00
 -1.51973982E+01  7.59869910E+00  7.59869910E+00 -1.51973982E+01  7.59869910E+00
  7.59869910E+00 -1.51973982E+01  7.59869910E+00  7.59869910E+00 -1.51973982E+01
  7.59869910E+00  7.59869910E+00 -1.51973982E+01  7.59869910E+00  7.59869910E+00
 -1.51973982E+01  7.59869910E+00  7.59869910E+00 -1.51973982E+01  7.59869910E+00
  7.59869910E+00 -1.51973982E+01  7.59869910E+00  7.59869910E+00 -1.51973982E+01
  7.59869910E+00  7.59869910E+00 -1.51973982E+01  7.59869910E+00  7.59869910E+00
 -1.51973982E+01  7.59869910E+00  7.59869910E+00 -1.51973982E+01  7.59869910E+00
  7.59869910E+00 -1.51973982E+01  7.59869910E+00  7.59869910E+00 -1.51973982E+01
  7.59869910E+00  7.59869910E+00 -1.51973982E+01  7.59869910E+00  7.59869910E+00
 -1.51973982E+01  7.59869910E+00  7.59869910E+00 -1.51973982E+01  7.59869910E+00
  7.59869910E+00 -1.51973982E+01  7.59869910E+00  7.59869910E+00 -1.51973982E+01
  7.59869910E+00  7.59869910E+00 -1.51973982E+01  7.59869910E+00  7.59869910E+00
 -1.51973982E+01  7.59869910E+00  7.59869910E+00 -1.51973982E+01  7.59869910E+00
  7.59869910E+00 -1.51973982E+01  7.59869910E+00  7.59869910E+00 -1.51973982E+01
  7.59869910E+00  7.59869910E+00 -1.51973982E+01  7.59869910E+00  7.59869910E+00
 -1.51973982E+01  7.59869910E+00  7.59869910E+00 -1.51973982E+01  7.59869910E+00
  7.59869910E+00 -1.51973982E+01  7.59869910E+00  7.59869910E+00 -1.51973982E+01
  7.59869910E+00  7.59869910E+00 -1.51973982E+01  7.59869910E+00  7.59869910E+00
 -1.51973982E+01  7.59869910E+00  7.59869910E+00 -1.51973982E+01  7.59869910E+00
  7.59869910E+00 -1.51973982E+01  7.59869910E+00  7.59869910E+00 -1.51973982E+01
  7.59869910E+00  7.59869910E+00 -1.51973982E+01  7.59869910E+00  7.59869910E+00
 -1.51973982E+01  7.59869910E+00  7.59869910E+00 -1.51973982E+01  7.59869910E+00
  7.59869910E+00 -1.51973982E+01  7.59869910E+00  7.59869910E+00 -1.51973982E+01
  7.59869910E+00  7.59869910E+00 -1.51973982E+01  7.59869910E+00  7.59869910E+00
 -1.51973982E+01  7.59869910E+00  7.59869910E+00 -1.51973982E+01  7.59869910E+00
  7.59869910E+00 -1.51973982E+01  7.59869910E+00  7.59869910E+00 -1.51973982E+01
  7.59869910E+00  7.59869910E+00 -1.51973982E+01  7.59869910E+00  7.59869910E+00
 -1.51973982E+01  7.59869910E+00  7.59869910E+00 -1.51973982E+01  7.59869910E+00
  7.59869910E+00 -1.51973982E+01  7.59869910E+00  7.59869910E+00 -1.51973982E+01
  7.59869910E+00  7.59869910E+00 -1.51973982E+01  7.59869910E+00  7.59869910E+00
 -1.51973982E+01  7.59869910E+00  7.59869910E+00 -1.51973982E+01  7.59869910E+00
  7.59869910E+00 -1.51973982E+01  7.59869910E+00  7.59869910E+00 -1.51973982E+01
  7.59869910E+00  7.59869910E+00 -1.51973982E+01  7.59869910E+00  7.59869910E+00
 -1.51973982E+01  7.59869910E+00  7.59869910E+00 -1.51973982E+01  7.59869910E+00
  7.59869910E+00 -1.51973982E+01  7.59869910E+00  7.59869910E+00 -1.51973982E+01
  7.59869910E+00  7.59869910E+00 -1.51973982E+01  7.59869910E+00  7.59869910E+00
 -1.51973982E+01  7.59869910E+00  7.59869910E+00 -1.51973982E+01  7.59869910E+00
  7.59869910E+00 -1.51973982E+01  7.59869910E+00  7.59869910E+00 -1.51973982E+01
  7.59869910E+00  7.59869910E+00 -1.51973982E+01  7.59869910E+00  7.59869910E+00
 -1.51973982E+01  7.59869910E+00  7.59869910E+00 -1.51973982E+01  7.59869910E+00
  7.59869910E+00 -1.51973982E+01  7.59869910E+00  7.59869910E+00 -1.51973982E+01
  7.59869910E+00  7.59869910E+00 -1.51973982E+01  7.59869910E+00  7.59869910E+00
 -1.51973982E+01  7.59869910E+00  7.59869910E+00 -1.51973982E+01  7.59869910E+00
  7.59869910E+00 -1.51973982E+01  7.59869910E+00  7.59869910E+00 -1.51973982E+01
  7.59869910E+00  7.59869910E+00 -1.51973982E+01  7.59869910E+00  7.59869910E+00
 -1.51973982E+01  7.59869910E+00  7.59869910E+00 -1.51973982E+01  7.59869910E+00
  7.59869910E+00 -1.51973982E+01  7.59869910E+00  7.59869910E+00 -1.51973982E+01
  7.59869910E+00  7.59869910E+00 -1.51973982E+01  7.59869910E+00  7.59869910E+00
 -1.51973982E+01  7.59869910E+00  7.59869910E+00 -1.51973982E+01  7.59869910E+00
  7.59869910E+00 -1.51973982E+01  7.59869910E+00  7.59869910E+00 -1.51973982E+01
  7.59869910E+00  7.59869910E+00 -1.51973982E+01  7.59869910E+00  7.59869910E+00
 -1.51973982E+01  7.59869910E+00  7.59869910E+00 -1.51973982E+01  7.59869910E+00
  7.59869910E+00 -1.51973982E+01  7.59869910E+00  7.59869910E+00 -1.51973982E+01
  7.59869910E+00  7.59869910E+00 -1.51973982E+01  7.59869910E+00  7.59869910E+00
 -1.51973982E+01  7.59869910E+00  7.59869910E+00 -1.51973982E+01  7.59869910E+00
  7.59869910E+00 -1.51973982E+01  7.59869910E+00  7.59869910E+00 -1.51973982E+01
  7.59869910E+00  7.59869910E+00 -1.51973982E+01  7.59869910E+00  7.59869910E+00
 -1.51973982E+01  7.59869910E+00  7.59869910E+00 -1.51973982E+01  7.59869910E+00
  7.59869910E+00 -1.51973982E+01  7.59869910E+00  7.59869910E+00 -1.51973982E+01
  7.59869910E+00  7.59869910E+00 -1.51973982E+01  7.59869910E+00  7.59869910E+00
 -1.51973982E+01  7.59869910E+00  7.59869910E+00 -1.51973982E+01  7.59869910E+00
  7.59869910E+00 -1.51973982E+01  7.59869910E+00  7.59869910E+00 -1.51973982E+01
  7.59869910E+00  7.59869910E+00 -1.51973982E+01  7.59869910E+00  7.59869910E+00
 -1.51973982E+01  7.59869910E+00  7.59869910E+00 -1.51973982E+01  7.59869910E+00
  7.59869910E+00 -1.51973982E+01  7.59869910E+00  7.59869910E+00 -1.51973982E+01
  7.59869910E+00  7.59869910E+00 -1.51973982E+01  7.59869910E+00  7.59869910E+00
 -1.51973982E+01  7.59869910E+00  7.59869910E+00 -1.51973982E+01  7.59869910E+00
  7.59869910E+00 -1.51973982E+01  7.59869910E+00  7.59869910E+00 -1.51973982E+01
  7.59869910E+00  7.59869910E+00 -1.51973982E+01  7.59869910E+00  7.59869910E+00
 -1.51973982E+01  7.59869910E+00  7.59869910E+00 -1.51973982E+01  7.59869910E+00
  7.59869910E+00 -1.51973982E+01  7.59869910E+00  7.59869910E+00 -1.51973982E+01
  7.59869910E+00  7.59869910E+00 -1.51973982E+01  7.59869910E+00  7.59869910E+00
 -1.51973982E+01  7.59869910E+00  7.59869910E+00 -1.51973982E+01  7.59869910E+00
  7.59869910E+00 -1.51973982E+01  7.59869910E+00  7.59869910E+00 -1.51973982E+01
  7.59869910E+00  7.59869910E+00 -1.51973982E+01  7.59869910E+00  7.59869910E+00
 -1.51973982E+01  7.59869910E+00  7.59869910E+00 -1.51973982E+01  7.59869910E+00
  7.59869910E+00 -1.51973982E+01  7.59869910E+00  7.59869910E+00 -1.51973982E+01
  7.59869910E+00  7.59869910E+00 -1.51973982E+01  7.59869910E+00  7.59869910E+00
 -1.51973982E+01  7.59869910E+00  7.59869910E+00 -1.51973982E+01  7.59869910E+00
  7.59869910E+00 -1.51973982E+01  7.59869910E+00  7.59869910E+00 -1.51973982E+01
  7.59869910E+00  7.59869910E+00 -1.51973982E+01  7.59869910E+00  7.59869910E+00
 -1.51973982E+01  7.59869910E+00  7.59869910E+00 -1.51973982E+01  7.59869910E+00
  7.59869910E+00 -1.51973982E+01  7.59869910E+00  7.59869910E+00 -1.51973982E+01
  7.59869910E+00  7.59869910E+00 -1.51973982E+01  7.59869910E+00  7.59869910E+00
 -1.51973982E+01  7.59869910E+00  7.59869910E+00 -1.51973982E+01  7.59869910E+00
  7.59869910E+00 -1.51973982E+01  7.59869910E+00  7.59869910E+00 -1.51973982E+01
  7.59869910E+00  7.59869910E+00 -1.51973982E+01  7.59869910E+00  7.59869910E+00
 -1.51973982E+01  7.59869910E+00  7.59869910E+00 -1.51973982E+01  7.59869910E+00
  7.59869910E+00 -1.51973982E+01  7.59869910E+00  7.59869910E+00 -1.51973982E+01
  7.59869910E+00  7.59869910E+00 -1.51973982E+01  7.59869910E+00  7.59869910E+00
 -1.51973982E+01  7.59869910E+00  7.59869910E+00 -1.51973982E+01  7.59869910E+00
  7.59869910E+00 -1.51973982E+01  7.59869910E+00  7.59869910E+00 -1.51973982E+01
  7.59869910E+00  7.59869910E+00 -1.51973982E+01  7.59869910E+00  7.59869910E+00
 -1.51973982E+01  7.59869910E+00  7.59869910E+00 -1.51973982E+01  7.59869910E+00
  7.59869910E+00 -1.51973982E+01  7.59869910E+00  7.59869910E+00 -1.51973982E+01
  7.59869910E+00  7.59869910E+00 -1.51973982E+01  7.59869910E+00  7.59869910E+00
 -1.51973982E+01  7.59869910E+00  7.59869910E+00 -1.51973982E+01  7.59869910E+00
  7.59869910E+00 -1.51973982E+01  7.59869910E+00  7.59869910E+00 -1.51973982E+01
  7.59869910E+00  7.59869910E+00 -1.51973982E+01  7.59869910E+00  7.59869910E+00
 -1.51973982E+01  7.59869910E+00  7.59869910E+00 -1.51973982E+01  7.59869910E+00
  7.59869910E+00 -1.51973982E+01  7.59869910E+00  7.59869910E+00 -1.51973982E+01
  7.59869910E+00  7.59869910E+00 -1.51973982E+01  7.59869910E+00  7.59869910E+00
 -1.51973982E+01  7.59869910E+00  7.59869910E+00 -1.51973982E+01  7.59869910E+00
  7.59869910E+00 -1.51973982E+01  7.59869910E+00  7.59869910E+00 -1.51973982E+01
  7.59869910E+00  7.59869910E+00 -1.51973982E+01  7.59869910E+00  7.59869910E+00
 -1.51973982E+01  7.59869910E+00  7.59869910E+00 -1.51973982E+01  7.59869910E+00
  7.59869910E+00 -1.51973982E+01  7.59869910E+00  7.59869910E+00 -1.51973982E+01
  7.59869910E+00  7.59869910E+00 -1.51973982E+01  7.59869910E+00  7.59869910E+00
 -1.51973982E+01  7.59869910E+00  7.59869910E+00 -1.51973982E+01  7.59869910E+00
  7.59869910E+00 -1.51973982E+01  7.59869910E+00  7.59869910E+00 -1.51973982E+01
  7.59869910E+00  7.59869910E+00 -1.51973982E+01  7.59869910E+00  7.59869910E+00
 -1.51973982E+01  7.59869910E+00  7.59869910E+00 -1.51973982E+01  7.59869910E+00
  7.59869910E+00 -1.51973982E+01  7.59869910E+00  7.59869910E+00 -1.51973982E+01
  7.59869910E+00  7.59869910E+00 -1.51973982E+01  7.59869910E+00  7.59869910E+00
 -1.51973982E+01  7.59869910E+00  7.59869910E+00 -1.51973982E+01  7.59869910E+00
  7.59869910E+00 -1.51973982E+01  7.59869910E+00  7.59869910E+00 -1.51973982E+01
  7.59869910E+00  7.59869910E+00 -1.51973982E+01  7.59869910E+00  7.59869910E+00
 -1.51973982E+01  7.59869910E+00  7.59869910E+00 -1.51973982E+01  7.59869910E+00
  7.59869910E+00 -1.51973982E+01  7.59869910E+00  7.59869910E+00 -1.51973982E+01
  7.59869910E+00  7.59869910E+00 -1.51973982E+01  7.59869910E+00  7.59869910E+00
 -1.51973982E+01  7.59869910E+00  7.59869910E+00 -1.51973982E+01  7.59869910E+00
  7.59869910E+00 -1.51973982E+01  7.59869910E+00  7.59869910E+00 -1.51973982E+01
  7.59869910E+00  7.59869910E+00 -1.51973982E+01  7.59869910E+00  7.59869910E+00
 -1.51973982E+01  7.59869910E+00  7.59869910E+00 -1.51973982E+01  7.59869910E+00
  7.59869910E+00 -1.51973982E+01  7.59869910E+00  7.59869910E+00 -1.51973982E+01
  7.59869910E+00  7.59869910E+00 -1.51973982E+01  7.59869910E+00  7.59869910E+00
 -1.51973982E+01  7.59869910E+00  7.59869910E+00 -1.51973982E+01  7.59869910E+00
  7.59869910E+00 -1.51973982E+01  7.59869910E+00  7.59869910E+00 -1.51973982E+01
  7.59869910E+00  7.59869910E+00 -1.51973982E+01  7.59869910E+00  7.59869910E+00
 -1.51973982E+01  7.59869910E+00  7.59869910E+00 -1.51973982E+01  7.59869910E+00
  7.59869910E+00 -1.51973982E+01  7.59869910E+00  7.59869910E+00 -1.51973982E+01
  7.59869910E+00  7.59869910E+00 -1.51973982E+01  7.59869910E+00  7.59869910E+00
 -1.51973982E+01  7.59869910E+00  7.59869910E+00 -1.51973982E+01  7.59869910E+00
  7.59869910E+00 -1.51973982E+01  7.59869910E+00  7.59869910E+00 -1.51973982E+01
  7.59869910E+00  7.59869910E+00 -1.51973982E+01  7.59869910E+00  7.59869910E+00
 -1.51973982E+01  7.59869910E+00  7.59869910E+00 -1.51973982E+01  7.59869910E+00
  7.59869910E+00 -1.51973982E+01  7.59869910E+00  7.59869910E+00 -1.51973982E+01
  7.59869910E+00  7.59869910E+00 -1.51973982E+01  7.59869910E+00  7.59869910E+00
 -1.51973982E+01  7.59869910E+00  7.59869910E+00 -1.51973982E+01  7.59869910E+00
  7.59869910E+00 -1.51973982E+01  7.59869910E+00  7.59869910E+00 -1.51973982E+01
  7.59869910E+00  7.59869910E+00 -1.51973982E+01  7.59869910E+00  7.59869910E+00
 -1.51973982E+01  7.59869910E+00  7.59869910E+00 -1.51973982E+01  7.59869910E+00
  7.59869910E+00 -1.51973982E+01  7.59869910E+00  7.59869910E+00 -1.51973982E+01
  7.59869910E+00  7.59869910E+00 -1.51973982E+01  7.59869910E+00  7.59869910E+00
 -1.51973982E+01  7.59869910E+00  7.59869910E+00 -1.51973982E+01  7.59869910E+00
  7.59869910E+00 -1.51973982E+01  7.59869910E+00  7.59869910E+00 -1.51973982E+01
  7.59869910E+00  7.59869910E+00 -1.51973982E+01  7.59869910E+00  7.59869910E+00
 -1.51973982E+01  7.59869910E+00  7.59869910E+00 -1.51973982E+01  7.59869910E+00
  7.59869910E+00 -1.51973982E+01  7.59869910E+00  7.59869910E+00 -1.51973982E+01
  7.59869910E+00  7.59869910E+00 -1.51973982E+01  7.59869910E+00  7.59869910E+00
 -1.51973982E+01  7.59869910E+00  7.59869910E+00 -1.51973982E+01  7.59869910E+00
  7.59869910E+00 -1.51973982E+01  7.59869910E+00  7.59869910E+00 -1.51973982E+01
  7.59869910E+00  7.59869910E+00 -1.51973982E+01  7.59869910E+00  7.59869910E+00
 -1.51973982E+01  7.59869910E+00  7.59869910E+00 -1.51973982E+01  7.59869910E+00
  7.59869910E+00 -1.51973982E+01  7.59869910E+00  7.59869910E+00 -1.51973982E+01
  7.59869910E+00  7.59869910E+00 -1.51973982E+01  7.59869910E+00  7.59869910E+00
 -1.51973982E+01  7.59869910E+00  7.59869910E+00 -1.51973982E+01  7.59869910E+00
  7.59869910E+00 -1.51973982E+01  7.59869910E+00  7.59869910E+00 -1.51973982E+01
  7.59869910E+00  7.59869910E+00 -1.51973982E+01  7.59869910E+00  7.59869910E+00
 -1.51973982E+01  7.59869910E+00  7.59869910E+00 -1.51973982E+01  7.59869910E+00
  7.59869910E+00 -1.51973982E+01  7.59869910E+00  7.59869910E+00 -1.51973982E+01
  7.59869910E+00  7.59869910E+00 -1.51973982E+01  7.59869910E+00  7.59869910E+00
 -1.51973982E+01  7.59869910E+00  7.59869910E+00 -1.51973982E+01  7.59869910E+00
  7.59869910E+00 -1.51973982E+01  7.59869910E+00  7.59869910E+00 -1.51973982E+01
  7.59869910E+00  7.59869910E+00 -1.51973982E+01  7.59869910E+00  7.59869910E+00
 -1.51973982E+01  7.59869910E+00  7.59869910E+00 -1.51973982E+01  7.59869910E+00
  7.59869910E+00 -1.51973982E+01  7.59869910E+00  7.59869910E+00 -1.51973982E+01
  7.59869910E+00  7.59869910E+00 -1.51973982E+01  7.59869910E+00  7.59869910E+00
 -1.51973982E+01  7.59869910E+00  7.59869910E+00 -1.51973982E+01  7.59869910E+00
  7.59869910E+00 -1.51973982E+01  7.59869910E+00  7.59869910E+00 -1.51973982E+01
  7.59869910E+00  7.59869910E+00 -1.51973982E+01  7.59869910E+00  7.59869910E+00
 -1.51973982E+01  7.59869910E+00  7.59869910E+00 -1.51973982E+01  7.59869910E+00
  7.59869910E+00 -1.51973982E+01  7.59869910E+00  7.59869910E+00 -1.51973982E+01
  7.59869910E+00  7.59869910E+00 -1.51973982E+01  7.59869910E+00  7.59869910E+00
 -1.51973982E+01  7.59869910E+00  7.59869910E+00 -1.51973982E+01  7.59869910E+00
  7.59869910E+00 -1.51973982E+01  7.59869910E+00  7.59869910E+00 -1.51973982E+01
  7.59869910E+00  7.59869910E+00 -1.51973982E+01  7.59869910E+00  7.59869910E+00
 -1.51973982E+01  7.59869910E+00  7.59869910E+00 -1.51973982E+01  7.59869910E+00
  7.59869910E+00 -1.51973982E+01  7.59869910E+00  7.59869910E+00 -1.51973982E+01
  7.59869910E+00  7.59869910E+00 -1.51973982E+01  7.59869910E+00  7.59869910E+00
 -1.51973982E+01  7.59869910E+00  7.59869910E+00 -1.51973982E+01  7.59869910E+00
  7.59869910E+00 -1.51973982E+01  7.59869910E+00  7.59869910E+00 -1.51973982E+01
  7.59869910E+00  7.59869910E+00 -1.51973982E+01  7.59869910E+00  7.59869910E+00
 -1.51973982E+01  7.59869910E+00  7.59869910E+00 -1.51973982E+01  7.59869910E+00
  7.59869910E+00 -1.51973982E+01  7.59869910E+00  7.59869910E+00 -1.51973982E+01
  7.59869910E+00  7.59869910E+00 -1.51973982E+01  7.59869910E+00  7.59869910E+00
 -1.51973982E+01  7.59869910E+00  7.59869910E+00 -1.51973982E+01  7.59869910E+00
  7.59869910E+00 -1.51973982E+01  7.59869910E+00  7.59869910E+00 -1.51973982E+01
  7.59869910E+00  7.59869910E+00 -1.51973982E+01  7.59869910E+00  7.59869910E+00
 -1.51973982E+01  7.59869910E+00  7.59869910E+00 -1.51973982E+01  7.59869910E+00
  7.59869910E+00 -1.51973982E+01  7.59869910E+00  7.59869910E+00 -1.51973982E+01
  7.59869910E+00  7.59869910E+00 -1.51973982E+01  7.59869910E+00  7.59869910E+00
 -1.51973982E+01  7.59869910E+00  7.59869910E+00 -1.51973982E+01  7.59869910E+00
  7.59869910E+00 -1.51973982E+01  7.59869910E+00  7.59869910E+00 -1.51973982E+01
  7.59869910E+00  7.59869910E+00 -1.51973982E+01  7.59869910E+00  7.59869910E+00
 -1.51973982E+01  7.59869910E+00  7.59869910E+00 -1.51973982E+01  7.59869910E+00
  7.59869910E+00 -1.51973982E+01  7.59869910E+00  7.59869910E+00 -1.51973982E+01
  7.59869910E+00  7.59869910E+00 -1.51973982E+01  7.59869910E+00  7.59869910E+00
 -1.51973982E+01  7.59869910E+00  7.59869910E+00 -1.51973982E+01  7.59869910E+00
  7.59869910E+00 -1.51973982E+01  7.59869910E+00  7.59869910E+00 -1.51973982E+01
  7.59869910E+00  7.59869910E+00 -1.51973982E+01  7.59869910E+00  7.59869910E+00
 -1.51973982E+01  7.59869910E+00  7.59869910E+00 -1.51973982E+01  7.59869910E+00
  7.59869910E+00 -1.51973982E+01  7.59869910E+00  7.59869910E+00 -1.51973982E+01
  7.59869910E+00  7.59869910E+00 -1.51973982E+01  7.59869910E+00  7.59869910E+00
 -1.51973982E+01  7.59869910E+00  7.59869910E+00 -1.51973982E+01  7.59869910E+00
  7.59869910E+00 -1.51973982E+01  7.59869910E+00  7.59869910E+00 -1.51973982E+01
  7.59869910E+00  7.59869910E+00 -1.51973982E+01  7.59869910E+00  7.59869910E+00
 -1.51973982E+01  7.59869910E+00  7.59869910E+00 -1.51973982E+01  7.59869910E+00
  7.59869910E+00 -1.51973982E+01  7.59869910E+00  7.59869910E+00 -1.51973982E+01
  7.59869910E+00  7.59869910E+00 -1.51973982E+01  7.59869910E+00  7.59869910E+00
 -1.51973982E+01  7.59869910E+00  7.59869910E+00 -1.51973982E+01  7.59869910E+00
  7.59869910E+00 -1.51973982E+01  7.59869910E+00  7.59869910E+00 -1.51973982E+01
  7.59869910E+00  7.59869910E+00 -1.51973982E+01  7.59869910E+00  7.59869910E+00
 -1.51973982E+01  7.59869910E+00  7.59869910E+00 -1.51973982E+01  7.59869910E+00
  7.59869910E+00 -1.51973982E+01  7.59869910E+00  7.59869910E+00 -1.51973982E+01
  7.59869910E+00  7.59869910E+00 -1.51973982E+01  7.59869910E+00  7.59869910E+00
 -1.51973982E+01  7.59869910E+00  7.59869910E+00 -1.51973982E+01  7.59869910E+00
  7.59869910E+00 -1.51973982E+01  7.59869910E+00  7.59869910E+00 -1.51973982E+01
  7.59869910E+00  7.59869910E+00 -1.51973982E+01  7.59869910E+00  7.59869910E+00
 -1.51973982E+01  7.59869910E+00  7.59869910E+00 -1.51973982E+01  7.59869910E+00
  7.59869910E+00 -1.51973982E+01  7.59869910E+00  7.59869910E+00 -1.51973982E+01
  7.59869910E+00  7.59869910E+00 -1.51973982E+01  7.59869910E+00  7.59869910E+00
 -1.51973982E+01  7.59869910E+00  7.59869910E+00 -1.51973982E+01  7.59869910E+00
  7.59869910E+00 -1.51973982E+01  7.59869910E+00  7.59869910E+00 -1.51973982E+01
  7.59869910E+00  7.59869910E+00 -1.51973982E+01  7.59869910E+00  7.59869910E+00
 -1.51973982E+01  7.59869910E+00  7.59869910E+00 -1.51973982E+01  7.59869910E+00
  7.59869910E+00 -1.51973982E+01  7.59869910E+00  7.59869910E+00 -1.51973982E+01
  7.59869910E+00  7.59869910E+00 -1.51973982E+01  7.59869910E+00  7.59869910E+00
 -1.51973982E+01  7.59869910E+00  7.59869910E+00 -1.51973982E+01  7.59869910E+00
  7.59869910E+00 -1.51973982E+01  7.59869910E+00  7.59869910E+00 -1.51973982E+01
  7.59869910E+00  7.59869910E+00 -1.51973982E+01  7.59869910E+00  7.59869910E+00
 -1.51973982E+01  7.59869910E+00  7.59869910E+00 -1.51973982E+01  7.59869910E+00
  7.59869910E+00 -1.51973982E+01  7.59869910E+00  7.59869910E+00 -1.51973982E+01
  7.59869910E+00  7.59869910E+00 -1.51973982E+01  7.59869910E+00  7.59869910E+00
 -1.51973982E+01  7.59869910E+00  7.59869910E+00 -1.51973982E+01  7.59869910E+00
  7.59869910E+00 -1.51973982E+01  7.59869910E+00  7.59869910E+00 -1.51973982E+01
  7.59869910E+00  7.59869910E+00 -1.51973982E+01  7.59869910E+00  7.59869910E+00
 -1.51973982E+01  7.59869910E+00  7.59869910E+00 -1.51973982E+01  7.59869910E+00
  7.59869910E+00 -1.51973982E+01  7.59869910E+00  7.59869910E+00 -1.51973982E+01
  7.59869910E+00  7.59869910E+00 -1.51973982E+01  7.59869910E+00  7.59869910E+00
 -1.51973982E+01  7.59869910E+00  7.59869910E+00 -1.51973982E+01  7.59869910E+00
  7.59869910E+00 -1.51973982E+01  7.59869910E+00  7.59869910E+00 -1.51973982E+01
  7.59869910E+00  7.59869910E+00 -1.51973982E+01  7.59869910E+00  7.59869910E+00
 -1.51973982E+01  7.59869910E+00  7.59869910E+00 -1.51973982E+01  7.59869910E+00
  7.59869910E+00 -1.51973982E+01  7.59869910E+00  7.59869910E+00 -1.51973982E+01
  7.59869910E+00  7.59869910E+00 -1.51973982E+01  7.59869910E+00  7.59869910E+00
 -1.51973982E+01  7.59869910E+00  7.59869910E+00 -1.51973982E+01  7.59869910E+00
  7.59869910E+00 -1.51973982E+01  7.59869910E+00  7.59869910E+00 -1.51973982E+01
  7.59869910E+00  7.59869910E+00 -1.51973982E+01  7.59869910E+00  7.59869910E+00
 -1.51973982E+01  7.59869910E+00  7.59869910E+00 -1.51973982E+01  7.59869910E+00
  7.59869910E+00 -1.51973982E+01  7.59869910E+00  7.59869910E+00 -1.51973982E+01
  7.59869910E+00  7.59869910E+00 -1.51973982E+01  7.59869910E+00  7.59869910E+00
 -1.51973982E+01  7.59869910E+00  7.59869910E+00 -1.51973982E+01  7.59869910E+00
  7.59869910E+00 -1.51973982E+01  7.59869910E+00  7.59869910E+00 -1.51973982E+01
  7.59869910E+00  7.59869910E+00 -1.51973982E+01  7.59869910E+00  7.59869910E+00
 -1.51973982E+01  7.59869910E+00  7.59869910E+00 -1.51973982E+01  7.59869910E+00
  7.59869910E+00 -1.51973982E+01  7.59869910E+00  7.59869910E+00 -1.51973982E+01
  7.59869910E+00  7.59869910E+00 -1.51973982E+01  7.59869910E+00  7.59869910E+00
 -1.51973982E+01  7.59869910E+00  7.59869910E+00 -1.51973982E+01  7.59869910E+00
  7.59869910E+00 -1.51973982E+01  7.59869910E+00  7.59869910E+00 -1.51973982E+01
  7.59869910E+00  7.59869910E+00 -1.51973982E+01  7.59869910E+00  7.59869910E+00
 -1.51973982E+01  7.59869910E+00  7.59869910E+00 -1.51973982E+01  7.59869910E+00
  7.59869910E+00 -1.51973982E+01  7.59869910E+00  7.59869910E+00 -1.51973982E+01
  7.59869910E+00  7.59869910E+00 -1.51973982E+01  7.59869910E+00  7.59869910E+00
 -1.51973982E+01  7.59869910E+00  7.59869910E+00 -1.51973982E+01  7.59869910E+00
  7.59869910E+00 -1.51973982E+01  7.59869910E+00  7.59869910E+00 -1.51973982E+01
  7.59869910E+00  7.59869910E+00 -1.51973982E+01  7.59869910E+00  7.59869910E+00
 -1.51973982E+01  7.59869910E+00  7.59869910E+00 -1.51973982E+01  7.59869910E+00
  7.59869910E+00 -1.51973982E+01  7.59869910E+00  7.59869910E+00 -1.51973982E+01
  7.59869910E+00  7.59869910E+00 -1.51973982E+01  7.59869910E+00  7.59869910E+00
 -1.51973982E+01  7.59869910E+00  7.59869910E+00 -1.51973982E+01  7.59869910E+00
  7.59869910E+00 -1.51973982E+01  7.59869910E+00  7.59869910E+00 -1.51973982E+01
  7.59869910E+00  7.59869910E+00 -1.51973982E+01  7.59869910E+00  7.59869910E+00
 -1.51973982E+01  7.59869910E+00  7.59869910E+00 -1.51973982E+01  7.59869910E+00
  7.59869910E+00 -1.51973982E+01  7.59869910E+00  7.59869910E+00 -1.51973982E+01
  7.59869910E+00  7.59869910E+00 -1.51973982E+01  7.59869910E+00  7.59869910E+00
 -1.51973982E+01  7.59869910E+00  7.59869910E+00 -1.51973982E+01  7.59869910E+00
  7.59869910E+00 -1.51973982E+01  7.59869910E+00  7.59869910E+00 -1.51973982E+01
  7.59869910E+00  7.59869910E+00 -1.51973982E+01  7.59869910E+00  7.59869910E+00
 -1.51973982E+01  7.59869910E+00  7.59869910E+00 -1.51973982E+01  7.59869910E+00
  7.59869910E+00 -1.51973982E+01  7.59869910E+00  7.59869910E+00 -1.51973982E+01
  7.59869910E+00  7.59869910E+00 -1.51973982E+01  7.59869910E+00  7.59869910E+00
 -1.51973982E+01  7.59869910E+00  7.59869910E+00 -1.51973982E+01  7.59869910E+00
  7.59869910E+00 -1.51973982E+01  7.59869910E+00  7.59869910E+00 -1.51973982E+01
  7.59869910E+00  7.59869910E+00 -1.51973982E+01  7.59869910E+00  7.59869910E+00
 -1.51973982E+01  7.59869910E+00  7.59869910E+00 -1.51973982E+01  7.59869910E+00
  7.59869910E+00 -1.51973982E+01  7.59869910E+00  7.59869910E+00 -1.51973982E+01
  7.59869910E+00  7.59869910E+00 -1.51973982E+01  7.59869910E+00  7.59869910E+00
 -1.51973982E+01  7.59869910E+00  7.59869910E+00 -1.51973982E+01  7.59869910E+00
  7.59869910E+00 -1.51973982E+01  7.59869910E+00  7.59869910E+00 -1.51973982E+01
  7.59869910E+00  7.59869910E+00 -1.51973982E+01  7.59869910E+00  7.59869910E+00
 -1.51973982E+01  7.59869910E+00  7.59869910E+00 -1.51973982E+01  7.59869910E+00
  7.59869910E+00 -1.51973982E+01  7.59869910E+00  7.59869910E+00 -1.51973982E+01
  7.59869910E+00  7.59869910E+00 -1.51973982E+01  7.59869910E+00  7.59869910E+00
 -1.51973982E+01  7.59869910E+00  7.59869910E+00 -1.51973982E+01  7.59869910E+00
  7.59869910E+00 -1.51973982E+01  7.59869910E+00  7.59869910E+00 -1.51973982E+01
  7.59869910E+00  7.59869910E+00 -1.51973982E+01  7.59869910E+00  7.59869910E+00
 -1.51973982E+01  7.59869910E+00  7.59869910E+00 -1.51973982E+01  7.59869910E+00
  7.59869910E+00 -1.51973982E+01  7.59869910E+00  7.59869910E+00 -1.51973982E+01
  7.59869910E+00  7.59869910E+00 -1.51973982E+01  7.59869910E+00  7.59869910E+00
 -1.51973982E+01  7.59869910E+00  7.59869910E+00 -1.51973982E+01  7.59869910E+00
  7.59869910E+00 -1.51973982E+01  7.59869910E+00  7.59869910E+00 -1.51973982E+01
  7.59869910E+00  7.59869910E+00 -1.51973982E+01  7.59869910E+00  7.59869910E+00
 -1.51973982E+01  7.59869910E+00  7.59869910E+00 -1.51973982E+01  7.59869910E+00
  7.59869910E+00 -1.51973982E+01  7.59869910E+00  7.59869910E+00 -1.51973982E+01
  7.59869910E+00  7.59869910E+00 -1.51973982E+01  7.59869910E+00  7.59869910E+00
 -1.51973982E+01  7.59869910E+00  7.59869910E+00 -1.51973982E+01  7.59869910E+00
  7.59869910E+00 -1.51973982E+01  7.59869910E+00  7.59869910E+00 -1.51973982E+01
  7.59869910E+00  7.59869910E+00 -1.51973982E+01  7.59869910E+00  7.59869910E+00
 -1.51973982E+01  7.59869910E+00  7.59869910E+00 -1.51973982E+01  7.59869910E+00
  7.59869910E+00 -1.51973982E+01  7.59869910E+00  7.59869910E+00 -1.51973982E+01
  7.59869910E+00  7.59869910E+00 -1.51973982E+01  7.59869910E+00  7.59869910E+00
 -1.51973982E+01  7.59869910E+00  7.59869910E+00 -1.51973982E+01  7.59869910E+00
  7.59869910E+00 -1.51973982E+01  7.59869910E+00  7.59869910E+00 -1.51973982E+01
  7.59869910E+00  7.59869910E+00 -1.51973982E+01  7.59869910E+00  7.59869910E+00
 -1.51973982E+01  7.59869910E+00  7.59869910E+00 -1.51973982E+01  7.59869910E+00
  7.59869910E+00 -1.51973982E+01  7.59869910E+00  7.59869910E+00 -1.51973982E+01
  7.59869910E+00  7.59869910E+00 -1.51973982E+01  7.59869910E+00  7.59869910E+00
 -1.51973982E+01  7.59869910E+00  7.59869910E+00 -1.51973982E+01  7.59869910E+00
  7.59869910E+00 -1.51973982E+01  7.59869910E+00  7.59869910E+00 -1.51973982E+01
  7.59869910E+00  7.59869910E+00 -1.51973982E+01  7.59869910E+00  7.59869910E+00
 -1.51973982E+01  7.59869910E+00  7.59869910E+00 -1.51973982E+01  7.59869910E+00
  7.59869910E+00 -1.51973982E+01  7.59869910E+00  7.59869910E+00 -1.51973982E+01
  7.59869910E+00  7.59869910E+00 -1.51973982E+01  7.59869910E+00  7.59869910E+00
 -1.51973982E+01  7.59869910E+00  7.59869910E+00 -1.51973982E+01  7.59869910E+00
  7.59869910E+00 -1.51973982E+01  7.59869910E+00  7.59869910E+00 -1.51973982E+01
  7.59869910E+00  7.59869910E+00 -1.51973982E+01  7.59869910E+00  7.59869910E+00
 -1.51973982E+01  7.59869910E+00  7.59869910E+00 -1.51973982E+01  7.59869910E+00
  7.59869910E+00 -1.51973982E+01  7.59869910E+00  7.59869910E+00 -1.51973982E+01
  7.59869910E+00  7.59869910E+00 -1.51973982E+01  7.59869910E+00  7.59869910E+00
 -1.51973982E+01  7.59869910E+00  7.59869910E+00 -1.51973982E+01  7.59869910E+00
  7.59869910E+00 -1.51973982E+01  7.59869910E+00  7.59869910E+00 -1.51973982E+01
  7.59869910E+00  7.59869910E+00 -1.51973982E+01  7.59869910E+00  7.59869910E+00
 -1.51973982E+01  7.59869910E+00  7.59869910E+00 -1.51973982E+01  7.59869910E+00
  7.59869910E+00 -1.51973982E+01  7.59869910E+00  7.59869910E+00 -1.51973982E+01
  7.59869910E+00  7.59869910E+00 -1.51973982E+01  7.59869910E+00  7.59869910E+00
 -1.51973982E+01  7.59869910E+00  7.59869910E+00 -1.51973982E+01  7.59869910E+00
  7.59869910E+00 -1.51973982E+01  7.59869910E+00  7.59869910E+00 -1.51973982E+01
  7.59869910E+00  7.59869910E+00 -1.51973982E+01  7.59869910E+00  7.59869910E+00
 -1.51973982E+01  7.59869910E+00  7.59869910E+00 -1.51973982E+01  7.59869910E+00
  7.59869910E+00 -1.51973982E+01  7.59869910E+00  7.59869910E+00 -1.51973982E+01
  7.59869910E+00  7.59869910E+00 -1.51973982E+01  7.59869910E+00  7.59869910E+00
 -1.51973982E+01  7.59869910E+00  7.59869910E+00 -1.51973982E+01  7.59869910E+00
  7.59869910E+00 -1.51973982E+01  7.59869910E+00  7.59869910E+00 -1.51973982E+01
  7.59869910E+00  7.59869910E+00 -1.51973982E+01  7.59869910E+00  7.59869910E+00
 -1.51973982E+01  7.59869910E+00  7.59869910E+00 -1.51973982E+01  7.59869910E+00
  7.59869910E+00 -1.51973982E+01  7.59869910E+00  7.59869910E+00 -1.51973982E+01
  7.59869910E+00  7.59869910E+00 -1.51973982E+01  7.59869910E+00  7.59869910E+00
 -1.51973982E+01  7.59869910E+00  7.59869910E+00 -1.51973982E+01  7.59869910E+00
  7.59869910E+00 -1.51973982E+01  7.59869910E+00  7.59869910E+00 -1.51973982E+01
  7.59869910E+00  7.59869910E+00 -1.51973982E+01  7.59869910E+00  7.59869910E+00
 -1.51973982E+01  7.59869910E+00  7.59869910E+00 -1.51973982E+01  7.59869910E+00
  7.59869910E+00 -1.51973982E+01  7.59869910E+00  7.59869910E+00 -1.51973982E+01
  7.59869910E+00  7.59869910E+00 -1.51973982E+01  7.59869910E+00  7.59869910E+00
 -1.51973982E+01  7.59869910E+00  7.59869910E+00 -1.51973982E+01  7.59869910E+00
  7.59869910E+00 -1.51973982E+01  7.59869910E+00  7.59869910E+00 -1.51973982E+01
  7.59869910E+00  7.59869910E+00 -1.51973982E+01  7.59869910E+00  7.59869910E+00
 -1.51973982E+01  7.59869910E+00  7.59869910E+00 -1.51973982E+01  7.59869910E+00
  7.59869910E+00 -1.51973982E+01  7.59869910E+00  7.59869910E+00 -1.51973982E+01
  7.59869910E+00  7.59869910E+00 -1.51973982E+01  7.59869910E+00  7.59869910E+00
 -1.51973982E+01  7.59869910E+00  7.59869910E+00 -1.51973982E+01  7.59869910E+00
  7.59869910E+00 -1.51973982E+01  7.59869910E+00  7.59869910E+00 -1.51973982E+01
  7.59869910E+00  7.59869910E+00 -1.51973982E+01  7.59869910E+00  7.59869910E+00
 -1.51973982E+01  7.59869910E+00  7.59869910E+00 -1.51973982E+01  7.59869910E+00
  7.59869910E+00 -1.51973982E+01  7.59869910E+00  7.59869910E+00 -1.51973982E+01
  7.59869910E+00  7.59869910E+00 -1.51973982E+01  7.59869910E+00  7.59869910E+00
 -1.51973982E+01  7.59869910E+00  7.59869910E+00 -1.51973982E+01  7.59869910E+00
  7.59869910E+00 -1.51973982E+01  7.59869910E+00  7.59869910E+00 -1.51973982E+01
  7.59869910E+00  7.59869910E+00 -1.51973982E+01  7.59869910E+00  7.59869910E+00
 -1.51973982E+01  7.59869910E+00  7.59869910E+00 -1.51973982E+01  7.59869910E+00
  7.59869910E+00 -1.51973982E+01  7.59869910E+00  7.59869910E+00 -1.51973982E+01
  7.59869910E+00  7.59869910E+00 -1.51973982E+01  7.59869910E+00  7.59869910E+00
 -1.51973982E+01  7.59869910E+00  7.59869910E+00 -1.51973982E+01  7.59869910E+00
  7.59869910E+00 -1.51973982E+01  7.59869910E+00  7.59869910E+00 -1.51973982E+01
  7.59869910E+00  7.59869910E+00 -1.51973982E+01  7.59869910E+00  7.59869910E+00
 -1.51973982E+01  7.59869910E+00  7.59869910E+00 -1.51973982E+01  7.59869910E+00
  7.59869910E+00 -1.51973982E+01  7.59869910E+00  7.59869910E+00 -1.51973982E+01
  7.59869910E+00  7.59869910E+00 -1.51973982E+01  7.59869910E+00  7.59869910E+00
 -1.51973982E+01  7.59869910E+00  7.59869910E+00 -1.51973982E+01  7.59869910E+00
  7.59869910E+00 -1.51973982E+01  7.59869910E+00  7.59869910E+00 -1.51973982E+01
  7.59869910E+00  7.59869910E+00 -1.51973982E+01  7.59869910E+00  7.59869910E+00
 -1.51973982E+01  7.59869910E+00  7.59869910E+00 -1.51973982E+01  7.59869910E+00
  7.59869910E+00 -1.51973982E+01  7.59869910E+00  7.59869910E+00 -1.51973982E+01
  7.59869910E+00  7.59869910E+00 -1.51973982E+01  7.59869910E+00  7.59869910E+00
 -1.51973982E+01  7.59869910E+00  7.59869910E+00 -1.51973982E+01  7.59869910E+00
  7.59869910E+00 -1.51973982E+01  7.59869910E+00  7.59869910E+00 -1.51973982E+01
  7.59869910E+00  7.59869910E+00 -1.51973982E+01  7.59869910E+00  7.59869910E+00
 -1.51973982E+01  7.59869910E+00  7.59869910E+00 -1.51973982E+01  7.59869910E+00
  7.59869910E+00 -1.51973982E+01  7.59869910E+00  7.59869910E+00 -1.51973982E+01
  7.59869910E+00  7.59869910E+00 -1.51973982E+01  7.59869910E+00  7.59869910E+00
 -1.51973982E+01  7.59869910E+00  7.59869910E+00 -1.51973982E+01  7.59869910E+00
  7.59869910E+00 -1.51973982E+01  7.59869910E+00  7.59869910E+00 -1.51973982E+01
  7.59869910E+00  7.59869910E+00 -1.51973982E+01  7.59869910E+00  7.59869910E+00
 -1.51973982E+01  7.59869910E+00  7.59869910E+00 -1.51973982E+01  7.59869910E+00
  7.59869910E+00 -1.51973982E+01  7.59869910E+00  7.59869910E+00 -1.51973982E+01
  7.59869910E+00  7.59869910E+00 -1.51973982E+01  7.59869910E+00  7.59869910E+00
 -1.51973982E+01  7.59869910E+00  7.59869910E+00 -1.51973982E+01  7.59869910E+00
  7.59869910E+00 -1.51973982E+01  7.59869910E+00  7.59869910E+00 -1.51973982E+01
  7.59869910E+00  7.59869910E+00 -1.51973982E+01  7.59869910E+00  7.59869910E+00
 -1.51973982E+01  7.59869910E+00  7.59869910E+00 -1.51973982E+01  7.59869910E+00
  7.59869910E+00 -1.51973982E+01  7.59869910E+00  7.59869910E+00 -1.51973982E+01
  7.59869910E+00  7.59869910E+00 -1.51973982E+01  7.59869910E+00  7.59869910E+00
 -1.51973982E+01  7.59869910E+00  7.59869910E+00 -1.51973982E+01  7.59869910E+00
  7.59869910E+00 -1.51973982E+01  7.59869910E+00  7.59869910E+00 -1.51973982E+01
  7.59869910E+00  7.59869910E+00 -1.51973982E+01  7.59869910E+00  7.59869910E+00
 -1.51973982E+01  7.59869910E+00  7.59869910E+00 -1.51973982E+01  7.59869910E+00
  7.59869910E+00 -1.51973982E+01  7.59869910E+00  7.59869910E+00 -1.51973982E+01
  7.59869910E+00  7.59869910E+00 -1.51973982E+01  7.59869910E+00  7.59869910E+00
 -1.51973982E+01  7.59869910E+00  7.59869910E+00 -1.51973982E+01  7.59869910E+00
  7.59869910E+00 -1.51973982E+01  7.59869910E+00  7.59869910E+00 -1.51973982E+01
  7.59869910E+00  7.59869910E+00 -1.51973982E+01  7.59869910E+00  7.59869910E+00
 -1.51973982E+01  7.59869910E+00  7.59869910E+00 -1.51973982E+01  7.59869910E+00
  7.59869910E+00 -1.51973982E+01  7.59869910E+00  7.59869910E+00 -1.51973982E+01
  7.59869910E+00  7.59869910E+00 -1.51973982E+01  7.59869910E+00  7.59869910E+00
 -1.51973982E+01  7.59869910E+00  7.59869910E+00 -1.51973982E+01  7.59869910E+00
  7.59869910E+00 -1.51973982E+01  7.59869910E+00  7.59869910E+00 -1.51973982E+01
  7.59869910E+00  7.59869910E+00 -1.51973982E+01  7.59869910E+00  7.59869910E+00
 -1.51973982E+01  7.59869910E+00  7.59869910E+00 -1.51973982E+01  7.59869910E+00
  7.59869910E+00 -1.51973982E+01  7.59869910E+00  7.59869910E+00 -1.51973982E+01
  7.59869910E+00  7.59869910E+00 -1.51973982E+01  7.59869910E+00  7.59869910E+00
 -1.51973982E+01  7.59869910E+00  7.59869910E+00 -1.51973982E+01  7.59869910E+00
  7.59869910E+00 -1.51973982E+01  7.59869910E+00  7.59869910E+00 -1.51973982E+01
  7.59869910E+00  7.59869910E+00 -1.51973982E+01  7.59869910E+00  7.59869910E+00
 -1.51973982E+01  7.59869910E+00  7.59869910E+00 -1.51973982E+01  7.59869910E+00
  7.59869910E+00 -1.51973982E+01  7.59869910E+00  7.59869910E+00 -1.51973982E+01
  7.59869910E+00  7.59869910E+00 -1.51973982E+01  7.59869910E+00  7.59869910E+00
 -1.51973982E+01  7.59869910E+00  7.59869910E+00 -1.51973982E+01  7.59869910E+00
  7.59869910E+00 -1.51973982E+01  7.59869910E+00  7.59869910E+00 -1.51973982E+01
  7.59869910E+00  7.59869910E+00 -1.51973982E+01  7.59869910E+00  7.59869910E+00
 -1.51973982E+01  7.59869910E+00  7.59869910E+00 -1.51973982E+01  7.59869910E+00
  7.59869910E+00 -1.51973982E+01  7.59869910E+00  7.59869910E+00 -1.51973982E+01
  7.59869910E+00  7.59869910E+00 -1.51973982E+01  7.59869910E+00  7.59869910E+00
 -1.51973982E+01  7.59869910E+00  7.59869910E+00 -1.51973982E+01  7.59869910E+00
  7.59869910E+00 -1.51973982E+01  7.59869910E+00  7.59869910E+00 -1.51973982E+01
  7.59869910E+00  7.59869910E+00 -1.51973982E+01  7.59869910E+00  7.59869910E+00
 -1.51973982E+01  7.59869910E+00  7.59869910E+00 -1.51973982E+01  7.59869910E+00
  7.59869910E+00 -1.51973982E+01  7.59869910E+00  7.59869910E+00 -1.51973982E+01
  7.59869910E+00  7.59869910E+00 -1.51973982E+01  7.59869910E+00  7.59869910E+00
 -1.51973982E+01  7.59869910E+00  7.59869910E+00 -1.51973982E+01  7.59869910E+00
  7.59869910E+00 -1.51973982E+01  7.59869910E+00  7.59869910E+00 -1.51973982E+01
  7.59869910E+00  7.59869910E+00 -1.51973982E+01  7.59869910E+00  7.59869910E+00
 -1.51973982E+01  7.59869910E+00  7.59869910E+00 -1.51973982E+01  7.59869910E+00
  7.59869910E+00 -1.51973982E+01  7.59869910E+00  7.59869910E+00 -1.51973982E+01
  7.59869910E+00  7.59869910E+00 -1.51973982E+01  7.59869910E+00  7.59869910E+00
 -1.51973982E+01  7.59869910E+00  7.59869910E+00 -1.51973982E+01  7.59869910E+00
  7.59869910E+00 -1.51973982E+01  7.59869910E+00  7.59869910E+00 -1.51973982E+01
  7.59869910E+00  7.59869910E+00 -1.51973982E+01  7.59869910E+00  7.59869910E+00
 -1.51973982E+01  7.59869910E+00  7.59869910E+00 -1.51973982E+01  7.59869910E+00
  7.59869910E+00 -1.51973982E+01  7.59869910E+00  7.59869910E+00 -1.51973982E+01
  7.59869910E+00  7.59869910E+00 -1.51973982E+01  7.59869910E+00  7.59869910E+00
 -1.51973982E+01  7.59869910E+00  7.59869910E+00 -1.51973982E+01  7.59869910E+00
  7.59869910E+00 -1.51973982E+01  7.59869910E+00  7.59869910E+00 -1.51973982E+01
  7.59869910E+00  7.59869910E+00 -1.51973982E+01  7.59869910E+00  7.59869910E+00
 -1.51973982E+01  7.59869910E+00  7.59869910E+00 -1.51973982E+01  7.59869910E+00
  7.59869910E+00 -1.51973982E+01  7.59869910E+00  7.59869910E+00 -1.51973982E+01
  7.59869910E+00  7.59869910E+00 -1.51973982E+01  7.59869910E+00  7.59869910E+00
 -1.51973982E+01  7.59869910E+00  7.59869910E+00 -1.51973982E+01  7.59869910E+00
  7.59869910E+00 -1.51973982E+01  7.59869910E+00  7.59869910E+00 -1.51973982E+01
  7.59869910E+00  7.59869910E+00 -1.51973982E+01  7.59869910E+00  7.59869910E+00
 -1.51973982E+01  7.59869910E+00  7.59869910E+00 -1.51973982E+01  7.59869910E+00
  7.59869910E+00 -1.51973982E+01  7.59869910E+00  7.59869910E+00 -1.51973982E+01
  7.59869910E+00  7.59869910E+00 -1.51973982E+01  7.59869910E+00  7.59869910E+00
 -1.51973982E+01  7.59869910E+00  7.59869910E+00 -1.51973982E+01  7.59869910E+00
  7.59869910E+00 -1.51973982E+01  7.59869910E+00  7.59869910E+00 -1.51973982E+01
  7.59869910E+00  7.59869910E+00 -1.51973982E+01  7.59869910E+00  7.59869910E+00
 -1.51973982E+01  7.59869910E+00  7.59869910E+00 -1.51973982E+01  7.59869910E+00
  7.59869910E+00 -1.51973982E+01  7.59869910E+00  7.59869910E+00 -1.51973982E+01
  7.59869910E+00  7.59869910E+00 -1.51973982E+01  7.59869910E+00  7.59869910E+00
 -1.51973982E+01  7.59869910E+00  7.59869910E+00 -1.51973982E+01  7.59869910E+00
  7.59869910E+00 -1.51973982E+01  7.59869910E+00  7.59869910E+00 -1.51973982E+01
  7.59869910E+00  7.59869910E+00 -1.51973982E+01  7.59869910E+00  7.59869910E+00
 -1.51973982E+01  7.59869910E+00  7.59869910E+00 -1.51973982E+01  7.59869910E+00
  7.59869910E+00 -1.51973982E+01  7.59869910E+00  7.59869910E+00 -1.51973982E+01
  7.59869910E+00  7.59869910E+00 -1.51973982E+01  7.59869910E+00  7.59869910E+00
 -1.51973982E+01  7.59869910E+00  7.59869910E+00 -1.51973982E+01  7.59869910E+00
  7.59869910E+00 -1.51973982E+01  7.59869910E+00  7.59869910E+00 -1.51973982E+01
  7.59869910E+00  7.59869910E+00 -1.51973982E+01  7.59869910E+00  7.59869910E+00
 -1.51973982E+01  7.59869910E+00  7.59869910E+00 -1.51973982E+01  7.59869910E+00
  7.59869910E+00 -1.51973982E+01  7.59869910E+00  7.59869910E+00 -1.51973982E+01
  7.59869910E+00  7.59869910E+00 -1.51973982E+01  7.59869910E+00  7.59869910E+00
 -1.51973982E+01  7.59869910E+00  7.59869910E+00 -1.51973982E+01  7.59869910E+00
  7.59869910E+00 -1.51973982E+01  7.59869910E+00  7.59869910E+00 -1.51973982E+01
  7.59869910E+00  7.59869910E+00 -1.51973982E+01  7.59869910E+00  7.59869910E+00
 -1.51973982E+01  7.59869910E+00  7.59869910E+00 -1.51973982E+01  7.59869910E+00
  7.59869910E+00 -1.51973982E+01  7.59869910E+00  7.59869910E+00 -1.51973982E+01
  7.59869910E+00  7.59869910E+00 -1.51973982E+01  7.59869910E+00  7.59869910E+00
 -1.51973982E+01  7.59869910E+00  7.59869910E+00 -1.51973982E+01  7.59869910E+00
  7.59869910E+00 -1.51973982E+01  7.59869910E+00  7.59869910E+00 -1.51973982E+01
  7.59869910E+00  7.59869910E+00 -1.51973982E+01  7.59869910E+00  7.59869910E+00
 -1.51973982E+01  7.59869910E+00  7.59869910E+00 -1.51973982E+01  7.59869910E+00
  7.59869910E+00 -1.51973982E+01  7.59869910E+00  7.59869910E+00 -1.51973982E+01
  7.59869910E+00  7.59869910E+00 -1.51973982E+01  7.59869910E+00  7.59869910E+00
 -1.51973982E+01  7.59869910E+00  7.59869910E+00 -1.51973982E+01  7.59869910E+00
  7.59869910E+00 -1.51973982E+01  7.59869910E+00  7.59869910E+00 -1.51973982E+01
  7.59869910E+00  7.59869910E+00 -1.51973982E+01  7.59869910E+00  7.59869910E+00
 -1.51973982E+01  7.59869910E+00  7.59869910E+00 -1.51973982E+01  7.59869910E+00
  7.59869910E+00 -1.51973982E+01  7.59869910E+00  7.59869910E+00 -1.51973982E+01
  7.59869910E+00  7.59869910E+00 -1.51973982E+01  7.59869910E+00  7.59869910E+00
 -1.51973982E+01  7.59869910E+00  7.59869910E+00 -1.51973982E+01  7.59869910E+00
  7.59869910E+00 -1.51973982E+01  7.59869910E+00  7.59869910E+00 -1.51973982E+01
  7.59869910E+00  7.59869910E+00 -1.51973982E+01  7.59869910E+00  7.59869910E+00
 -1.51973982E+01  7.59869910E+00  7.59869910E+00 -1.51973982E+01  7.59869910E+00
  7.59869910E+00 -1.51973982E+01  7.59869910E+00  7.59869910E+00 -1.51973982E+01
  7.59869910E+00  7.59869910E+00 -1.51973982E+01  7.59869910E+00  7.59869910E+00
 -1.51973982E+01  7.59869910E+00  7.59869910E+00 -1.51973982E+01  7.59869910E+00
  7.59869910E+00 -1.51973982E+01  7.59869910E+00  7.59869910E+00 -1.51973982E+01
  7.59869910E+00  7.59869910E+00 -1.51973982E+01  7.59869910E+00  7.59869910E+00
 -1.51973982E+01  7.59869910E+00  7.59869910E+00 -1.51973982E+01  7.59869910E+00
  7.59869910E+00 -1.51973982E+01  7.59869910E+00  7.59869910E+00 -1.51973982E+01
  7.59869910E+00  7.59869910E+00 -1.51973982E+01  7.59869910E+00  7.59869910E+00
 -1.51973982E+01  7.59869910E+00  7.59869910E+00 -1.51973982E+01  7.59869910E+00
  7.59869910E+00 -1.51973982E+01  7.59869910E+00  7.59869910E+00 -1.51973982E+01
  7.59869910E+00  7.59869910E+00 -1.51973982E+01  7.59869910E+00  7.59869910E+00
 -1.51973982E+01  7.59869910E+00  7.59869910E+00 -1.51973982E+01  7.59869910E+00
  7.59869910E+00 -1.51973982E+01  7.59869910E+00  7.59869910E+00 -1.51973982E+01
  7.59869910E+00  7.59869910E+00 -1.51973982E+01  7.59869910E+00  7.59869910E+00
 -1.51973982E+01  7.59869910E+00  7.59869910E+00 -1.51973982E+01  7.59869910E+00
  7.59869910E+00 -1.51973982E+01  7.59869910E+00  7.59869910E+00 -1.51973982E+01
  7.59869910E+00  7.59869910E+00 -1.51973982E+01  7.59869910E+00  7.59869910E+00
 -1.51973982E+01  7.59869910E+00  7.59869910E+00 -1.51973982E+01  7.59869910E+00
  7.59869910E+00 -1.51973982E+01  7.59869910E+00  7.59869910E+00 -1.51973982E+01
  7.59869910E+00  7.59869910E+00 -1.51973982E+01  7.59869910E+00  7.59869910E+00
 -1.51973982E+01  7.59869910E+00  7.59869910E+00 -1.51973982E+01  7.59869910E+00
  7.59869910E+00 -1.51973982E+01  7.59869910E+00  7.59869910E+00 -1.51973982E+01
  7.59869910E+00  7.59869910E+00 -1.51973982E+01  7.59869910E+00  7.59869910E+00
 -1.51973982E+01  7.59869910E+00  7.59869910E+00 -1.51973982E+01  7.59869910E+00
  7.59869910E+00 -1.51973982E+01  7.59869910E+00  7.59869910E+00 -1.51973982E+01
  7.59869910E+00  7.59869910E+00 -1.51973982E+01  7.59869910E+00  7.59869910E+00
 -1.51973982E+01  7.59869910E+00  7.59869910E+00 -1.51973982E+01  7.59869910E+00
  7.59869910E+00 -1.51973982E+01  7.59869910E+00  7.59869910E+00 -1.51973982E+01
  7.59869910E+00  7.59869910E+00 -1.51973982E+01  7.59869910E+00  7.59869910E+00
 -1.51973982E+01  7.59869910E+00  7.59869910E+00 -1.51973982E+01  7.59869910E+00
  7.59869910E+00 -1.51973982E+01  7.59869910E+00  7.59869910E+00 -1.51973982E+01
  7.59869910E+00  7.59869910E+00 -1.51973982E+01  7.59869910E+00  7.59869910E+00
 -1.51973982E+01  7.59869910E+00  7.59869910E+00 -1.51973982E+01  7.59869910E+00
  7.59869910E+00 -1.51973982E+01  7.59869910E+00  7.59869910E+00 -1.51973982E+01
  7.59869910E+00  7.59869910E+00 -1.51973982E+01  7.59869910E+00  7.59869910E+00
 -1.51973982E+01  7.59869910E+00  7.59869910E+00 -1.51973982E+01  7.59869910E+00
  7.59869910E+00 -1.51973982E+01  7.59869910E+00  7.59869910E+00 -1.51973982E+01
  7.59869910E+00  7.59869910E+00 -1.51973982E+01  7.59869910E+00  7.59869910E+00
 -1.51973982E+01  7.59869910E+00  7.59869910E+00 -1.51973982E+01  7.59869910E+00
  7.59869910E+00 -1.51973982E+01  7.59869910E+00  7.59869910E+00 -1.51973982E+01
  7.59869910E+00  7.59869910E+00 -1.51973982E+01  7.59869910E+00  7.59869910E+00
 -1.51973982E+01  7.59869910E+00  7.59869910E+00 -1.51973982E+01  7.59869910E+00
  7.59869910E+00 -1.51973982E+01  7.59869910E+00  7.59869910E+00 -1.51973982E+01
  7.59869910E+00  7.59869910E+00 -1.51973982E+01  7.59869910E+00  7.59869910E+00
 -1.51973982E+01  7.59869910E+00  7.59869910E+00 -1.51973982E+01  7.59869910E+00
  7.59869910E+00 -1.51973982E+01  7.59869910E+00  7.59869910E+00 -1.51973982E+01
  7.59869910E+00  7.59869910E+00 -1.51973982E+01  7.59869910E+00  7.59869910E+00
 -1.51973982E+01  7.59869910E+00  7.59869910E+00 -1.51973982E+01  7.59869910E+00
  7.59869910E+00 -1.51973982E+01  7.59869910E+00  7.59869910E+00 -1.51973982E+01
  7.59869910E+00  7.59869910E+00 -1.51973982E+01  7.59869910E+00  7.59869910E+00
 -1.51973982E+01  7.59869910E+00  7.59869910E+00 -1.51973982E+01  7.59869910E+00
  7.59869910E+00 -1.51973982E+01  7.59869910E+00  7.59869910E+00 -1.51973982E+01
  7.59869910E+00  7.59869910E+00 -1.51973982E+01  7.59869910E+00  7.59869910E+00
 -1.51973982E+01  7.59869910E+00  7.59869910E+00 -1.51973982E+01  7.59869910E+00
  7.59869910E+00 -1.51973982E+01  7.59869910E+00  7.59869910E+00 -1.51973982E+01
  7.59869910E+00  7.59869910E+00 -1.51973982E+01  7.59869910E+00  7.59869910E+00
 -1.51973982E+01  7.59869910E+00  7.59869910E+00 -1.51973982E+01  7.59869910E+00
  7.59869910E+00 -1.51973982E+01  7.59869910E+00  7.59869910E+00 -1.51973982E+01
  7.59869910E+00  7.59869910E+00 -1.51973982E+01  7.59869910E+00  7.59869910E+00
 -1.51973982E+01  7.59869910E+00  7.59869910E+00 -1.51973982E+01  7.59869910E+00
  7.59869910E+00 -1.51973982E+01  7.59869910E+00  7.59869910E+00 -1.51973982E+01
  7.59869910E+00  7.59869910E+00 -1.51973982E+01  7.59869910E+00  7.59869910E+00
 -1.51973982E+01  7.59869910E+00  7.59869910E+00 -1.51973982E+01  7.59869910E+00
  7.59869910E+00 -1.51973982E+01  7.59869910E+00  7.59869910E+00 -1.51973982E+01
  7.59869910E+00  7.59869910E+00 -1.51973982E+01  7.59869910E+00  7.59869910E+00
 -1.51973982E+01  7.59869910E+00  7.59869910E+00 -1.51973982E+01  7.59869910E+00
  7.59869910E+00 -1.51973982E+01  7.59869910E+00  7.59869910E+00 -1.51973982E+01
  7.59869910E+00  7.59869910E+00 -1.51973982E+01  7.59869910E+00  7.59869910E+00
 -1.51973982E+01  7.59869910E+00  7.59869910E+00 -1.51973982E+01  7.59869910E+00
  7.59869910E+00 -1.51973982E+01  7.59869910E+00  7.59869910E+00 -1.51973982E+01
  7.59869910E+00  7.59869910E+00 -1.51973982E+01  7.59869910E+00  7.59869910E+00
 -1.51973982E+01  7.59869910E+00  7.59869910E+00 -1.51973982E+01  7.59869910E+00
  7.59869910E+00 -1.51973982E+01  7.59869910E+00  7.59869910E+00 -1.51973982E+01
  7.59869910E+00  7.59869910E+00 -1.51973982E+01  7.59869910E+00  7.59869910E+00
 -1.51973982E+01  7.59869910E+00  7.59869910E+00 -1.51973982E+01  7.59869910E+00
  7.59869910E+00 -1.51973982E+01  7.59869910E+00  7.59869910E+00 -1.51973982E+01
  7.59869910E+00  7.59869910E+00 -1.51973982E+01  7.59869910E+00  7.59869910E+00
 -1.51973982E+01  7.59869910E+00  7.59869910E+00 -1.51973982E+01  7.59869910E+00
  7.59869910E+00 -1.51973982E+01  7.59869910E+00  7.59869910E+00 -1.51973982E+01
  7.59869910E+00  7.59869910E+00 -1.51973982E+01  7.59869910E+00  7.59869910E+00
 -1.51973982E+01  7.59869910E+00  7.59869910E+00 -1.51973982E+01  7.59869910E+00
  7.59869910E+00 -1.51973982E+01  7.59869910E+00  7.59869910E+00 -1.51973982E+01
  7.59869910E+00  7.59869910E+00 -1.51973982E+01  7.59869910E+00  7.59869910E+00
 -1.51973982E+01  7.59869910E+00  7.59869910E+00 -1.51973982E+01  7.59869910E+00
  7.59869910E+00 -1.51973982E+01  7.59869910E+00  7.59869910E+00 -1.51973982E+01
  7.59869910E+00  7.59869910E+00 -1.51973982E+01  7.59869910E+00  7.59869910E+00
 -1.51973982E+01  7.59869910E+00  7.59869910E+00 -1.51973982E+01  7.59869910E+00
  7.59869910E+00 -1.51973982E+01  7.59869910E+00  7.59869910E+00 -1.51973982E+01
  7.59869910E+00  7.59869910E+00 -1.51973982E+01  7.59869910E+00  7.59869910E+00
 -1.51973982E+01  7.59869910E+00  7.59869910E+00 -1.51973982E+01  7.59869910E+00
  7.59869910E+00 -1.51973982E+01  7.59869910E+00  7.59869910E+00 -1.51973982E+01
  7.59869910E+00  7.59869910E+00 -1.51973982E+01  7.59869910E+00  7.59869910E+00
 -1.51973982E+01  7.59869910E+00  7.59869910E+00 -1.51973982E+01  7.59869910E+00
  7.59869910E+00 -1.51973982E+01  7.59869910E+00  7.59869910E+00 -1.51973982E+01
  7.59869910E+00  7.59869910E+00 -1.51973982E+01  7.59869910E+00  7.59869910E+00
 -1.51973982E+01  7.59869910E+00  7.59869910E+00 -1.51973982E+01  7.59869910E+00
  7.59869910E+00 -1.51973982E+01  7.59869910E+00  7.59869910E+00 -1.51973982E+01
  7.59869910E+00  7.59869910E+00 -1.51973982E+01  7.59869910E+00  7.59869910E+00
 -1.51973982E+01  7.59869910E+00  7.59869910E+00 -1.51973982E+01  7.59869910E+00
  7.59869910E+00 -1.51973982E+01  7.59869910E+00  7.59869910E+00 -1.51973982E+01
  7.59869910E+00  7.59869910E+00 -1.51973982E+01  7.59869910E+00  7.59869910E+00
 -1.51973982E+01  7.59869910E+00  7.59869910E+00 -1.51973982E+01  7.59869910E+00
  7.59869910E+00 -1.51973982E+01  7.59869910E+00  7.59869910E+00 -1.51973982E+01
  7.59869910E+00  7.59869910E+00 -1.51973982E+01  7.59869910E+00  7.59869910E+00
 -1.51973982E+01  7.59869910E+00  7.59869910E+00 -1.51973982E+01  7.59869910E+00
  7.59869910E+00 -1.51973982E+01  7.59869910E+00  7.59869910E+00 -1.51973982E+01
  7.59869910E+00  7.59869910E+00 -1.51973982E+01  7.59869910E+00  7.59869910E+00
 -1.51973982E+01  7.59869910E+00  7.59869910E+00 -1.51973982E+01  7.59869910E+00
  7.59869910E+00 -1.51973982E+01  7.59869910E+00  7.59869910E+00 -1.51973982E+01
  7.59869910E+00  7.59869910E+00 -1.51973982E+01  7.59869910E+00  7.59869910E+00
 -1.51973982E+01  7.59869910E+00  7.59869910E+00 -1.51973982E+01  7.59869910E+00
  7.59869910E+00 -1.51973982E+01  7.59869910E+00  7.59869910E+00 -1.51973982E+01
  7.59869910E+00  7.59869910E+00 -1.51973982E+01  7.59869910E+00  7.59869910E+00
 -1.51973982E+01  7.59869910E+00  7.59869910E+00 -1.51973982E+01  7.59869910E+00
  7.59869910E+00 -1.51973982E+01  7.59869910E+00  7.59869910E+00 -1.51973982E+01
  7.59869910E+00  7.59869910E+00 -1.51973982E+01  7.59869910E+00  7.59869910E+00
 -1.51973982E+01  7.59869910E+00  7.59869910E+00 -1.51973982E+01  7.59869910E+00
  7.59869910E+00 -1.51973982E+01  7.59869910E+00  7.59869910E+00 -1.51973982E+01
  7.59869910E+00  7.59869910E+00 -1.51973982E+01  7.59869910E+00  7.59869910E+00
 -1.51973982E+01  7.59869910E+00  7.59869910E+00 -1.51973982E+01  7.59869910E+00
  7.59869910E+00 -1.51973982E+01  7.59869910E+00  7.59869910E+00 -1.51973982E+01
  7.59869910E+00  7.59869910E+00 -1.51973982E+01  7.59869910E+00  7.59869910E+00
 -1.51973982E+01  7.59869910E+00  7.59869910E+00 -1.51973982E+01  7.59869910E+00
  7.59869910E+00 -1.51973982E+01  7.59869910E+00  7.59869910E+00 -1.51973982E+01
  7.59869910E+00  7.59869910E+00 -1.51973982E+01  7.59869910E+00  7.59869910E+00
 -1.51973982E+01  7.59869910E+00  7.59869910E+00 -1.51973982E+01  7.59869910E+00
  7.59869910E+00 -1.51973982E+01  7.59869910E+00  7.59869910E+00 -1.51973982E+01
  7.59869910E+00  7.59869910E+00 -1.51973982E+01  7.59869910E+00  7.59869910E+00
 -1.51973982E+01  7.59869910E+00  7.59869910E+00 -1.51973982E+01  7.59869910E+00
  7.59869910E+00 -1.51973982E+01  7.59869910E+00  7.59869910E+00 -1.51973982E+01
  7.59869910E+00  7.59869910E+00 -1.51973982E+01  7.59869910E+00  7.59869910E+00
 -1.51973982E+01  7.59869910E+00  7.59869910E+00 -1.51973982E+01  7.59869910E+00
  7.59869910E+00 -1.51973982E+01  7.59869910E+00  7.59869910E+00 -1.51973982E+01
  7.59869910E+00  7.59869910E+00 -1.51973982E+01  7.59869910E+00  7.59869910E+00
 -1.51973982E+01  7.59869910E+00  7.59869910E+00 -1.51973982E+01  7.59869910E+00
  7.59869910E+00 -1.51973982E+01  7.59869910E+00  7.59869910E+00 -1.51973982E+01
  7.59869910E+00  7.59869910E+00 -1.51973982E+01  7.59869910E+00  7.59869910E+00
 -1.51973982E+01  7.59869910E+00  7.59869910E+00 -1.51973982E+01  7.59869910E+00
  7.59869910E+00 -1.51973982E+01  7.59869910E+00  7.59869910E+00 -1.51973982E+01
  7.59869910E+00  7.59869910E+00 -1.51973982E+01  7.59869910E+00  7.59869910E+00
 -1.51973982E+01  7.59869910E+00  7.59869910E+00 -1.51973982E+01  7.59869910E+00
  7.59869910E+00 -1.51973982E+01  7.59869910E+00  7.59869910E+00 -1.51973982E+01
  7.59869910E+00  7.59869910E+00 -1.51973982E+01  7.59869910E+00  7.59869910E+00
 -1.51973982E+01  7.59869910E+00  7.59869910E+00 -1.51973982E+01  7.59869910E+00
  7.59869910E+00 -1.51973982E+01  7.59869910E+00  7.59869910E+00 -1.51973982E+01
  7.59869910E+00  7.59869910E+00 -1.51973982E+01  7.59869910E+00  7.59869910E+00
 -1.51973982E+01  7.59869910E+00  7.59869910E+00 -1.51973982E+01  7.59869910E+00
  7.59869910E+00 -1.51973982E+01  7.59869910E+00  7.59869910E+00 -1.51973982E+01
  7.59869910E+00  7.59869910E+00 -1.51973982E+01  7.59869910E+00  7.59869910E+00
 -1.51973982E+01  7.59869910E+00  7.59869910E+00 -1.51973982E+01  7.59869910E+00
  7.59869910E+00 -1.51973982E+01  7.59869910E+00  7.59869910E+00 -1.51973982E+01
  7.59869910E+00  7.59869910E+00 -1.51973982E+01  7.59869910E+00  7.59869910E+00
 -1.51973982E+01  7.59869910E+00  7.59869910E+00 -1.51973982E+01  7.59869910E+00
  7.59869910E+00 -1.51973982E+01  7.59869910E+00  7.59869910E+00 -1.51973982E+01
  7.59869910E+00  7.59869910E+00 -1.51973982E+01  7.59869910E+00  7.59869910E+00
 -1.51973982E+01  7.59869910E+00  7.59869910E+00 -1.51973982E+01  7.59869910E+00
  7.59869910E+00 -1.51973982E+01  7.59869910E+00  7.59869910E+00 -1.51973982E+01
  7.59869910E+00  7.59869910E+00 -1.51973982E+01  7.59869910E+00  7.59869910E+00
 -1.51973982E+01  7.59869910E+00  7.59869910E+00 -1.51973982E+01  7.59869910E+00
  7.59869910E+00 -1.51973982E+01  7.59869910E+00  7.59869910E+00 -1.51973982E+01
  7.59869910E+00  7.59869910E+00 -1.51973982E+01  7.59869910E+00  7.59869910E+00
 -1.51973982E+01  7.59869910E+00  7.59869910E+00 -1.51973982E+01  7.59869910E+00
  7.59869910E+00 -1.51973982E+01  7.59869910E+00  7.59869910E+00 -1.51973982E+01
  7.59869910E+00  7.59869910E+00 -1.51973982E+01  7.59869910E+00  7.59869910E+00
 -1.51973982E+01  7.59869910E+00  7.59869910E+00 -1.51973982E+01  7.59869910E+00
  7.59869910E+00 -1.51973982E+01  7.59869910E+00  7.59869910E+00 -1.51973982E+01
  7.59869910E+00  7.59869910E+00 -1.51973982E+01  7.59869910E+00  7.59869910E+00
 -1.51973982E+01  7.59869910E+00  7.59869910E+00 -1.51973982E+01  7.59869910E+00
  7.59869910E+00 -1.51973982E+01  7.59869910E+00  7.59869910E+00 -1.51973982E+01
  7.59869910E+00  7.59869910E+00 -1.51973982E+01  7.59869910E+00  7.59869910E+00
 -1.51973982E+01  7.59869910E+00  7.59869910E+00 -1.51973982E+01  7.59869910E+00
  7.59869910E+00 -1.51973982E+01  7.59869910E+00  7.59869910E+00 -1.51973982E+01
  7.59869910E+00  7.59869910E+00 -1.51973982E+01  7.59869910E+00  7.59869910E+00
 -1.51973982E+01  7.59869910E+00  7.59869910E+00 -1.51973982E+01  7.59869910E+00
  7.59869910E+00 -1.51973982E+01  7.59869910E+00  7.59869910E+00 -1.51973982E+01
  7.59869910E+00  7.59869910E+00 -1.51973982E+01  7.59869910E+00  7.59869910E+00
 -1.51973982E+01  7.59869910E+00  7.59869910E+00 -1.51973982E+01  7.59869910E+00
  7.59869910E+00 -1.51973982E+01  7.59869910E+00  7.59869910E+00 -1.51973982E+01
  7.59869910E+00  7.59869910E+00 -1.51973982E+01  7.59869910E+00  7.59869910E+00
 -1.51973982E+01  7.59869910E+00  7.59869910E+00 -1.51973982E+01  7.59869910E+00
  7.59869910E+00 -1.51973982E+01  7.59869910E+00  7.59869910E+00 -1.51973982E+01
  7.59869910E+00  7.59869910E+00 -1.51973982E+01  7.59869910E+00  7.59869910E+00
 -1.51973982E+01  7.59869910E+00  7.59869910E+00 -1.51973982E+01  7.59869910E+00
  7.59869910E+00 -1.51973982E+01  7.59869910E+00  7.59869910E+00 -1.51973982E+01
  7.59869910E+00  7.59869910E+00 -1.51973982E+01  7.59869910E+00  7.59869910E+00
 -1.51973982E+01  7.59869910E+00  7.59869910E+00 -1.51973982E+01  7.59869910E+00
  7.59869910E+00 -1.51973982E+01  7.59869910E+00  7.59869910E+00 -1.51973982E+01
  7.59869910E+00  7.59869910E+00 -1.51973982E+01  7.59869910E+00  7.59869910E+00
 -1.51973982E+01  7.59869910E+00  7.59869910E+00 -1.51973982E+01  7.59869910E+00
  7.59869910E+00 -1.51973982E+01  7.59869910E+00  7.59869910E+00 -1.51973982E+01
  7.59869910E+00  7.59869910E+00 -1.51973982E+01  7.59869910E+00  7.59869910E+00
 -1.51973982E+01  7.59869910E+00  7.59869910E+00 -1.51973982E+01  7.59869910E+00
  7.59869910E+00 -1.51973982E+01  7.59869910E+00  7.59869910E+00 -1.51973982E+01
  7.59869910E+00  7.59869910E+00 -1.51973982E+01  7.59869910E+00  7.59869910E+00
 -1.51973982E+01  7.59869910E+00  7.59869910E+00 -1.51973982E+01  7.59869910E+00
  7.59869910E+00 -1.51973982E+01  7.59869910E+00  7.59869910E+00 -1.51973982E+01
  7.59869910E+00  7.59869910E+00 -1.51973982E+01  7.59869910E+00  7.59869910E+00
 -1.51973982E+01  7.59869910E+00  7.59869910E+00 -1.51973982E+01  7.59869910E+00
  7.59869910E+00 -1.51973982E+01  7.59869910E+00  7.59869910E+00 -1.51973982E+01
  7.59869910E+00  7.59869910E+00 -1.51973982E+01  7.59869910E+00  7.59869910E+00
 -1.51973982E+01  7.59869910E+00  7.59869910E+00 -1.51973982E+01  7.59869910E+00
  7.59869910E+00 -1.51973982E+01  7.59869910E+00  7.59869910E+00 -1.51973982E+01
  7.59869910E+00  7.59869910E+00 -1.51973982E+01  7.59869910E+00  7.59869910E+00
 -1.51973982E+01  7.59869910E+00  7.59869910E+00 -1.51973982E+01  7.59869910E+00
  7.59869910E+00 -1.51973982E+01  7.59869910E+00  7.59869910E+00 -1.51973982E+01
  7.59869910E+00  7.59869910E+00 -1.51973982E+01  7.59869910E+00  7.59869910E+00
 -1.51973982E+01  7.59869910E+00  7.59869910E+00 -1.51973982E+01  7.59869910E+00
  7.59869910E+00 -1.51973982E+01  7.59869910E+00  7.59869910E+00 -1.51973982E+01
  7.59869910E+00  7.59869910E+00 -1.51973982E+01  7.59869910E+00  7.59869910E+00
 -1.51973982E+01  7.59869910E+00  7.59869910E+00 -1.51973982E+01  7.59869910E+00
  7.59869910E+00 -1.51973982E+01  7.59869910E+00  7.59869910E+00 -1.51973982E+01
  7.59869910E+00  7.59869910E+00 -1.51973982E+01  7.59869910E+00  7.59869910E+00
 -1.51973982E+01  7.59869910E+00  7.59869910E+00 -1.51973982E+01  7.59869910E+00
  7.59869910E+00 -1.51973982E+01  7.59869910E+00  7.59869910E+00 -1.51973982E+01
  7.59869910E+00  7.59869910E+00 -1.51973982E+01  7.59869910E+00  7.59869910E+00
 -1.51973982E+01  7.59869910E+00  7.59869910E+00 -1.51973982E+01  7.59869910E+00
  7.59869910E+00 -1.51973982E+01  7.59869910E+00  7.59869910E+00 -1.51973982E+01
  7.59869910E+00  7.59869910E+00 -1.51973982E+01  7.59869910E+00  7.59869910E+00
 -1.51973982E+01  7.59869910E+00  7.59869910E+00 -1.51973982E+01  7.59869910E+00
  7.59869910E+00 -1.51973982E+01  7.59869910E+00  7.59869910E+00 -1.51973982E+01
  7.59869910E+00  7.59869910E+00 -1.51973982E+01  7.59869910E+00  7.59869910E+00
 -1.51973982E+01  7.59869910E+00  7.59869910E+00 -1.51973982E+01  7.59869910E+00
  7.59869910E+00 -1.51973982E+01  7.59869910E+00  7.59869910E+00 -1.51973982E+01
  7.59869910E+00  7.59869910E+00 -1.51973982E+01  7.59869910E+00  7.59869910E+00
 -1.51973982E+01  7.59869910E+00  7.59869910E+00 -1.51973982E+01  7.59869910E+00
  7.59869910E+00 -1.51973982E+01  7.59869910E+00  7.59869910E+00 -1.51973982E+01
  7.59869910E+00  7.59869910E+00 -1.51973982E+01  7.59869910E+00  7.59869910E+00
 -1.51973982E+01  7.59869910E+00  7.59869910E+00 -1.51973982E+01  7.59869910E+00
  7.59869910E+00 -1.51973982E+01  7.59869910E+00  7.59869910E+00 -1.51973982E+01
  7.59869910E+00  7.59869910E+00 -1.51973982E+01  7.59869910E+00  7.59869910E+00
 -1.51973982E+01  7.59869910E+00  7.59869910E+00 -1.51973982E+01  7.59869910E+00
  7.59869910E+00 -1.51973982E+01  7.59869910E+00  7.59869910E+00 -1.51973982E+01
  7.59869910E+00  7.59869910E+00 -1.51973982E+01  7.59869910E+00  7.59869910E+00
 -1.51973982E+01  7.59869910E+00  7.59869910E+00 -1.51973982E+01  7.59869910E+00
  7.59869910E+00 -1.51973982E+01  7.59869910E+00  7.59869910E+00 -1.51973982E+01
  7.59869910E+00  7.59869910E+00 -1.51973982E+01  7.59869910E+00  7.59869910E+00
 -1.51973982E+01  7.59869910E+00  7.59869910E+00 -1.51973982E+01  7.59869910E+00
  7.59869910E+00 -1.51973982E+01  7.59869910E+00  7.59869910E+00 -1.51973982E+01
  7.59869910E+00  7.59869910E+00 -1.51973982E+01  7.59869910E+00  7.59869910E+00
 -1.51973982E+01  7.59869910E+00  7.59869910E+00 -1.51973982E+01  7.59869910E+00
  7.59869910E+00 -1.51973982E+01  7.59869910E+00  7.59869910E+00 -1.51973982E+01
  7.59869910E+00  7.59869910E+00 -1.51973982E+01  7.59869910E+00  7.59869910E+00
 -1.51973982E+01  7.59869910E+00  7.59869910E+00 -1.51973982E+01  7.59869910E+00
  7.59869910E+00 -1.51973982E+01  7.59869910E+00  7.59869910E+00 -1.51973982E+01
  7.59869910E+00  7.59869910E+00 -1.51973982E+01  7.59869910E+00  7.59869910E+00
 -1.51973982E+01  7.59869910E+00  7.59869910E+00 -1.51973982E+01  7.59869910E+00
  7.59869910E+00 -1.51973982E+01  7.59869910E+00  7.59869910E+00 -1.51973982E+01
  7.59869910E+00  7.59869910E+00 -1.51973982E+01  7.59869910E+00  7.59869910E+00
 -1.51973982E+01  7.59869910E+00  7.59869910E+00 -1.51973982E+01  7.59869910E+00
  7.59869910E+00 -1.51973982E+01  7.59869910E+00  7.59869910E+00 -1.51973982E+01
  7.59869910E+00  7.59869910E+00 -1.51973982E+01  7.59869910E+00  7.59869910E+00
 -1.51973982E+01  7.59869910E+00  7.59869910E+00 -1.51973982E+01  7.59869910E+00
  7.59869910E+00 -1.51973982E+01  7.59869910E+00  7.59869910E+00 -1.51973982E+01
  7.59869910E+00  7.59869910E+00 -1.51973982E+01  7.59869910E+00  7.59869910E+00
 -1.51973982E+01  7.59869910E+00  7.59869910E+00 -1.51973982E+01  7.59869910E+00
  7.59869910E+00 -1.51973982E+01  7.59869910E+00  7.59869910E+00 -1.51973982E+01
  7.59869910E+00  7.59869910E+00 -1.51973982E+01  7.59869910E+00  7.59869910E+00
 -1.51973982E+01  7.59869910E+00  7.59869910E+00 -1.51973982E+01  7.59869910E+00
  7.59869910E+00 -1.51973982E+01  7.59869910E+00  7.59869910E+00 -1.51973982E+01
  7.59869910E+00  7.59869910E+00 -1.51973982E+01  7.59869910E+00  7.59869910E+00
 -1.51973982E+01  7.59869910E+00  7.59869910E+00 -1.51973982E+01  7.59869910E+00
  7.59869910E+00 -1.51973982E+01  7.59869910E+00  7.59869910E+00 -1.51973982E+01
  7.59869910E+00  7.59869910E+00 -1.51973982E+01  7.59869910E+00  7.59869910E+00
 -1.51973982E+01  7.59869910E+00  7.59869910E+00 -1.51973982E+01  7.59869910E+00
  7.59869910E+00 -1.51973982E+01  7.59869910E+00  7.59869910E+00 -1.51973982E+01
  7.59869910E+00  7.59869910E+00 -1.51973982E+01  7.59869910E+00  7.59869910E+00
 -1.51973982E+01  7.59869910E+00  7.59869910E+00 -1.51973982E+01  7.59869910E+00
  7.59869910E+00 -1.51973982E+01  7.59869910E+00  7.59869910E+00 -1.51973982E+01
  7.59869910E+00  7.59869910E+00 -1.51973982E+01  7.59869910E+00  7.59869910E+00
 -1.51973982E+01  7.59869910E+00  7.59869910E+00 -1.51973982E+01  7.59869910E+00
  7.59869910E+00 -1.51973982E+01  7.59869910E+00  7.59869910E+00 -1.51973982E+01
  7.59869910E+00  7.59869910E+00 -1.51973982E+01  7.59869910E+00  7.59869910E+00
 -1.51973982E+01  7.59869910E+00  7.59869910E+00 -1.51973982E+01  7.59869910E+00
  7.59869910E+00 -1.51973982E+01  7.59869910E+00  7.59869910E+00 -1.51973982E+01
  7.59869910E+00  7.59869910E+00 -1.51973982E+01  7.59869910E+00  7.59869910E+00
 -1.51973982E+01  7.59869910E+00  7.59869910E+00 -1.51973982E+01  7.59869910E+00
  7.59869910E+00 -1.51973982E+01  7.59869910E+00  7.59869910E+00 -1.51973982E+01
  7.59869910E+00  7.59869910E+00 -1.51973982E+01  7.59869910E+00  7.59869910E+00
 -1.51973982E+01  7.59869910E+00  7.59869910E+00 -1.51973982E+01  7.59869910E+00
  7.59869910E+00 -1.51973982E+01  7.59869910E+00  7.59869910E+00 -1.51973982E+01
  7.59869910E+00  7.59869910E+00 -1.51973982E+01  7.59869910E+00  7.59869910E+00
 -1.51973982E+01  7.59869910E+00  7.59869910E+00 -1.51973982E+01  7.59869910E+00
  7.59869910E+00 -1.51973982E+01  7.59869910E+00  7.59869910E+00 -1.51973982E+01
  7.59869910E+00  7.59869910E+00 -1.51973982E+01  7.59869910E+00  7.59869910E+00
 -1.51973982E+01  7.59869910E+00  7.59869910E+00 -1.51973982E+01  7.59869910E+00
  7.59869910E+00 -1.51973982E+01  7.59869910E+00  7.59869910E+00 -1.51973982E+01
  7.59869910E+00  7.59869910E+00 -1.51973982E+01  7.59869910E+00  7.59869910E+00
 -1.51973982E+01  7.59869910E+00  7.59869910E+00 -1.51973982E+01  7.59869910E+00
  7.59869910E+00 -1.51973982E+01  7.59869910E+00  7.59869910E+00 -1.51973982E+01
  7.59869910E+00  7.59869910E+00 -1.51973982E+01  7.59869910E+00  7.59869910E+00
 -1.51973982E+01  7.59869910E+00  7.59869910E+00 -1.51973982E+01  7.59869910E+00
  7.59869910E+00 -1.51973982E+01  7.59869910E+00  7.59869910E+00 -1.51973982E+01
  7.59869910E+00  7.59869910E+00 -1.51973982E+01  7.59869910E+00  7.59869910E+00
 -1.51973982E+01  7.59869910E+00  7.59869910E+00 -1.51973982E+01  7.59869910E+00
  7.59869910E+00 -1.51973982E+01  7.59869910E+00  7.59869910E+00 -1.51973982E+01
  7.59869910E+00  7.59869910E+00 -1.51973982E+01  7.59869910E+00  7.59869910E+00
 -1.51973982E+01  7.59869910E+00  7.59869910E+00 -1.51973982E+01  7.59869910E+00
  7.59869910E+00 -1.51973982E+01  7.59869910E+00  7.59869910E+00 -1.51973982E+01
  7.59869910E+00  7.59869910E+00 -1.51973982E+01  7.59869910E+00  7.59869910E+00
 -1.51973982E+01  7.59869910E+00  7.59869910E+00 -1.51973982E+01  7.59869910E+00
  7.59869910E+00 -1.51973982E+01  7.59869910E+00  7.59869910E+00 -1.51973982E+01
  7.59869910E+00  7.59869910E+00 -1.51973982E+01  7.59869910E+00  7.59869910E+00
 -1.51973982E+01  7.59869910E+00  7.59869910E+00 -1.51973982E+01  7.59869910E+00
  7.59869910E+00 -1.51973982E+01  7.59869910E+00  7.59869910E+00 -1.51973982E+01
  7.59869910E+00  7.59869910E+00 -1.51973982E+01  7.59869910E+00  7.59869910E+00
 -1.51973982E+01  7.59869910E+00  7.59869910E+00 -1.51973982E+01  7.59869910E+00
  7.59869910E+00 -1.51973982E+01  7.59869910E+00  7.59869910E+00 -1.51973982E+01
  7.59869910E+00  7.59869910E+00 -1.51973982E+01  7.59869910E+00  7.59869910E+00
 -1.51973982E+01  7.59869910E+00  7.59869910E+00 -1.51973982E+01  7.59869910E+00
  7.59869910E+00 -1.51973982E+01  7.59869910E+00  7.59869910E+00 -1.51973982E+01
  7.59869910E+00  7.59869910E+00 -1.51973982E+01  7.59869910E+00  7.59869910E+00
 -1.51973982E+01  7.59869910E+00  7.59869910E+00 -1.51973982E+01  7.59869910E+00
  7.59869910E+00 -1.51973982E+01  7.59869910E+00  7.59869910E+00 -1.51973982E+01
  7.59869910E+00  7.59869910E+00 -1.51973982E+01  7.59869910E+00  7.59869910E+00
 -1.51973982E+01  7.59869910E+00  7.59869910E+00 -1.51973982E+01  7.59869910E+00
  7.59869910E+00 -1.51973982E+01  7.59869910E+00  7.59869910E+00 -1.51973982E+01
  7.59869910E+00  7.59869910E+00 -1.51973982E+01  7.59869910E+00  7.59869910E+00
 -1.51973982E+01  7.59869910E+00  7.59869910E+00 -1.51973982E+01  7.59869910E+00
  7.59869910E+00 -1.51973982E+01  7.59869910E+00  7.59869910E+00 -1.51973982E+01
  7.59869910E+00  7.59869910E+00 -1.51973982E+01  7.59869910E+00  7.59869910E+00
 -1.51973982E+01  7.59869910E+00  7.59869910E+00 -1.51973982E+01  7.59869910E+00
  7.59869910E+00 -1.51973982E+01  7.59869910E+00  7.59869910E+00 -1.51973982E+01
  7.59869910E+00  7.59869910E+00 -1.51973982E+01  7.59869910E+00  7.59869910E+00
 -1.51973982E+01  7.59869910E+00  7.59869910E+00 -1.51973982E+01  7.59869910E+00
  7.59869910E+00 -1.51973982E+01  7.59869910E+00  7.59869910E+00 -1.51973982E+01
  7.59869910E+00  7.59869910E+00 -1.51973982E+01  7.59869910E+00  7.59869910E+00
 -1.51973982E+01  7.59869910E+00  7.59869910E+00 -1.51973982E+01  7.59869910E+00
  7.59869910E+00 -1.51973982E+01  7.59869910E+00  7.59869910E+00 -1.51973982E+01
  7.59869910E+00  7.59869910E+00 -1.51973982E+01  7.59869910E+00  7.59869910E+00
 -1.51973982E+01  7.59869910E+00  7.59869910E+00 -1.51973982E+01  7.59869910E+00
  7.59869910E+00 -1.51973982E+01  7.59869910E+00  7.59869910E+00 -1.51973982E+01
  7.59869910E+00  7.59869910E+00 -1.51973982E+01  7.59869910E+00  7.59869910E+00
 -1.51973982E+01  7.59869910E+00  7.59869910E+00 -1.51973982E+01  7.59869910E+00
  7.59869910E+00 -1.51973982E+01  7.59869910E+00  7.59869910E+00 -1.51973982E+01
  7.59869910E+00  7.59869910E+00 -1.51973982E+01  7.59869910E+00  7.59869910E+00
 -1.51973982E+01  7.59869910E+00  7.59869910E+00 -1.51973982E+01  7.59869910E+00
  7.59869910E+00 -1.51973982E+01  7.59869910E+00  7.59869910E+00 -1.51973982E+01
  7.59869910E+00  7.59869910E+00 -1.51973982E+01  7.59869910E+00  7.59869910E+00
 -1.51973982E+01  7.59869910E+00  7.59869910E+00 -1.51973982E+01  7.59869910E+00
  7.59869910E+00 -1.51973982E+01  7.59869910E+00  7.59869910E+00 -1.51973982E+01
  7.59869910E+00  7.59869910E+00 -1.51973982E+01  7.59869910E+00  7.59869910E+00
 -1.51973982E+01  7.59869910E+00  7.59869910E+00 -1.51973982E+01  7.59869910E+00
  7.59869910E+00 -1.51973982E+01  7.59869910E+00  7.59869910E+00 -1.51973982E+01
  7.59869910E+00  7.59869910E+00 -1.51973982E+01  7.59869910E+00  7.59869910E+00
 -1.51973982E+01  7.59869910E+00  7.59869910E+00 -1.51973982E+01  7.59869910E+00
  7.59869910E+00 -1.51973982E+01  7.59869910E+00  7.59869910E+00 -1.51973982E+01
  7.59869910E+00  7.59869910E+00 -1.51973982E+01  7.59869910E+00  7.59869910E+00
 -1.51973982E+01  7.59869910E+00  7.59869910E+00 -1.51973982E+01  7.59869910E+00
  7.59869910E+00 -1.51973982E+01  7.59869910E+00  7.59869910E+00 -1.51973982E+01
  7.59869910E+00  7.59869910E+00 -1.51973982E+01  7.59869910E+00  7.59869910E+00
 -1.51973982E+01  7.59869910E+00  7.59869910E+00 -1.51973982E+01  7.59869910E+00
  7.59869910E+00 -1.51973982E+01  7.59869910E+00  7.59869910E+00 -1.51973982E+01
  7.59869910E+00  7.59869910E+00 -1.51973982E+01  7.59869910E+00  7.59869910E+00
 -1.51973982E+01  7.59869910E+00  7.59869910E+00 -1.51973982E+01  7.59869910E+00
  7.59869910E+00 -1.51973982E+01  7.59869910E+00  7.59869910E+00 -1.51973982E+01
  7.59869910E+00  7.59869910E+00 -1.51973982E+01  7.59869910E+00  7.59869910E+00
 -1.51973982E+01  7.59869910E+00  7.59869910E+00 -1.51973982E+01  7.59869910E+00
  7.59869910E+00 -1.51973982E+01  7.59869910E+00  7.59869910E+00 -1.51973982E+01
  7.59869910E+00  7.59869910E+00 -1.51973982E+01  7.59869910E+00  7.59869910E+00
 -1.51973982E+01  7.59869910E+00  7.59869910E+00 -1.51973982E+01  7.59869910E+00
  7.59869910E+00 -1.51973982E+01  7.59869910E+00  7.59869910E+00 -1.51973982E+01
  7.59869910E+00  7.59869910E+00 -1.51973982E+01  7.59869910E+00  7.59869910E+00
 -1.51973982E+01  7.59869910E+00  7.59869910E+00 -1.51973982E+01  7.59869910E+00
  7.59869910E+00 -1.51973982E+01  7.59869910E+00  7.59869910E+00 -1.51973982E+01
  7.59869910E+00  7.59869910E+00 -1.51973982E+01  7.59869910E+00  7.59869910E+00
 -1.51973982E+01  7.59869910E+00  7.59869910E+00 -1.51973982E+01  7.59869910E+00
  7.59869910E+00 -1.51973982E+01  7.59869910E+00  7.59869910E+00 -1.51973982E+01
  7.59869910E+00  7.59869910E+00 -1.51973982E+01  7.59869910E+00  7.59869910E+00
 -1.51973982E+01  7.59869910E+00  7.59869910E+00 -1.51973982E+01  7.59869910E+00
  7.59869910E+00 -1.51973982E+01  7.59869910E+00  7.59869910E+00 -1.51973982E+01
  7.59869910E+00  7.59869910E+00 -1.51973982E+01  7.59869910E+00  7.59869910E+00
 -1.51973982E+01  7.59869910E+00  7.59869910E+00 -1.51973982E+01  7.59869910E+00
  7.59869910E+00 -1.51973982E+01  7.59869910E+00  7.59869910E+00 -1.51973982E+01
  7.59869910E+00  7.59869910E+00 -1.51973982E+01  7.59869910E+00  7.59869910E+00
 -1.51973982E+01  7.59869910E+00  7.59869910E+00 -1.51973982E+01  7.59869910E+00
  7.59869910E+00 -1.51973982E+01  7.59869910E+00  7.59869910E+00 -1.51973982E+01
  7.59869910E+00  7.59869910E+00 -1.51973982E+01  7.59869910E+00  7.59869910E+00
 -1.51973982E+01  7.59869910E+00  7.59869910E+00 -1.51973982E+01  7.59869910E+00
  7.59869910E+00 -1.51973982E+01  7.59869910E+00  7.59869910E+00 -1.51973982E+01
  7.59869910E+00  7.59869910E+00 -1.51973982E+01  7.59869910E+00  7.59869910E+00
 -1.51973982E+01  7.59869910E+00  7.59869910E+00 -1.51973982E+01  7.59869910E+00
  7.59869910E+00 -1.51973982E+01  7.59869910E+00  7.59869910E+00 -1.51973982E+01
  7.59869910E+00  7.59869910E+00 -1.51973982E+01  7.59869910E+00  7.59869910E+00
 -1.51973982E+01  7.59869910E+00  7.59869910E+00 -1.51973982E+01  7.59869910E+00
  7.59869910E+00 -1.51973982E+01  7.59869910E+00  7.59869910E+00 -1.51973982E+01
  7.59869910E+00  7.59869910E+00 -1.51973982E+01  7.59869910E+00  7.59869910E+00
 -1.51973982E+01  7.59869910E+00  7.59869910E+00 -1.51973982E+01  7.59869910E+00
  7.59869910E+00 -1.51973982E+01  7.59869910E+00  7.59869910E+00 -1.51973982E+01
  7.59869910E+00  7.59869910E+00 -1.51973982E+01  7.59869910E+00  7.59869910E+00
 -1.51973982E+01  7.59869910E+00  7.59869910E+00 -1.51973982E+01  7.59869910E+00
  7.59869910E+00 -1.51973982E+01  7.59869910E+00  7.59869910E+00 -1.51973982E+01
  7.59869910E+00  7.59869910E+00 -1.51973982E+01  7.59869910E+00  7.59869910E+00
 -1.51973982E+01  7.59869910E+00  7.59869910E+00 -1.51973982E+01  7.59869910E+00
  7.59869910E+00 -1.51973982E+01  7.59869910E+00  7.59869910E+00 -1.51973982E+01
  7.59869910E+00  7.59869910E+00 -1.51973982E+01  7.59869910E+00  7.59869910E+00
 -1.51973982E+01  7.59869910E+00  7.59869910E+00 -1.51973982E+01  7.59869910E+00
  7.59869910E+00 -1.51973982E+01  7.59869910E+00  7.59869910E+00 -1.51973982E+01
  7.59869910E+00  7.59869910E+00 -1.51973982E+01  7.59869910E+00  7.59869910E+00
 -1.51973982E+01  7.59869910E+00  7.59869910E+00 -1.51973982E+01  7.59869910E+00
  7.59869910E+00 -1.51973982E+01  7.59869910E+00  7.59869910E+00 -1.51973982E+01
  7.59869910E+00  7.59869910E+00 -1.51973982E+01  7.59869910E+00  7.59869910E+00
 -1.51973982E+01  7.59869910E+00  7.59869910E+00 -1.51973982E+01  7.59869910E+00
  7.59869910E+00 -1.51973982E+01  7.59869910E+00  7.59869910E+00 -1.51973982E+01
  7.59869910E+00  7.59869910E+00 -1.51973982E+01  7.59869910E+00  7.59869910E+00
 -1.51973982E+01  7.59869910E+00  7.59869910E+00 -1.51973982E+01  7.59869910E+00
  7.59869910E+00 -1.51973982E+01  7.59869910E+00  7.59869910E+00 -1.51973982E+01
  7.59869910E+00  7.59869910E+00 -1.51973982E+01  7.59869910E+00  7.59869910E+00
 -1.51973982E+01  7.59869910E+00  7.59869910E+00 -1.51973982E+01  7.59869910E+00
  7.59869910E+00 -1.51973982E+01  7.59869910E+00  7.59869910E+00 -1.51973982E+01
  7.59869910E+00  7.59869910E+00 -1.51973982E+01  7.59869910E+00  7.59869910E+00
 -1.51973982E+01  7.59869910E+00  7.59869910E+00 -1.51973982E+01  7.59869910E+00
  7.59869910E+00 -1.51973982E+01  7.59869910E+00  7.59869910E+00 -1.51973982E+01
  7.59869910E+00  7.59869910E+00 -1.51973982E+01  7.59869910E+00  7.59869910E+00
 -1.51973982E+01  7.59869910E+00  7.59869910E+00 -1.51973982E+01  7.59869910E+00
  7.59869910E+00 -1.51973982E+01  7.59869910E+00  7.59869910E+00 -1.51973982E+01
  7.59869910E+00  7.59869910E+00 -1.51973982E+01  7.59869910E+00  7.59869910E+00
 -1.51973982E+01  7.59869910E+00  7.59869910E+00 -1.51973982E+01  7.59869910E+00
  7.59869910E+00 -1.51973982E+01  7.59869910E+00  7.59869910E+00 -1.51973982E+01
  7.59869910E+00  7.59869910E+00 -1.51973982E+01  7.59869910E+00  7.59869910E+00
 -1.51973982E+01  7.59869910E+00  7.59869910E+00 -1.51973982E+01  7.59869910E+00
  7.59869910E+00 -1.51973982E+01  7.59869910E+00  7.59869910E+00 -1.51973982E+01
  7.59869910E+00  7.59869910E+00 -1.51973982E+01  7.59869910E+00  7.59869910E+00
 -1.51973982E+01  7.59869910E+00  7.59869910E+00 -1.51973982E+01  7.59869910E+00
  7.59869910E+00 -1.51973982E+01  7.59869910E+00  7.59869910E+00 -1.51973982E+01
  7.59869910E+00  7.59869910E+00 -1.51973982E+01  7.59869910E+00  7.59869910E+00
 -1.51973982E+01  7.59869910E+00  7.59869910E+00 -1.51973982E+01  7.59869910E+00
  7.59869910E+00 -1.51973982E+01  7.59869910E+00  7.59869910E+00 -1.51973982E+01
  7.59869910E+00  7.59869910E+00 -1.51973982E+01  7.59869910E+00  7.59869910E+00
 -1.51973982E+01  7.59869910E+00  7.59869910E+00 -1.51973982E+01  7.59869910E+00
  7.59869910E+00 -1.51973982E+01  7.59869910E+00  7.59869910E+00 -1.51973982E+01
  7.59869910E+00  7.59869910E+00 -1.51973982E+01  7.59869910E+00  7.59869910E+00
 -1.51973982E+01  7.59869910E+00  7.59869910E+00 -1.51973982E+01  7.59869910E+00
  7.59869910E+00 -1.51973982E+01  7.59869910E+00  7.59869910E+00 -1.51973982E+01
  7.59869910E+00  7.59869910E+00 -1.51973982E+01  7.59869910E+00  7.59869910E+00
 -1.51973982E+01  7.59869910E+00  7.59869910E+00 -1.51973982E+01  7.59869910E+00
  7.59869910E+00 -1.51973982E+01  7.59869910E+00  7.59869910E+00 -1.51973982E+01
  7.59869910E+00  7.59869910E+00 -1.51973982E+01  7.59869910E+00  7.59869910E+00
 -1.51973982E+01  7.59869910E+00  7.59869910E+00 -1.51973982E+01  7.59869910E+00
  7.59869910E+00 -1.51973982E+01  7.59869910E+00  7.59869910E+00 -1.51973982E+01
  7.59869910E+00  7.59869910E+00 -1.51973982E+01  7.59869910E+00  7.59869910E+00
 -1.51973982E+01  7.59869910E+00  7.59869910E+00 -1.51973982E+01  7.59869910E+00
  7.59869910E+00 -1.51973982E+01  7.59869910E+00  7.59869910E+00 -1.51973982E+01
  7.59869910E+00  7.59869910E+00 -1.51973982E+01  7.59869910E+00  7.59869910E+00
 -1.51973982E+01  7.59869910E+00  7.59869910E+00 -1.51973982E+01  7.59869910E+00
  7.59869910E+00 -1.51973982E+01  7.59869910E+00  7.59869910E+00 -1.51973982E+01
  7.59869910E+00  7.59869910E+00 -1.51973982E+01  7.59869910E+00  7.59869910E+00
 -1.51973982E+01  7.59869910E+00  7.59869910E+00 -1.51973982E+01  7.59869910E+00
  7.59869910E+00 -1.51973982E+01  7.59869910E+00  7.59869910E+00 -1.51973982E+01
  7.59869910E+00  7.59869910E+00 -1.51973982E+01  7.59869910E+00  7.59869910E+00
 -1.51973982E+01  7.59869910E+00  7.59869910E+00 -1.51973982E+01  7.59869910E+00
  7.59869910E+00 -1.51973982E+01  7.59869910E+00  7.59869910E+00 -1.51973982E+01
  7.59869910E+00  7.59869910E+00 -1.51973982E+01  7.59869910E+00  7.59869910E+00
 -1.51973982E+01  7.59869910E+00  7.59869910E+00 -1.51973982E+01  7.59869910E+00
  7.59869910E+00 -1.51973982E+01  7.59869910E+00  7.59869910E+00 -1.51973982E+01
  7.59869910E+00  7.59869910E+00 -1.51973982E+01  7.59869910E+00  7.59869910E+00
 -1.51973982E+01  7.59869910E+00  7.59869910E+00 -1.51973982E+01  7.59869910E+00
  7.59869910E+00 -1.51973982E+01  7.59869910E+00  7.59869910E+00 -1.51973982E+01
  7.59869910E+00  7.59869910E+00 -1.51973982E+01  7.59869910E+00  7.59869910E+00
 -1.51973982E+01  7.59869910E+00  7.59869910E+00 -1.51973982E+01  7.59869910E+00
  7.59869910E+00 -1.51973982E+01  7.59869910E+00  7.59869910E+00 -1.51973982E+01
  7.59869910E+00  7.59869910E+00 -1.51973982E+01  7.59869910E+00  7.59869910E+00
 -1.51973982E+01  7.59869910E+00  7.59869910E+00 -1.51973982E+01  7.59869910E+00
  7.59869910E+00 -1.51973982E+01  7.59869910E+00  7.59869910E+00 -1.51973982E+01
  7.59869910E+00  7.59869910E+00 -1.51973982E+01  7.59869910E+00  7.59869910E+00
 -1.51973982E+01  7.59869910E+00  7.59869910E+00 -1.51973982E+01  7.59869910E+00
  7.59869910E+00 -1.51973982E+01  7.59869910E+00  7.59869910E+00 -1.51973982E+01
  7.59869910E+00  7.59869910E+00 -1.51973982E+01  7.59869910E+00  7.59869910E+00
 -1.51973982E+01  7.59869910E+00  7.59869910E+00 -1.51973982E+01  7.59869910E+00
  7.59869910E+00 -1.51973982E+01  7.59869910E+00  7.59869910E+00 -1.51973982E+01
  7.59869910E+00  7.59869910E+00 -1.51973982E+01  7.59869910E+00  7.59869910E+00
 -1.51973982E+01  7.59869910E+00  7.59869910E+00 -1.51973982E+01  7.59869910E+00
  7.59869910E+00 -1.51973982E+01  7.59869910E+00  7.59869910E+00 -1.51973982E+01
  7.59869910E+00  7.59869910E+00 -1.51973982E+01  7.59869910E+00  7.59869910E+00
 -1.51973982E+01  7.59869910E+00  7.59869910E+00 -1.51973982E+01  7.59869910E+00
  7.59869910E+00 -1.51973982E+01  7.59869910E+00  7.59869910E+00 -1.51973982E+01
  7.59869910E+00  7.59869910E+00 -1.51973982E+01  7.59869910E+00  7.59869910E+00
 -1.51973982E+01  7.59869910E+00  7.59869910E+00 -1.51973982E+01  7.59869910E+00
  7.59869910E+00 -1.51973982E+01  7.59869910E+00  7.59869910E+00 -1.51973982E+01
  7.59869910E+00  7.59869910E+00 -1.51973982E+01  7.59869910E+00  7.59869910E+00
 -1.51973982E+01  7.59869910E+00  7.59869910E+00 -1.51973982E+01  7.59869910E+00
  7.59869910E+00 -1.51973982E+01  7.59869910E+00  7.59869910E+00 -1.51973982E+01
  7.59869910E+00  7.59869910E+00 -1.51973982E+01  7.59869910E+00  7.59869910E+00
 -1.51973982E+01  7.59869910E+00  7.59869910E+00 -1.51973982E+01  7.59869910E+00
  7.59869910E+00 -1.51973982E+01  7.59869910E+00  7.59869910E+00 -1.51973982E+01
  7.59869910E+00  7.59869910E+00 -1.51973982E+01  7.59869910E+00  7.59869910E+00
 -1.51973982E+01  7.59869910E+00  7.59869910E+00 -1.51973982E+01  7.59869910E+00
  7.59869910E+00 -1.51973982E+01  7.59869910E+00  7.59869910E+00 -1.51973982E+01
  7.59869910E+00  7.59869910E+00 -1.51973982E+01  7.59869910E+00  7.59869910E+00
 -1.51973982E+01  7.59869910E+00  7.59869910E+00 -1.51973982E+01  7.59869910E+00
  7.59869910E+00 -1.51973982E+01  7.59869910E+00  7.59869910E+00 -1.51973982E+01
  7.59869910E+00  7.59869910E+00 -1.51973982E+01  7.59869910E+00  7.59869910E+00
 -1.51973982E+01  7.59869910E+00  7.59869910E+00 -1.51973982E+01  7.59869910E+00
  7.59869910E+00 -1.51973982E+01  7.59869910E+00  7.59869910E+00 -1.51973982E+01
  7.59869910E+00  7.59869910E+00 -1.51973982E+01  7.59869910E+00  7.59869910E+00
 -1.51973982E+01  7.59869910E+00  7.59869910E+00 -1.51973982E+01  7.59869910E+00
  7.59869910E+00 -1.51973982E+01  7.59869910E+00  7.59869910E+00 -1.51973982E+01
  7.59869910E+00  7.59869910E+00 -1.51973982E+01  7.59869910E+00  7.59869910E+00
 -1.51973982E+01  7.59869910E+00  7.59869910E+00 -1.51973982E+01  7.59869910E+00
  7.59869910E+00 -1.51973982E+01  7.59869910E+00  7.59869910E+00 -1.51973982E+01
  7.59869910E+00  7.59869910E+00 -1.51973982E+01  7.59869910E+00  7.59869910E+00
 -1.51973982E+01  7.59869910E+00  7.59869910E+00 -1.51973982E+01  7.59869910E+00
  7.59869910E+00 -1.51973982E+01  7.59869910E+00  7.59869910E+00 -1.51973982E+01
  7.59869910E+00  7.59869910E+00 -1.51973982E+01  7.59869910E+00  7.59869910E+00
 -1.51973982E+01  7.59869910E+00  7.59869910E+00 -1.51973982E+01  7.59869910E+00
  7.59869910E+00 -1.51973982E+01  7.59869910E+00  7.59869910E+00 -1.51973982E+01
  7.59869910E+00  7.59869910E+00 -1.51973982E+01  7.59869910E+00  7.59869910E+00
 -1.51973982E+01  7.59869910E+00  7.59869910E+00 -1.51973982E+01  7.59869910E+00
  7.59869910E+00 -1.51973982E+01  7.59869910E+00  7.59869910E+00 -1.51973982E+01
  7.59869910E+00  7.59869910E+00 -1.51973982E+01  7.59869910E+00  7.59869910E+00
 -1.51973982E+01  7.59869910E+00  7.59869910E+00 -1.51973982E+01  7.59869910E+00
  7.59869910E+00 -1.51973982E+01  7.59869910E+00  7.59869910E+00 -1.51973982E+01
  7.59869910E+00  7.59869910E+00 -1.51973982E+01  7.59869910E+00  7.59869910E+00
 -1.51973982E+01  7.59869910E+00  7.59869910E+00 -1.51973982E+01  7.59869910E+00
  7.59869910E+00 -1.51973982E+01  7.59869910E+00  7.59869910E+00 -1.51973982E+01
  7.59869910E+00  7.59869910E+00 -1.51973982E+01  7.59869910E+00  7.59869910E+00
 -1.51973982E+01  7.59869910E+00  7.59869910E+00 -1.51973982E+01  7.59869910E+00
  7.59869910E+00 -1.51973982E+01  7.59869910E+00  7.59869910E+00 -1.51973982E+01
  7.59869910E+00  7.59869910E+00 -1.51973982E+01  7.59869910E+00  7.59869910E+00
 -1.51973982E+01  7.59869910E+00  7.59869910E+00 -1.51973982E+01  7.59869910E+00
  7.59869910E+00 -1.51973982E+01  7.59869910E+00  7.59869910E+00 -1.51973982E+01
  7.59869910E+00  7.59869910E+00 -1.51973982E+01  7.59869910E+00  7.59869910E+00
 -1.51973982E+01  7.59869910E+00  7.59869910E+00 -1.51973982E+01  7.59869910E+00
  7.59869910E+00 -1.51973982E+01  7.59869910E+00  7.59869910E+00 -1.51973982E+01
  7.59869910E+00  7.59869910E+00 -1.51973982E+01  7.59869910E+00  7.59869910E+00
 -1.51973982E+01  7.59869910E+00  7.59869910E+00 -1.51973982E+01  7.59869910E+00
  7.59869910E+00 -1.51973982E+01  7.59869910E+00  7.59869910E+00 -1.51973982E+01
  7.59869910E+00  7.59869910E+00 -1.51973982E+01  7.59869910E+00  7.59869910E+00
 -1.51973982E+01  7.59869910E+00  7.59869910E+00 -1.51973982E+01  7.59869910E+00
  7.59869910E+00 -1.51973982E+01  7.59869910E+00  7.59869910E+00 -1.51973982E+01
  7.59869910E+00  7.59869910E+00 -1.51973982E+01  7.59869910E+00  7.59869910E+00
 -1.51973982E+01  7.59869910E+00  7.59869910E+00 -1.51973982E+01  7.59869910E+00
  7.59869910E+00 -1.51973982E+01  7.59869910E+00  7.59869910E+00 -1.51973982E+01
  7.59869910E+00  7.59869910E+00 -1.51973982E+01  7.59869910E+00  7.59869910E+00
 -1.51973982E+01  7.59869910E+00  7.59869910E+00 -1.51973982E+01  7.59869910E+00
  7.59869910E+00 -1.51973982E+01  7.59869910E+00  7.59869910E+00 -1.51973982E+01
  7.59869910E+00  7.59869910E+00 -1.51973982E+01  7.59869910E+00  7.59869910E+00
 -1.51973982E+01  7.59869910E+00  7.59869910E+00 -1.51973982E+01  7.59869910E+00
  7.59869910E+00 -1.51973982E+01  7.59869910E+00  7.59869910E+00 -1.51973982E+01
  7.59869910E+00  7.59869910E+00 -1.51973982E+01  7.59869910E+00  7.59869910E+00
 -1.51973982E+01  7.59869910E+00  7.59869910E+00 -1.51973982E+01  7.59869910E+00
  7.59869910E+00 -1.51973982E+01  7.59869910E+00  7.59869910E+00 -1.51973982E+01
  7.59869910E+00  7.59869910E+00 -1.51973982E+01  7.59869910E+00  7.59869910E+00
 -1.51973982E+01  7.59869910E+00  7.59869910E+00 -1.51973982E+01  7.59869910E+00
  7.59869910E+00 -1.51973982E+01  7.59869910E+00  7.59869910E+00 -1.51973982E+01
  7.59869910E+00  7.59869910E+00 -1.51973982E+01  7.59869910E+00  7.59869910E+00
 -1.51973982E+01  7.59869910E+00  7.59869910E+00 -1.51973982E+01  7.59869910E+00
  7.59869910E+00 -1.51973982E+01  7.59869910E+00  7.59869910E+00 -1.51973982E+01
  7.59869910E+00  7.59869910E+00 -1.51973982E+01  7.59869910E+00  7.59869910E+00
 -1.51973982E+01  7.59869910E+00  7.59869910E+00 -1.51973982E+01  7.59869910E+00
  7.59869910E+00 -1.51973982E+01  7.59869910E+00  7.59869910E+00 -1.51973982E+01
  7.59869910E+00  7.59869910E+00 -1.51973982E+01  7.59869910E+00  7.59869910E+00
 -1.51973982E+01  7.59869910E+00  7.59869910E+00 -1.51973982E+01  7.59869910E+00
  7.59869910E+00 -1.51973982E+01  7.59869910E+00  7.59869910E+00 -1.51973982E+01
  7.59869910E+00  7.59869910E+00 -1.51973982E+01  7.59869910E+00  7.59869910E+00
 -1.51973982E+01  7.59869910E+00  7.59869910E+00 -1.51973982E+01  7.59869910E+00
  7.59869910E+00 -1.51973982E+01  7.59869910E+00  7.59869910E+00 -1.51973982E+01
  7.59869910E+00  7.59869910E+00 -1.51973982E+01  7.59869910E+00  7.59869910E+00
 -1.51973982E+01  7.59869910E+00  7.59869910E+00 -1.51973982E+01  7.59869910E+00
  7.59869910E+00 -1.51973982E+01  7.59869910E+00  7.59869910E+00 -1.51973982E+01
  7.59869910E+00  7.59869910E+00 -1.51973982E+01  7.59869910E+00  7.59869910E+00
 -1.51973982E+01  7.59869910E+00  7.59869910E+00 -1.51973982E+01  7.59869910E+00
  7.59869910E+00 -1.51973982E+01  7.59869910E+00  7.59869910E+00 -1.51973982E+01
  7.59869910E+00  7.59869910E+00 -1.51973982E+01  7.59869910E+00  7.59869910E+00
 -1.51973982E+01  7.59869910E+00  7.59869910E+00 -1.51973982E+01  7.59869910E+00
  7.59869910E+00 -1.51973982E+01  7.59869910E+00  7.59869910E+00 -1.51973982E+01
  7.59869910E+00  7.59869910E+00 -1.51973982E+01  7.59869910E+00  7.59869910E+00
 -1.51973982E+01  7.59869910E+00  7.59869910E+00 -1.51973982E+01  7.59869910E+00
  7.59869910E+00 -1.51973982E+01  7.59869910E+00  7.59869910E+00 -1.51973982E+01
  7.59869910E+00  7.59869910E+00 -1.51973982E+01  7.59869910E+00  7.59869910E+00
 -1.51973982E+01  7.59869910E+00  7.59869910E+00 -1.51973982E+01  7.59869910E+00
  7.59869910E+00 -1.51973982E+01  7.59869910E+00  7.59869910E+00 -1.51973982E+01
  7.59869910E+00  7.59869910E+00 -1.51973982E+01  7.59869910E+00  7.59869910E+00
 -1.51973982E+01  7.59869910E+00  7.59869910E+00 -1.51973982E+01  7.59869910E+00
  7.59869910E+00 -1.51973982E+01  7.59869910E+00  7.59869910E+00 -1.51973982E+01
  7.59869910E+00  7.59869910E+00 -1.51973982E+01  7.59869910E+00  7.59869910E+00
 -1.51973982E+01  7.59869910E+00  7.59869910E+00 -1.51973982E+01  7.59869910E+00
  7.59869910E+00 -1.51973982E+01  7.59869910E+00  7.59869910E+00 -1.51973982E+01
  7.59869910E+00  7.59869910E+00 -1.51973982E+01  7.59869910E+00  7.59869910E+00
 -1.51973982E+01  7.59869910E+00  7.59869910E+00 -1.51973982E+01  7.59869910E+00
  7.59869910E+00 -1.51973982E+01  7.59869910E+00  7.59869910E+00 -1.51973982E+01
  7.59869910E+00  7.59869910E+00 -1.51973982E+01  7.59869910E+00  7.59869910E+00
 -1.51973982E+01  7.59869910E+00  7.59869910E+00 -1.51973982E+01  7.59869910E+00
  7.59869910E+00 -1.51973982E+01  7.59869910E+00  7.59869910E+00 -1.51973982E+01
  7.59869910E+00  7.59869910E+00 -1.51973982E+01  7.59869910E+00  7.59869910E+00
 -1.51973982E+01  7.59869910E+00  7.59869910E+00 -1.51973982E+01  7.59869910E+00
  7.59869910E+00 -1.51973982E+01  7.59869910E+00  7.59869910E+00 -1.51973982E+01
  7.59869910E+00  7.59869910E+00 -1.51973982E+01  7.59869910E+00  7.59869910E+00
 -1.51973982E+01  7.59869910E+00  7.59869910E+00 -1.51973982E+01  7.59869910E+00
  7.59869910E+00 -1.51973982E+01  7.59869910E+00  7.59869910E+00 -1.51973982E+01
  7.59869910E+00  7.59869910E+00 -1.51973982E+01  7.59869910E+00  7.59869910E+00
 -1.51973982E+01  7.59869910E+00  7.59869910E+00 -1.51973982E+01  7.59869910E+00
  7.59869910E+00 -1.51973982E+01  7.59869910E+00  7.59869910E+00 -1.51973982E+01
  7.59869910E+00  7.59869910E+00 -1.51973982E+01  7.59869910E+00  7.59869910E+00
 -1.51973982E+01  7.59869910E+00  7.59869910E+00 -1.51973982E+01  7.59869910E+00
  7.59869910E+00 -1.51973982E+01  7.59869910E+00  7.59869910E+00 -1.51973982E+01
  7.59869910E+00  7.59869910E+00 -1.51973982E+01  7.59869910E+00  7.59869910E+00
 -1.51973982E+01  7.59869910E+00  7.59869910E+00 -1.51973982E+01  7.59869910E+00
  7.59869910E+00 -1.51973982E+01  7.59869910E+00  7.59869910E+00 -1.51973982E+01
  7.59869910E+00  7.59869910E+00 -1.51973982E+01  7.59869910E+00  7.59869910E+00
 -1.51973982E+01  7.59869910E+00  7.59869910E+00 -1.51973982E+01  7.59869910E+00
  7.59869910E+00 -1.51973982E+01  7.59869910E+00  7.59869910E+00 -1.51973982E+01
  7.59869910E+00  7.59869910E+00 -1.51973982E+01  7.59869910E+00  7.59869910E+00
 -1.51973982E+01  7.59869910E+00  7.59869910E+00 -1.51973982E+01  7.59869910E+00
  7.59869910E+00 -1.51973982E+01  7.59869910E+00  7.59869910E+00 -1.51973982E+01
  7.59869910E+00  7.59869910E+00 -1.51973982E+01  7.59869910E+00  7.59869910E+00
 -1.51973982E+01  7.59869910E+00  7.59869910E+00 -1.51973982E+01  7.59869910E+00
  7.59869910E+00 -1.51973982E+01  7.59869910E+00  7.59869910E+00 -1.51973982E+01
  7.59869910E+00  7.59869910E+00 -1.51973982E+01  7.59869910E+00  7.59869910E+00
 -1.51973982E+01  7.59869910E+00  7.59869910E+00 -1.51973982E+01  7.59869910E+00
  7.59869910E+00 -1.51973982E+01  7.59869910E+00  7.59869910E+00 -1.51973982E+01
  7.59869910E+00  7.59869910E+00 -1.51973982E+01  7.59869910E+00  7.59869910E+00
 -1.51973982E+01  7.59869910E+00  7.59869910E+00 -1.51973982E+01  7.59869910E+00
  7.59869910E+00 -1.51973982E+01  7.59869910E+00  7.59869910E+00 -1.51973982E+01
  7.59869910E+00  7.59869910E+00 -1.51973982E+01  7.59869910E+00  7.59869910E+00
 -1.51973982E+01  7.59869910E+00  7.59869910E+00 -1.51973982E+01  7.59869910E+00
  7.59869910E+00 -1.51973982E+01  7.59869910E+00  7.59869910E+00 -1.51973982E+01
  7.59869910E+00  7.59869910E+00 -1.51973982E+01  7.59869910E+00  7.59869910E+00
 -1.51973982E+01  7.59869910E+00  7.59869910E+00 -1.51973982E+01  7.59869910E+00
  7.59869910E+00 -1.51973982E+01  7.59869910E+00  7.59869910E+00 -1.51973982E+01
  7.59869910E+00  7.59869910E+00 -1.51973982E+01  7.59869910E+00  7.59869910E+00
 -1.51973982E+01  7.59869910E+00  7.59869910E+00 -1.51973982E+01  7.59869910E+00
  7.59869910E+00 -1.51973982E+01  7.59869910E+00  7.59869910E+00 -1.51973982E+01
  7.59869910E+00  7.59869910E+00 -1.51973982E+01  7.59869910E+00  7.59869910E+00
 -1.51973982E+01  7.59869910E+00  7.59869910E+00 -1.51973982E+01  7.59869910E+00
  7.59869910E+00 -1.51973982E+01  7.59869910E+00  7.59869910E+00 -1.51973982E+01
  7.59869910E+00  7.59869910E+00 -1.51973982E+01  7.59869910E+00  7.59869910E+00
 -1.51973982E+01  7.59869910E+00  7.59869910E+00 -1.51973982E+01  7.59869910E+00
  7.59869910E+00 -1.51973982E+01  7.59869910E+00  7.59869910E+00 -1.51973982E+01
  7.59869910E+00  7.59869910E+00 -1.51973982E+01  7.59869910E+00  7.59869910E+00
 -1.51973982E+01  7.59869910E+00  7.59869910E+00 -1.51973982E+01  7.59869910E+00
  7.59869910E+00 -1.51973982E+01  7.59869910E+00  7.59869910E+00 -1.51973982E+01
  7.59869910E+00  7.59869910E+00 -1.51973982E+01  7.59869910E+00  7.59869910E+00
 -1.51973982E+01  7.59869910E+00  7.59869910E+00 -1.51973982E+01  7.59869910E+00
  7.59869910E+00 -1.51973982E+01  7.59869910E+00  7.59869910E+00 -1.51973982E+01
  7.59869910E+00  7.59869910E+00 -1.51973982E+01  7.59869910E+00  7.59869910E+00
 -1.51973982E+01  7.59869910E+00  7.59869910E+00 -1.51973982E+01  7.59869910E+00
  7.59869910E+00 -1.51973982E+01  7.59869910E+00  7.59869910E+00 -1.51973982E+01
  7.59869910E+00  7.59869910E+00 -1.51973982E+01  7.59869910E+00  7.59869910E+00
 -1.51973982E+01  7.59869910E+00  7.59869910E+00 -1.51973982E+01  7.59869910E+00
  7.59869910E+00 -1.51973982E+01  7.59869910E+00  7.59869910E+00 -1.51973982E+01
  7.59869910E+00  7.59869910E+00 -1.51973982E+01  7.59869910E+00  7.59869910E+00
 -1.51973982E+01  7.59869910E+00  7.59869910E+00 -1.51973982E+01  7.59869910E+00
  7.59869910E+00 -1.51973982E+01  7.59869910E+00  7.59869910E+00 -1.51973982E+01
  7.59869910E+00  7.59869910E+00 -1.51973982E+01  7.59869910E+00  7.59869910E+00
 -1.51973982E+01  7.59869910E+00  7.59869910E+00 -1.51973982E+01  7.59869910E+00
  7.59869910E+00 -1.51973982E+01  7.59869910E+00  7.59869910E+00 -1.51973982E+01
  7.59869910E+00  7.59869910E+00 -1.51973982E+01  7.59869910E+00  7.59869910E+00
 -1.51973982E+01  7.59869910E+00  7.59869910E+00 -1.51973982E+01  7.59869910E+00
  7.59869910E+00 -1.51973982E+01  7.59869910E+00  7.59869910E+00 -1.51973982E+01
  7.59869910E+00  7.59869910E+00 -1.51973982E+01  7.59869910E+00  7.59869910E+00
 -1.51973982E+01  7.59869910E+00  7.59869910E+00 -1.51973982E+01  7.59869910E+00
  7.59869910E+00 -1.51973982E+01  7.59869910E+00  7.59869910E+00 -1.51973982E+01
  7.59869910E+00  7.59869910E+00 -1.51973982E+01  7.59869910E+00  7.59869910E+00
 -1.51973982E+01  7.59869910E+00  7.59869910E+00 -1.51973982E+01  7.59869910E+00
  7.59869910E+00 -1.51973982E+01  7.59869910E+00  7.59869910E+00 -1.51973982E+01
  7.59869910E+00  7.59869910E+00 -1.51973982E+01  7.59869910E+00  7.59869910E+00
 -1.51973982E+01  7.59869910E+00  7.59869910E+00 -1.51973982E+01  7.59869910E+00
  7.59869910E+00 -1.51973982E+01  7.59869910E+00  7.59869910E+00 -1.51973982E+01
  7.59869910E+00  7.59869910E+00 -1.51973982E+01  7.59869910E+00  7.59869910E+00
 -1.51973982E+01  7.59869910E+00  7.59869910E+00 -1.51973982E+01  7.59869910E+00
  7.59869910E+00 -1.51973982E+01  7.59869910E+00  7.59869910E+00 -1.51973982E+01
  7.59869910E+00  7.59869910E+00 -1.51973982E+01  7.59869910E+00  7.59869910E+00
 -1.51973982E+01  7.59869910E+00  7.59869910E+00 -1.51973982E+01  7.59869910E+00
  7.59869910E+00 -1.51973982E+01  7.59869910E+00  7.59869910E+00 -1.51973982E+01
  7.59869910E+00  7.59869910E+00 -1.51973982E+01  7.59869910E+00  7.59869910E+00
 -1.51973982E+01  7.59869910E+00  7.59869910E+00 -1.51973982E+01  7.59869910E+00
  7.59869910E+00 -1.51973982E+01  7.59869910E+00  7.59869910E+00 -1.51973982E+01
  7.59869910E+00  7.59869910E+00 -1.51973982E+01  7.59869910E+00  7.59869910E+00
 -1.51973982E+01  7.59869910E+00  7.59869910E+00 -1.51973982E+01  7.59869910E+00
  7.59869910E+00 -1.51973982E+01  7.59869910E+00  7.59869910E+00 -1.51973982E+01
  7.59869910E+00  7.59869910E+00 -1.51973982E+01  7.59869910E+00  7.59869910E+00
 -1.51973982E+01  7.59869910E+00  7.59869910E+00 -1.51973982E+01  7.59869910E+00
  7.59869910E+00 -1.51973982E+01  7.59869910E+00  7.59869910E+00 -1.51973982E+01
  7.59869910E+00  7.59869910E+00 -1.51973982E+01  7.59869910E+00  7.59869910E+00
 -1.51973982E+01  7.59869910E+00  7.59869910E+00 -1.51973982E+01  7.59869910E+00
  7.59869910E+00 -1.51973982E+01  7.59869910E+00  7.59869910E+00 -1.51973982E+01
  7.59869910E+00  7.59869910E+00 -1.51973982E+01  7.59869910E+00  7.59869910E+00
 -1.51973982E+01  7.59869910E+00  7.59869910E+00 -1.51973982E+01  7.59869910E+00
  7.59869910E+00 -1.51973982E+01  7.59869910E+00  7.59869910E+00 -1.51973982E+01
  7.59869910E+00  7.59869910E+00 -1.51973982E+01  7.59869910E+00  7.59869910E+00
 -1.51973982E+01  7.59869910E+00  7.59869910E+00 -1.51973982E+01  7.59869910E+00
  7.59869910E+00 -1.51973982E+01  7.59869910E+00  7.59869910E+00 -1.51973982E+01
  7.59869910E+00  7.59869910E+00 -1.51973982E+01  7.59869910E+00  7.59869910E+00
 -1.51973982E+01  7.59869910E+00  7.59869910E+00 -1.51973982E+01  7.59869910E+00
  7.59869910E+00 -1.51973982E+01  7.59869910E+00  7.59869910E+00 -1.51973982E+01
  7.59869910E+00  7.59869910E+00 -1.51973982E+01  7.59869910E+00  7.59869910E+00
 -1.51973982E+01  7.59869910E+00  7.59869910E+00 -1.51973982E+01  7.59869910E+00
  7.59869910E+00 -1.51973982E+01  7.59869910E+00  7.59869910E+00 -1.51973982E+01
  7.59869910E+00  7.59869910E+00 -1.51973982E+01  7.59869910E+00  7.59869910E+00
 -1.51973982E+01  7.59869910E+00  7.59869910E+00 -1.51973982E+01  7.59869910E+00
  7.59869910E+00 -1.51973982E+01  7.59869910E+00  7.59869910E+00 -1.51973982E+01
  7.59869910E+00  7.59869910E+00 -1.51973982E+01  7.59869910E+00  7.59869910E+00
 -1.51973982E+01  7.59869910E+00  7.59869910E+00 -1.51973982E+01  7.59869910E+00
  7.59869910E+00 -1.51973982E+01  7.59869910E+00  7.59869910E+00 -1.51973982E+01
  7.59869910E+00  7.59869910E+00 -1.51973982E+01  7.59869910E+00  7.59869910E+00
 -1.51973982E+01  7.59869910E+00  7.59869910E+00 -1.51973982E+01  7.59869910E+00
  7.59869910E+00 -1.51973982E+01  7.59869910E+00  7.59869910E+00 -1.51973982E+01
  7.59869910E+00  7.59869910E+00 -1.51973982E+01  7.59869910E+00  7.59869910E+00
 -1.51973982E+01  7.59869910E+00  7.59869910E+00 -1.51973982E+01  7.59869910E+00
  7.59869910E+00 -1.51973982E+01  7.59869910E+00  7.59869910E+00 -1.51973982E+01
  7.59869910E+00  7.59869910E+00 -1.51973982E+01  7.59869910E+00  7.59869910E+00
 -1.51973982E+01  7.59869910E+00  7.59869910E+00 -1.51973982E+01  7.59869910E+00
  7.59869910E+00 -1.51973982E+01  7.59869910E+00  7.59869910E+00 -1.51973982E+01
  7.59869910E+00  7.59869910E+00 -1.51973982E+01  7.59869910E+00  7.59869910E+00
 -1.51973982E+01  7.59869910E+00  7.59869910E+00 -1.51973982E+01  7.59869910E+00
  7.59869910E+00 -1.51973982E+01  7.59869910E+00  7.59869910E+00 -1.51973982E+01
  7.59869910E+00  7.59869910E+00 -1.51973982E+01  7.59869910E+00  7.59869910E+00
 -1.51973982E+01  7.59869910E+00  7.59869910E+00 -1.51973982E+01  7.59869910E+00
  7.59869910E+00 -1.51973982E+01  7.59869910E+00  7.59869910E+00 -1.51973982E+01
  7.59869910E+00  7.59869910E+00 -1.51973982E+01  7.59869910E+00  7.59869910E+00
 -1.51973982E+01  7.59869910E+00  7.59869910E+00 -1.51973982E+01  7.59869910E+00
  7.59869910E+00 -1.51973982E+01  7.59869910E+00  7.59869910E+00 -1.51973982E+01
  7.59869910E+00  7.59869910E+00 -1.51973982E+01  7.59869910E+00  7.59869910E+00
 -1.51973982E+01  7.59869910E+00  7.59869910E+00 -1.51973982E+01  7.59869910E+00
  7.59869910E+00 -1.51973982E+01  7.59869910E+00  7.59869910E+00 -1.51973982E+01
  7.59869910E+00  7.59869910E+00 -1.51973982E+01  7.59869910E+00  7.59869910E+00
 -1.51973982E+01  7.59869910E+00  7.59869910E+00 -1.51973982E+01  7.59869910E+00
  7.59869910E+00 -1.51973982E+01  7.59869910E+00  7.59869910E+00 -1.51973982E+01
  7.59869910E+00  7.59869910E+00 -1.51973982E+01  7.59869910E+00  7.59869910E+00
 -1.51973982E+01  7.59869910E+00  7.59869910E+00 -1.51973982E+01  7.59869910E+00
  7.59869910E+00 -1.51973982E+01  7.59869910E+00  7.59869910E+00 -1.51973982E+01
  7.59869910E+00  7.59869910E+00 -1.51973982E+01  7.59869910E+00  7.59869910E+00
 -1.51973982E+01  7.59869910E+00  7.59869910E+00 -1.51973982E+01  7.59869910E+00
  7.59869910E+00 -1.51973982E+01  7.59869910E+00  7.59869910E+00 -1.51973982E+01
  7.59869910E+00  7.59869910E+00 -1.51973982E+01  7.59869910E+00  7.59869910E+00
 -1.51973982E+01  7.59869910E+00  7.59869910E+00 -1.51973982E+01  7.59869910E+00
  7.59869910E+00 -1.51973982E+01  7.59869910E+00  7.59869910E+00 -1.51973982E+01
  7.59869910E+00  7.59869910E+00 -1.51973982E+01  7.59869910E+00  7.59869910E+00
 -1.51973982E+01  7.59869910E+00  7.59869910E+00 -1.51973982E+01  7.59869910E+00
  7.59869910E+00 -1.51973982E+01  7.59869910E+00  7.59869910E+00 -1.51973982E+01
  7.59869910E+00  7.59869910E+00 -1.51973982E+01  7.59869910E+00  7.59869910E+00
 -1.51973982E+01  7.59869910E+00  7.59869910E+00 -1.51973982E+01  7.59869910E+00
  7.59869910E+00 -1.51973982E+01  7.59869910E+00  7.59869910E+00 -1.51973982E+01
  7.59869910E+00  7.59869910E+00 -1.51973982E+01  7.59869910E+00  7.59869910E+00
 -1.51973982E+01  7.59869910E+00  7.59869910E+00 -1.51973982E+01  7.59869910E+00
  7.59869910E+00 -1.51973982E+01  7.59869910E+00  7.59869910E+00 -1.51973982E+01
  7.59869910E+00  7.59869910E+00 -1.51973982E+01  7.59869910E+00  7.59869910E+00
 -1.51973982E+01  7.59869910E+00  7.59869910E+00 -1.51973982E+01  7.59869910E+00
  7.59869910E+00 -1.51973982E+01  7.59869910E+00  7.59869910E+00 -1.51973982E+01
  7.59869910E+00  7.59869910E+00 -1.51973982E+01  7.59869910E+00  7.59869910E+00
 -1.51973982E+01  7.59869910E+00  7.59869910E+00 -1.51973982E+01  7.59869910E+00
  7.59869910E+00 -1.51973982E+01  7.59869910E+00  7.59869910E+00 -1.51973982E+01
  7.59869910E+00  7.59869910E+00 -1.51973982E+01  7.59869910E+00  7.59869910E+00
 -1.51973982E+01  7.59869910E+00  7.59869910E+00 -1.51973982E+01  7.59869910E+00
  7.59869910E+00 -1.51973982E+01  7.59869910E+00  7.59869910E+00 -1.51973982E+01
  7.59869910E+00  7.59869910E+00 -1.51973982E+01  7.59869910E+00  7.59869910E+00
 -1.51973982E+01  7.59869910E+00  7.59869910E+00 -1.51973982E+01  7.59869910E+00
  7.59869910E+00 -1.51973982E+01  7.59869910E+00  7.59869910E+00 -1.51973982E+01
  7.59869910E+00  7.59869910E+00 -1.51973982E+01  7.59869910E+00  7.59869910E+00
 -1.51973982E+01  7.59869910E+00  7.59869910E+00 -1.51973982E+01  7.59869910E+00
  7.59869910E+00 -1.51973982E+01  7.59869910E+00  7.59869910E+00 -1.51973982E+01
  7.59869910E+00  7.59869910E+00 -1.51973982E+01  7.59869910E+00  7.59869910E+00
 -1.51973982E+01  7.59869910E+00  7.59869910E+00 -1.51973982E+01  7.59869910E+00
  7.59869910E+00 -1.51973982E+01  7.59869910E+00  7.59869910E+00 -1.51973982E+01
  7.59869910E+00  7.59869910E+00 -1.51973982E+01  7.59869910E+00  7.59869910E+00
 -1.51973982E+01  7.59869910E+00  7.59869910E+00 -1.51973982E+01  7.59869910E+00
  7.59869910E+00 -1.51973982E+01  7.59869910E+00  7.59869910E+00 -1.51973982E+01
  7.59869910E+00  7.59869910E+00 -1.51973982E+01  7.59869910E+00  7.59869910E+00
 -1.51973982E+01  7.59869910E+00  7.59869910E+00 -1.51973982E+01  7.59869910E+00
  7.59869910E+00 -1.51973982E+01  7.59869910E+00  7.59869910E+00 -1.51973982E+01
  7.59869910E+00  7.59869910E+00 -1.51973982E+01  7.59869910E+00  7.59869910E+00
 -1.51973982E+01  7.59869910E+00  7.59869910E+00 -1.51973982E+01  7.59869910E+00
  7.59869910E+00 -1.51973982E+01  7.59869910E+00  7.59869910E+00 -1.51973982E+01
  7.59869910E+00  7.59869910E+00 -1.51973982E+01  7.59869910E+00  7.59869910E+00
 -1.51973982E+01  7.59869910E+00  7.59869910E+00 -1.51973982E+01  7.59869910E+00
  7.59869910E+00 -1.51973982E+01  7.59869910E+00  7.59869910E+00 -1.51973982E+01
  7.59869910E+00  7.59869910E+00 -1.51973982E+01  7.59869910E+00  7.59869910E+00
 -1.51973982E+01  7.59869910E+00  7.59869910E+00 -1.51973982E+01  7.59869910E+00
  7.59869910E+00 -1.51973982E+01  7.59869910E+00  7.59869910E+00 -1.51973982E+01
  7.59869910E+00  7.59869910E+00 -1.51973982E+01  7.59869910E+00  7.59869910E+00
 -1.51973982E+01  7.59869910E+00  7.59869910E+00 -1.51973982E+01  7.59869910E+00
  7.59869910E+00 -1.51973982E+01  7.59869910E+00  7.59869910E+00 -1.51973982E+01
  7.59869910E+00  7.59869910E+00 -1.51973982E+01  7.59869910E+00  7.59869910E+00
 -1.51973982E+01  7.59869910E+00  7.59869910E+00 -1.51973982E+01  7.59869910E+00
  7.59869910E+00 -1.51973982E+01  7.59869910E+00  7.59869910E+00 -1.51973982E+01
  7.59869910E+00  7.59869910E+00 -1.51973982E+01  7.59869910E+00  7.59869910E+00
 -1.51973982E+01  7.59869910E+00  7.59869910E+00 -1.51973982E+01  7.59869910E+00
  7.59869910E+00 -1.51973982E+01  7.59869910E+00  7.59869910E+00 -1.51973982E+01
  7.59869910E+00  7.59869910E+00 -1.51973982E+01  7.59869910E+00  7.59869910E+00
 -1.51973982E+01  7.59869910E+00  7.59869910E+00 -1.51973982E+01  7.59869910E+00
  7.59869910E+00 -1.51973982E+01  7.59869910E+00  7.59869910E+00 -1.51973982E+01
  7.59869910E+00  7.59869910E+00 -1.51973982E+01  7.59869910E+00  7.59869910E+00
 -1.51973982E+01  7.59869910E+00  7.59869910E+00 -1.51973982E+01  7.59869910E+00
  7.59869910E+00 -1.51973982E+01  7.59869910E+00  7.59869910E+00 -1.51973982E+01
  7.59869910E+00  7.59869910E+00 -1.51973982E+01  7.59869910E+00  7.59869910E+00
 -1.51973982E+01  7.59869910E+00  7.59869910E+00 -1.51973982E+01  7.59869910E+00
  7.59869910E+00 -1.51973982E+01  7.59869910E+00  7.59869910E+00 -1.51973982E+01
  7.59869910E+00  7.59869910E+00 -1.51973982E+01  7.59869910E+00  7.59869910E+00
 -1.51973982E+01  7.59869910E+00  7.59869910E+00 -1.51973982E+01  7.59869910E+00
  7.59869910E+00 -1.51973982E+01  7.59869910E+00  7.59869910E+00 -1.51973982E+01
  7.59869910E+00  7.59869910E+00 -1.51973982E+01  7.59869910E+00  7.59869910E+00
 -1.51973982E+01  7.59869910E+00  7.59869910E+00 -1.51973982E+01  7.59869910E+00
  7.59869910E+00 -1.51973982E+01  7.59869910E+00  7.59869910E+00 -1.51973982E+01
  7.59869910E+00  7.59869910E+00 -1.51973982E+01  7.59869910E+00  7.59869910E+00
 -1.51973982E+01  7.59869910E+00  7.59869910E+00 -1.51973982E+01  7.59869910E+00
  7.59869910E+00 -1.51973982E+01  7.59869910E+00  7.59869910E+00 -1.51973982E+01
  7.59869910E+00  7.59869910E+00 -1.51973982E+01  7.59869910E+00  7.59869910E+00
 -1.51973982E+01  7.59869910E+00  7.59869910E+00 -1.51973982E+01  7.59869910E+00
  7.59869910E+00 -1.51973982E+01  7.59869910E+00  7.59869910E+00 -1.51973982E+01
  7.59869910E+00  7.59869910E+00 -1.51973982E+01  7.59869910E+00  7.59869910E+00
 -1.51973982E+01  7.59869910E+00  7.59869910E+00 -1.51973982E+01  7.59869910E+00
  7.59869910E+00 -1.51973982E+01  7.59869910E+00  7.59869910E+00 -1.51973982E+01
  7.59869910E+00  7.59869910E+00 -1.51973982E+01  7.59869910E+00  7.59869910E+00
 -1.51973982E+01  7.59869910E+00  7.59869910E+00 -1.51973982E+01  7.59869910E+00
  7.59869910E+00 -1.51973982E+01  7.59869910E+00  7.59869910E+00 -1.51973982E+01
  7.59869910E+00  7.59869910E+00 -1.51973982E+01  7.59869910E+00  7.59869910E+00
 -1.51973982E+01  7.59869910E+00  7.59869910E+00 -1.51973982E+01  7.59869910E+00
  7.59869910E+00 -1.51973982E+01  7.59869910E+00  7.59869910E+00 -1.51973982E+01
  7.59869910E+00  7.59869910E+00 -1.51973982E+01  7.59869910E+00  7.59869910E+00
 -1.51973982E+01  7.59869910E+00  7.59869910E+00 -1.51973982E+01  7.59869910E+00
  7.59869910E+00 -1.51973982E+01  7.59869910E+00  7.59869910E+00 -1.51973982E+01
  7.59869910E+00  7.59869910E+00 -1.51973982E+01  7.59869910E+00  7.59869910E+00
 -1.51973982E+01  7.59869910E+00  7.59869910E+00 -1.51973982E+01  7.59869910E+00
  7.59869910E+00 -1.51973982E+01  7.59869910E+00  7.59869910E+00 -1.51973982E+01
  7.59869910E+00  7.59869910E+00 -1.51973982E+01  7.59869910E+00  7.59869910E+00
 -1.51973982E+01  7.59869910E+00  7.59869910E+00 -1.51973982E+01  7.59869910E+00
  7.59869910E+00 -1.51973982E+01  7.59869910E+00  7.59869910E+00 -1.51973982E+01
  7.59869910E+00  7.59869910E+00 -1.51973982E+01  7.59869910E+00  7.59869910E+00
 -1.51973982E+01  7.59869910E+00  7.59869910E+00 -1.51973982E+01  7.59869910E+00
  7.59869910E+00 -1.51973982E+01  7.59869910E+00  7.59869910E+00 -1.51973982E+01
  7.59869910E+00  7.59869910E+00 -1.51973982E+01  7.59869910E+00  7.59869910E+00
 -1.51973982E+01  7.59869910E+00  7.59869910E+00 -1.51973982E+01  7.59869910E+00
  7.59869910E+00 -1.51973982E+01  7.59869910E+00  7.59869910E+00 -1.51973982E+01
  7.59869910E+00  7.59869910E+00 -1.51973982E+01  7.59869910E+00  7.59869910E+00
 -1.51973982E+01  7.59869910E+00  7.59869910E+00 -1.51973982E+01  7.59869910E+00
  7.59869910E+00 -1.51973982E+01  7.59869910E+00  7.59869910E+00 -1.51973982E+01
  7.59869910E+00  7.59869910E+00 -1.51973982E+01  7.59869910E+00  7.59869910E+00
 -1.51973982E+01  7.59869910E+00  7.59869910E+00 -1.51973982E+01  7.59869910E+00
  7.59869910E+00 -1.51973982E+01  7.59869910E+00  7.59869910E+00 -1.51973982E+01
  7.59869910E+00  7.59869910E+00 -1.51973982E+01  7.59869910E+00  7.59869910E+00
 -1.51973982E+01  7.59869910E+00  7.59869910E+00 -1.51973982E+01  7.59869910E+00
  7.59869910E+00 -1.51973982E+01  7.59869910E+00  7.59869910E+00 -1.51973982E+01
  7.59869910E+00  7.59869910E+00 -1.51973982E+01  7.59869910E+00  7.59869910E+00
 -1.51973982E+01  7.59869910E+00  7.59869910E+00 -1.51973982E+01  7.59869910E+00
  7.59869910E+00 -1.51973982E+01  7.59869910E+00  7.59869910E+00 -1.51973982E+01
  7.59869910E+00  7.59869910E+00 -1.51973982E+01  7.59869910E+00  7.59869910E+00
 -1.51973982E+01  7.59869910E+00  7.59869910E+00 -1.51973982E+01  7.59869910E+00
  7.59869910E+00 -1.51973982E+01  7.59869910E+00  7.59869910E+00 -1.51973982E+01
  7.59869910E+00  7.59869910E+00 -1.51973982E+01  7.59869910E+00  7.59869910E+00
 -1.51973982E+01  7.59869910E+00  7.59869910E+00 -1.51973982E+01  7.59869910E+00
  7.59869910E+00 -1.51973982E+01  7.59869910E+00  7.59869910E+00 -1.51973982E+01
  7.59869910E+00  7.59869910E+00 -1.51973982E+01  7.59869910E+00  7.59869910E+00
 -1.51973982E+01  7.59869910E+00  7.59869910E+00 -1.51973982E+01  7.59869910E+00
  7.59869910E+00 -1.51973982E+01  7.59869910E+00  7.59869910E+00 -1.51973982E+01
  7.59869910E+00  7.59869910E+00 -1.51973982E+01  7.59869910E+00  7.59869910E+00
 -1.51973982E+01  7.59869910E+00  7.59869910E+00 -1.51973982E+01  7.59869910E+00
  7.59869910E+00 -1.51973982E+01  7.59869910E+00  7.59869910E+00 -1.51973982E+01
  7.59869910E+00  7.59869910E+00 -1.51973982E+01  7.59869910E+00  7.59869910E+00
 -1.51973982E+01  7.59869910E+00  7.59869910E+00 -1.51973982E+01  7.59869910E+00
  7.59869910E+00 -1.51973982E+01  7.59869910E+00  7.59869910E+00 -1.51973982E+01
  7.59869910E+00  7.59869910E+00 -1.51973982E+01  7.59869910E+00  7.59869910E+00
 -1.51973982E+01  7.59869910E+00  7.59869910E+00 -1.51973982E+01  7.59869910E+00
  7.59869910E+00 -1.51973982E+01  7.59869910E+00  7.59869910E+00 -1.51973982E+01
  7.59869910E+00  7.59869910E+00 -1.51973982E+01  7.59869910E+00  7.59869910E+00
 -1.51973982E+01  7.59869910E+00  7.59869910E+00 -1.51973982E+01  7.59869910E+00
  7.59869910E+00 -1.51973982E+01  7.59869910E+00  7.59869910E+00 -1.51973982E+01
  7.59869910E+00  7.59869910E+00 -1.51973982E+01  7.59869910E+00  7.59869910E+00
 -1.51973982E+01  7.59869910E+00  7.59869910E+00 -1.51973982E+01  7.59869910E+00
  7.59869910E+00 -1.51973982E+01  7.59869910E+00  7.59869910E+00 -1.51973982E+01
  7.59869910E+00  7.59869910E+00 -1.51973982E+01  7.59869910E+00  7.59869910E+00
 -1.51973982E+01  7.59869910E+00  7.59869910E+00 -1.51973982E+01  7.59869910E+00
  7.59869910E+00 -1.51973982E+01  7.59869910E+00  7.59869910E+00 -1.51973982E+01
  7.59869910E+00  7.59869910E+00 -1.51973982E+01  7.59869910E+00  7.59869910E+00
 -1.51973982E+01  7.59869910E+00  7.59869910E+00 -1.51973982E+01  7.59869910E+00
  7.59869910E+00 -1.51973982E+01  7.59869910E+00  7.59869910E+00 -1.51973982E+01
  7.59869910E+00  7.59869910E+00 -1.51973982E+01  7.59869910E+00  7.59869910E+00
 -1.51973982E+01  7.59869910E+00  7.59869910E+00 -1.51973982E+01  7.59869910E+00
  7.59869910E+00 -1.51973982E+01  7.59869910E+00  7.59869910E+00 -1.51973982E+01
  7.59869910E+00  7.59869910E+00 -1.51973982E+01  7.59869910E+00  7.59869910E+00
 -1.51973982E+01  7.59869910E+00  7.59869910E+00 -1.51973982E+01  7.59869910E+00
  7.59869910E+00 -1.51973982E+01  7.59869910E+00  7.59869910E+00 -1.51973982E+01
  7.59869910E+00  7.59869910E+00 -1.51973982E+01  7.59869910E+00  7.59869910E+00
 -1.51973982E+01  7.59869910E+00  7.59869910E+00 -1.51973982E+01  7.59869910E+00
  7.59869910E+00 -1.51973982E+01  7.59869910E+00  7.59869910E+00 -1.51973982E+01
  7.59869910E+00  7.59869910E+00 -1.51973982E+01  7.59869910E+00  7.59869910E+00
 -1.51973982E+01  7.59869910E+00  7.59869910E+00 -1.51973982E+01  7.59869910E+00
  7.59869910E+00 -1.51973982E+01  7.59869910E+00  7.59869910E+00 -1.51973982E+01
  7.59869910E+00  7.59869910E+00 -1.51973982E+01  7.59869910E+00  7.59869910E+00
 -1.51973982E+01  7.59869910E+00  7.59869910E+00 -1.51973982E+01  7.59869910E+00
  7.59869910E+00 -1.51973982E+01  7.59869910E+00  7.59869910E+00 -1.51973982E+01
  7.59869910E+00  7.59869910E+00 -1.51973982E+01  7.59869910E+00  7.59869910E+00
 -1.51973982E+01  7.59869910E+00  7.59869910E+00 -1.51973982E+01  7.59869910E+00
  7.59869910E+00 -1.51973982E+01  7.59869910E+00  7.59869910E+00 -1.51973982E+01
  7.59869910E+00  7.59869910E+00 -1.51973982E+01  7.59869910E+00  7.59869910E+00
 -1.51973982E+01  7.59869910E+00  7.59869910E+00 -1.51973982E+01  7.59869910E+00
  7.59869910E+00 -1.51973982E+01  7.59869910E+00  7.59869910E+00 -1.51973982E+01
  7.59869910E+00  7.59869910E+00 -1.51973982E+01  7.59869910E+00  7.59869910E+00
 -1.51973982E+01  7.59869910E+00  7.59869910E+00 -1.51973982E+01  7.59869910E+00
  7.59869910E+00 -1.51973982E+01  7.59869910E+00  7.59869910E+00 -1.51973982E+01
  7.59869910E+00  7.59869910E+00 -1.51973982E+01  7.59869910E+00  7.59869910E+00
 -1.51973982E+01  7.59869910E+00  7.59869910E+00 -1.51973982E+01  7.59869910E+00
  7.59869910E+00 -1.51973982E+01  7.59869910E+00  7.59869910E+00 -1.51973982E+01
  7.59869910E+00  7.59869910E+00 -1.51973982E+01  7.59869910E+00  7.59869910E+00
 -1.51973982E+01  7.59869910E+00  7.59869910E+00 -1.51973982E+01  7.59869910E+00
  7.59869910E+00 -1.51973982E+01  7.59869910E+00  7.59869910E+00 -1.51973982E+01
  7.59869910E+00  7.59869910E+00 -1.51973982E+01  7.59869910E+00  7.59869910E+00
 -1.51973982E+01  7.59869910E+00  7.59869910E+00 -1.51973982E+01  7.59869910E+00
  7.59869910E+00 -1.51973982E+01  7.59869910E+00  7.59869910E+00 -1.51973982E+01
  7.59869910E+00  7.59869910E+00 -1.51973982E+01  7.59869910E+00  7.59869910E+00
 -1.51973982E+01  7.59869910E+00  7.59869910E+00 -1.51973982E+01  7.59869910E+00
  7.59869910E+00 -1.51973982E+01  7.59869910E+00  7.59869910E+00 -1.51973982E+01
  7.59869910E+00  7.59869910E+00 -1.51973982E+01  7.59869910E+00  7.59869910E+00
 -1.51973982E+01  7.59869910E+00  7.59869910E+00 -1.51973982E+01  7.59869910E+00
  7.59869910E+00 -1.51973982E+01  7.59869910E+00  7.59869910E+00 -1.51973982E+01
  7.59869910E+00  7.59869910E+00 -1.51973982E+01  7.59869910E+00  7.59869910E+00
 -1.51973982E+01  7.59869910E+00  7.59869910E+00 -1.51973982E+01  7.59869910E+00
  7.59869910E+00 -1.51973982E+01  7.59869910E+00  7.59869910E+00 -1.51973982E+01
  7.59869910E+00  7.59869910E+00 -1.51973982E+01  7.59869910E+00  7.59869910E+00
 -1.51973982E+01  7.59869910E+00  7.59869910E+00 -1.51973982E+01  7.59869910E+00
  7.59869910E+00 -1.51973982E+01  7.59869910E+00  7.59869910E+00 -1.51973982E+01
  7.59869910E+00  7.59869910E+00 -1.51973982E+01  7.59869910E+00  7.59869910E+00
 -1.51973982E+01  7.59869910E+00  7.59869910E+00 -1.51973982E+01  7.59869910E+00
  7.59869910E+00 -1.51973982E+01  7.59869910E+00  7.59869910E+00 -1.51973982E+01
  7.59869910E+00  7.59869910E+00 -1.51973982E+01  7.59869910E+00  7.59869910E+00
 -1.51973982E+01  7.59869910E+00  7.59869910E+00 -1.51973982E+01  7.59869910E+00
  7.59869910E+00 -1.51973982E+01  7.59869910E+00  7.59869910E+00 -1.51973982E+01
  7.59869910E+00  7.59869910E+00 -1.51973982E+01  7.59869910E+00  7.59869910E+00
 -1.51973982E+01  7.59869910E+00  7.59869910E+00 -1.51973982E+01  7.59869910E+00
  7.59869910E+00 -1.51973982E+01  7.59869910E+00  7.59869910E+00 -1.51973982E+01
  7.59869910E+00  7.59869910E+00 -1.51973982E+01  7.59869910E+00  7.59869910E+00
 -1.51973982E+01  7.59869910E+00  7.59869910E+00 -1.51973982E+01  7.59869910E+00
  7.59869910E+00 -1.51973982E+01  7.59869910E+00  7.59869910E+00 -1.51973982E+01
  7.59869910E+00  7.59869910E+00 -1.51973982E+01  7.59869910E+00  7.59869910E+00
 -1.51973982E+01  7.59869910E+00  7.59869910E+00 -1.51973982E+01  7.59869910E+00
  7.59869910E+00 -1.51973982E+01  7.59869910E+00  7.59869910E+00 -1.51973982E+01
  7.59869910E+00  7.59869910E+00 -1.51973982E+01  7.59869910E+00  7.59869910E+00
 -1.51973982E+01  7.59869910E+00  7.59869910E+00 -1.51973982E+01  7.59869910E+00
  7.59869910E+00 -1.51973982E+01  7.59869910E+00  7.59869910E+00 -1.51973982E+01
  7.59869910E+00  7.59869910E+00 -1.51973982E+01  7.59869910E+00  7.59869910E+00
 -1.51973982E+01  7.59869910E+00  7.59869910E+00 -1.51973982E+01  7.59869910E+00
  7.59869910E+00 -1.51973982E+01  7.59869910E+00  7.59869910E+00 -1.51973982E+01
  7.59869910E+00  7.59869910E+00 -1.51973982E+01  7.59869910E+00  7.59869910E+00
 -1.51973982E+01  7.59869910E+00  7.59869910E+00 -1.51973982E+01  7.59869910E+00
  7.59869910E+00 -1.51973982E+01  7.59869910E+00  7.59869910E+00 -1.51973982E+01
  7.59869910E+00  7.59869910E+00 -1.51973982E+01  7.59869910E+00  7.59869910E+00
 -1.51973982E+01  7.59869910E+00  7.59869910E+00 -1.51973982E+01  7.59869910E+00
  7.59869910E+00 -1.51973982E+01  7.59869910E+00  7.59869910E+00 -1.51973982E+01
  7.59869910E+00  7.59869910E+00 -1.51973982E+01  7.59869910E+00  7.59869910E+00
 -1.51973982E+01  7.59869910E+00  7.59869910E+00 -1.51973982E+01  7.59869910E+00
  7.59869910E+00 -1.51973982E+01  7.59869910E+00  7.59869910E+00 -1.51973982E+01
  7.59869910E+00  7.59869910E+00 -1.51973982E+01  7.59869910E+00  7.59869910E+00
 -1.51973982E+01  7.59869910E+00  7.59869910E+00 -1.51973982E+01  7.59869910E+00
  7.59869910E+00 -1.51973982E+01  7.59869910E+00  7.59869910E+00 -1.51973982E+01
  7.59869910E+00  7.59869910E+00 -1.51973982E+01  7.59869910E+00  7.59869910E+00
 -1.51973982E+01  7.59869910E+00  7.59869910E+00 -1.51973982E+01  7.59869910E+00
  7.59869910E+00 -1.51973982E+01  7.59869910E+00  7.59869910E+00 -1.51973982E+01
  7.59869910E+00  7.59869910E+00 -1.51973982E+01  7.59869910E+00  7.59869910E+00
 -1.51973982E+01  7.59869910E+00  7.59869910E+00 -1.51973982E+01  7.59869910E+00
  7.59869910E+00 -1.51973982E+01  7.59869910E+00  7.59869910E+00 -1.51973982E+01
  7.59869910E+00  7.59869910E+00 -1.51973982E+01  7.59869910E+00  7.59869910E+00
 -1.51973982E+01  7.59869910E+00  7.59869910E+00 -1.51973982E+01  7.59869910E+00
  7.59869910E+00 -1.51973982E+01  7.59869910E+00  7.59869910E+00 -1.51973982E+01
  7.59869910E+00  7.59869910E+00 -1.51973982E+01  7.59869910E+00  7.59869910E+00
 -1.51973982E+01  7.59869910E+00  7.59869910E+00 -1.51973982E+01  7.59869910E+00
  7.59869910E+00 -1.51973982E+01  7.59869910E+00  7.59869910E+00 -1.51973982E+01
  7.59869910E+00  7.59869910E+00 -1.51973982E+01  7.59869910E+00  7.59869910E+00
 -1.51973982E+01  7.59869910E+00  7.59869910E+00 -1.51973982E+01  7.59869910E+00
  7.59869910E+00 -1.51973982E+01  7.59869910E+00  7.59869910E+00 -1.51973982E+01
  7.59869910E+00  7.59869910E+00 -1.51973982E+01  7.59869910E+00  7.59869910E+00
 -1.51973982E+01  7.59869910E+00  7.59869910E+00 -1.51973982E+01  7.59869910E+00
  7.59869910E+00 -1.51973982E+01  7.59869910E+00  7.59869910E+00 -1.51973982E+01
  7.59869910E+00  7.59869910E+00 -1.51973982E+01  7.59869910E+00  7.59869910E+00
 -1.51973982E+01  7.59869910E+00  7.59869910E+00 -1.51973982E+01  7.59869910E+00
  7.59869910E+00 -1.51973982E+01  7.59869910E+00  7.59869910E+00 -1.51973982E+01
  7.59869910E+00  7.59869910E+00 -1.51973982E+01  7.59869910E+00  7.59869910E+00
 -1.51973982E+01  7.59869910E+00  7.59869910E+00 -1.51973982E+01  7.59869910E+00
  7.59869910E+00 -1.51973982E+01  7.59869910E+00  7.59869910E+00 -1.51973982E+01
  7.59869910E+00  7.59869910E+00 -1.51973982E+01  7.59869910E+00  7.59869910E+00
 -1.51973982E+01  7.59869910E+00  7.59869910E+00 -1.51973982E+01  7.59869910E+00
  7.59869910E+00 -1.51973982E+01  7.59869910E+00  7.59869910E+00 -1.51973982E+01
  7.59869910E+00  7.59869910E+00 -1.51973982E+01  7.59869910E+00  7.59869910E+00
 -1.51973982E+01  7.59869910E+00  7.59869910E+00 -1.51973982E+01  7.59869910E+00
  7.59869910E+00 -1.51973982E+01  7.59869910E+00  7.59869910E+00 -1.51973982E+01
  7.59869910E+00  7.59869910E+00 -1.51973982E+01  7.59869910E+00  7.59869910E+00
 -1.51973982E+01  7.59869910E+00  7.59869910E+00 -1.51973982E+01  7.59869910E+00
  7.59869910E+00 -1.51973982E+01  7.59869910E+00  7.59869910E+00 -1.51973982E+01
  7.59869910E+00  7.59869910E+00 -1.51973982E+01  7.59869910E+00  7.59869910E+00
 -1.51973982E+01  7.59869910E+00  7.59869910E+00 -1.51973982E+01  7.59869910E+00
  7.59869910E+00 -1.51973982E+01  7.59869910E+00  7.59869910E+00 -1.51973982E+01
  7.59869910E+00  7.59869910E+00 -1.51973982E+01  7.59869910E+00  7.59869910E+00
 -1.51973982E+01  7.59869910E+00  7.59869910E+00 -1.51973982E+01  7.59869910E+00
  7.59869910E+00 -1.51973982E+01  7.59869910E+00  7.59869910E+00 -1.51973982E+01
  7.59869910E+00  7.59869910E+00 -1.51973982E+01  7.59869910E+00  7.59869910E+00
 -1.51973982E+01  7.59869910E+00  7.59869910E+00 -1.51973982E+01  7.59869910E+00
  7.59869910E+00 -1.51973982E+01  7.59869910E+00  7.59869910E+00 -1.51973982E+01
  7.59869910E+00  7.59869910E+00 -1.51973982E+01  7.59869910E+00  7.59869910E+00
 -1.51973982E+01  7.59869910E+00  7.59869910E+00 -1.51973982E+01  7.59869910E+00
  7.59869910E+00 -1.51973982E+01  7.59869910E+00  7.59869910E+00 -1.51973982E+01
  7.59869910E+00  7.59869910E+00 -1.51973982E+01  7.59869910E+00  7.59869910E+00
 -1.51973982E+01  7.59869910E+00  7.59869910E+00 -1.51973982E+01  7.59869910E+00
  7.59869910E+00 -1.51973982E+01  7.59869910E+00  7.59869910E+00 -1.51973982E+01
  7.59869910E+00  7.59869910E+00 -1.51973982E+01  7.59869910E+00  7.59869910E+00
 -1.51973982E+01  7.59869910E+00  7.59869910E+00 -1.51973982E+01  7.59869910E+00
  7.59869910E+00 -1.51973982E+01  7.59869910E+00  7.59869910E+00 -1.51973982E+01
  7.59869910E+00  7.59869910E+00 -1.51973982E+01  7.59869910E+00  7.59869910E+00
 -1.51973982E+01  7.59869910E+00  7.59869910E+00 -1.51973982E+01  7.59869910E+00
  7.59869910E+00 -1.51973982E+01  7.59869910E+00  7.59869910E+00 -1.51973982E+01
  7.59869910E+00  7.59869910E+00 -1.51973982E+01  7.59869910E+00  7.59869910E+00
 -1.51973982E+01  7.59869910E+00  7.59869910E+00 -1.51973982E+01  7.59869910E+00
  7.59869910E+00 -1.51973982E+01  7.59869910E+00  7.59869910E+00 -1.51973982E+01
  7.59869910E+00  7.59869910E+00 -1.51973982E+01  7.59869910E+00  7.59869910E+00
 -1.51973982E+01  7.59869910E+00  7.59869910E+00 -1.51973982E+01  7.59869910E+00
  7.59869910E+00 -1.51973982E+01  7.59869910E+00  7.59869910E+00 -1.51973982E+01
  7.59869910E+00  7.59869910E+00 -1.51973982E+01  7.59869910E+00  7.59869910E+00
 -1.51973982E+01  7.59869910E+00  7.59869910E+00 -1.51973982E+01  7.59869910E+00
  7.59869910E+00 -1.51973982E+01  7.59869910E+00  7.59869910E+00 -1.51973982E+01
  7.59869910E+00  7.59869910E+00 -1.51973982E+01  7.59869910E+00  7.59869910E+00
 -1.51973982E+01  7.59869910E+00  7.59869910E+00 -1.51973982E+01  7.59869910E+00
  7.59869910E+00 -1.51973982E+01  7.59869910E+00  7.59869910E+00 -1.51973982E+01
  7.59869910E+00  7.59869910E+00 -1.51973982E+01  7.59869910E+00  7.59869910E+00
 -1.51973982E+01  7.59869910E+00  7.59869910E+00 -1.51973982E+01  7.59869910E+00
  7.59869910E+00 -1.51973982E+01  7.59869910E+00  7.59869910E+00 -1.51973982E+01
  7.59869910E+00  7.59869910E+00 -1.51973982E+01  7.59869910E+00  7.59869910E+00
 -1.51973982E+01  7.59869910E+00  7.59869910E+00 -1.51973982E+01  7.59869910E+00
  7.59869910E+00 -1.51973982E+01  7.59869910E+00  7.59869910E+00 -1.51973982E+01
  7.59869910E+00  7.59869910E+00 -1.51973982E+01  7.59869910E+00  7.59869910E+00
 -1.51973982E+01  7.59869910E+00  7.59869910E+00 -1.51973982E+01  7.59869910E+00
  7.59869910E+00 -1.51973982E+01  7.59869910E+00  7.59869910E+00 -1.51973982E+01
  7.59869910E+00  7.59869910E+00 -1.51973982E+01  7.59869910E+00  7.59869910E+00
 -1.51973982E+01  7.59869910E+00  7.59869910E+00 -1.51973982E+01  7.59869910E+00
  7.59869910E+00 -1.51973982E+01  7.59869910E+00  7.59869910E+00 -1.51973982E+01
  7.59869910E+00  7.59869910E+00 -1.51973982E+01  7.59869910E+00  7.59869910E+00
 -1.51973982E+01  7.59869910E+00  7.59869910E+00 -1.51973982E+01  7.59869910E+00
  7.59869910E+00 -1.51973982E+01  7.59869910E+00  7.59869910E+00 -1.51973982E+01
  7.59869910E+00  7.59869910E+00 -1.51973982E+01  7.59869910E+00  7.59869910E+00
 -1.51973982E+01  7.59869910E+00  7.59869910E+00 -1.51973982E+01  7.59869910E+00
  7.59869910E+00 -1.51973982E+01  7.59869910E+00  7.59869910E+00 -1.51973982E+01
  7.59869910E+00  7.59869910E+00 -1.51973982E+01  7.59869910E+00  7.59869910E+00
 -1.51973982E+01  7.59869910E+00  7.59869910E+00 -1.51973982E+01  7.59869910E+00
  7.59869910E+00 -1.51973982E+01  7.59869910E+00  7.59869910E+00 -1.51973982E+01
  7.59869910E+00  7.59869910E+00 -1.51973982E+01  7.59869910E+00  7.59869910E+00
 -1.51973982E+01  7.59869910E+00  7.59869910E+00 -1.51973982E+01  7.59869910E+00
  7.59869910E+00 -1.51973982E+01  7.59869910E+00  7.59869910E+00 -1.51973982E+01
  7.59869910E+00  7.59869910E+00 -1.51973982E+01  7.59869910E+00  7.59869910E+00
 -1.51973982E+01  7.59869910E+00  7.59869910E+00 -1.51973982E+01  7.59869910E+00
  7.59869910E+00 -1.51973982E+01  7.59869910E+00  7.59869910E+00 -1.51973982E+01
  7.59869910E+00  7.59869910E+00 -1.51973982E+01  7.59869910E+00  7.59869910E+00
 -1.51973982E+01  7.59869910E+00  7.59869910E+00 -1.51973982E+01  7.59869910E+00
  7.59869910E+00 -1.51973982E+01  7.59869910E+00  7.59869910E+00 -1.51973982E+01
  7.59869910E+00  7.59869910E+00 -1.51973982E+01  7.59869910E+00  7.59869910E+00
 -1.51973982E+01  7.59869910E+00  7.59869910E+00 -1.51973982E+01  7.59869910E+00
  7.59869910E+00 -1.51973982E+01  7.59869910E+00  7.59869910E+00 -1.51973982E+01
  7.59869910E+00  7.59869910E+00 -1.51973982E+01  7.59869910E+00  7.59869910E+00
 -1.51973982E+01  7.59869910E+00  7.59869910E+00 -1.51973982E+01  7.59869910E+00
  7.59869910E+00 -1.51973982E+01  7.59869910E+00  7.59869910E+00 -1.51973982E+01
  7.59869910E+00  7.59869910E+00 -1.51973982E+01  7.59869910E+00  7.59869910E+00
 -1.51973982E+01  7.59869910E+00  7.59869910E+00 -1.51973982E+01  7.59869910E+00
  7.59869910E+00 -1.51973982E+01  7.59869910E+00  7.59869910E+00 -1.51973982E+01
  7.59869910E+00  7.59869910E+00 -1.51973982E+01  7.59869910E+00  7.59869910E+00
 -1.51973982E+01  7.59869910E+00  7.59869910E+00 -1.51973982E+01  7.59869910E+00
  7.59869910E+00 -1.51973982E+01  7.59869910E+00  7.59869910E+00 -1.51973982E+01
  7.59869910E+00  7.59869910E+00 -1.51973982E+01  7.59869910E+00  7.59869910E+00
 -1.51973982E+01  7.59869910E+00  7.59869910E+00 -1.51973982E+01  7.59869910E+00
  7.59869910E+00 -1.51973982E+01  7.59869910E+00  7.59869910E+00 -1.51973982E+01
  7.59869910E+00  7.59869910E+00 -1.51973982E+01  7.59869910E+00  7.59869910E+00
 -1.51973982E+01  7.59869910E+00  7.59869910E+00 -1.51973982E+01  7.59869910E+00
  7.59869910E+00 -1.51973982E+01  7.59869910E+00  7.59869910E+00 -1.51973982E+01
  7.59869910E+00  7.59869910E+00 -1.51973982E+01  7.59869910E+00  7.59869910E+00
 -1.51973982E+01  7.59869910E+00  7.59869910E+00 -1.51973982E+01  7.59869910E+00
  7.59869910E+00 -1.51973982E+01  7.59869910E+00  7.59869910E+00 -1.51973982E+01
  7.59869910E+00  7.59869910E+00 -1.51973982E+01  7.59869910E+00  7.59869910E+00
 -1.51973982E+01  7.59869910E+00  7.59869910E+00 -1.51973982E+01  7.59869910E+00
  7.59869910E+00 -1.51973982E+01  7.59869910E+00  7.59869910E+00 -1.51973982E+01
  7.59869910E+00  7.59869910E+00 -1.51973982E+01  7.59869910E+00  7.59869910E+00
 -1.51973982E+01  7.59869910E+00  7.59869910E+00 -1.51973982E+01  7.59869910E+00
  7.59869910E+00 -1.51973982E+01  7.59869910E+00  7.59869910E+00 -1.51973982E+01
  7.59869910E+00  7.59869910E+00 -1.51973982E+01  7.59869910E+00  7.59869910E+00
 -1.51973982E+01  7.59869910E+00  7.59869910E+00 -1.51973982E+01  7.59869910E+00
  7.59869910E+00 -1.51973982E+01  7.59869910E+00  7.59869910E+00 -1.51973982E+01
  7.59869910E+00  7.59869910E+00 -1.51973982E+01  7.59869910E+00  7.59869910E+00
 -1.51973982E+01  7.59869910E+00  7.59869910E+00 -1.51973982E+01  7.59869910E+00
  7.59869910E+00 -1.51973982E+01  7.59869910E+00  7.59869910E+00 -1.51973982E+01
  7.59869910E+00  7.59869910E+00 -1.51973982E+01  7.59869910E+00  7.59869910E+00
 -1.51973982E+01  7.59869910E+00  7.59869910E+00 -1.51973982E+01  7.59869910E+00
  7.59869910E+00 -1.51973982E+01  7.59869910E+00  7.59869910E+00 -1.51973982E+01
  7.59869910E+00  7.59869910E+00 -1.51973982E+01  7.59869910E+00  7.59869910E+00
 -1.51973982E+01  7.59869910E+00  7.59869910E+00 -1.51973982E+01  7.59869910E+00
  7.59869910E+00 -1.51973982E+01  7.59869910E+00  7.59869910E+00 -1.51973982E+01
  7.59869910E+00  7.59869910E+00 -1.51973982E+01  7.59869910E+00  7.59869910E+00
 -1.51973982E+01  7.59869910E+00  7.59869910E+00 -1.51973982E+01  7.59869910E+00
  7.59869910E+00 -1.51973982E+01  7.59869910E+00  7.59869910E+00 -1.51973982E+01
  7.59869910E+00  7.59869910E+00 -1.51973982E+01  7.59869910E+00  7.59869910E+00
 -1.51973982E+01  7.59869910E+00  7.59869910E+00 -1.51973982E+01  7.59869910E+00
  7.59869910E+00 -1.51973982E+01  7.59869910E+00  7.59869910E+00 -1.51973982E+01
  7.59869910E+00  7.59869910E+00 -1.51973982E+01  7.59869910E+00  7.59869910E+00
 -1.51973982E+01  7.59869910E+00  7.59869910E+00 -1.51973982E+01  7.59869910E+00
  7.59869910E+00 -1.51973982E+01  7.59869910E+00  7.59869910E+00 -1.51973982E+01
  7.59869910E+00  7.59869910E+00 -1.51973982E+01  7.59869910E+00  7.59869910E+00
 -1.51973982E+01  7.59869910E+00  7.59869910E+00 -1.51973982E+01  7.59869910E+00
  7.59869910E+00 -1.51973982E+01  7.59869910E+00  7.59869910E+00 -1.51973982E+01
  7.59869910E+00  7.59869910E+00 -1.51973982E+01  7.59869910E+00  7.59869910E+00
 -1.51973982E+01  7.59869910E+00  7.59869910E+00 -1.51973982E+01  7.59869910E+00
  7.59869910E+00 -1.51973982E+01  7.59869910E+00  7.59869910E+00 -1.51973982E+01
  7.59869910E+00  7.59869910E+00 -1.51973982E+01  7.59869910E+00  7.59869910E+00
 -1.51973982E+01  7.59869910E+00  7.59869910E+00 -1.51973982E+01  7.59869910E+00
  7.59869910E+00 -1.51973982E+01  7.59869910E+00  7.59869910E+00 -1.51973982E+01
  7.59869910E+00  7.59869910E+00 -1.51973982E+01  7.59869910E+00  7.59869910E+00
 -1.51973982E+01  7.59869910E+00  7.59869910E+00 -1.51973982E+01  7.59869910E+00
  7.59869910E+00 -1.51973982E+01  7.59869910E+00  7.59869910E+00 -1.51973982E+01
  7.59869910E+00  7.59869910E+00 -1.51973982E+01  7.59869910E+00  7.59869910E+00
 -1.51973982E+01  7.59869910E+00  7.59869910E+00 -1.51973982E+01  7.59869910E+00
  7.59869910E+00 -1.51973982E+01  7.59869910E+00  7.59869910E+00 -1.51973982E+01
  7.59869910E+00  7.59869910E+00 -1.51973982E+01  7.59869910E+00  7.59869910E+00
 -1.51973982E+01  7.59869910E+00  7.59869910E+00 -1.51973982E+01  7.59869910E+00
  7.59869910E+00 -1.51973982E+01  7.59869910E+00  7.59869910E+00 -1.51973982E+01
  7.59869910E+00  7.59869910E+00 -1.51973982E+01  7.59869910E+00  7.59869910E+00
 -1.51973982E+01  7.59869910E+00  7.59869910E+00 -1.51973982E+01  7.59869910E+00
  7.59869910E+00 -1.51973982E+01  7.59869910E+00  7.59869910E+00 -1.51973982E+01
  7.59869910E+00  7.59869910E+00 -1.51973982E+01  7.59869910E+00  7.59869910E+00
 -1.51973982E+01  7.59869910E+00  7.59869910E+00 -1.51973982E+01  7.59869910E+00
  7.59869910E+00 -1.51973982E+01  7.59869910E+00  7.59869910E+00 -1.51973982E+01
  7.59869910E+00  7.59869910E+00 -1.51973982E+01  7.59869910E+00  7.59869910E+00
 -1.51973982E+01  7.59869910E+00  7.59869910E+00 -1.51973982E+01  7.59869910E+00
  7.59869910E+00 -1.51973982E+01  7.59869910E+00  7.59869910E+00 -1.51973982E+01
  7.59869910E+00  7.59869910E+00 -1.51973982E+01  7.59869910E+00  7.59869910E+00
 -1.51973982E+01  7.59869910E+00  7.59869910E+00 -1.51973982E+01  7.59869910E+00
  7.59869910E+00 -1.51973982E+01  7.59869910E+00  7.59869910E+00 -1.51973982E+01
  7.59869910E+00  7.59869910E+00 -1.51973982E+01  7.59869910E+00  7.59869910E+00
 -1.51973982E+01  7.59869910E+00  7.59869910E+00 -1.51973982E+01  7.59869910E+00
  7.59869910E+00 -1.51973982E+01  7.59869910E+00  7.59869910E+00 -1.51973982E+01
  7.59869910E+00  7.59869910E+00 -1.51973982E+01  7.59869910E+00  7.59869910E+00
 -1.51973982E+01  7.59869910E+00  7.59869910E+00 -1.51973982E+01  7.59869910E+00
  7.59869910E+00 -1.51973982E+01  7.59869910E+00  7.59869910E+00 -1.51973982E+01
  7.59869910E+00  7.59869910E+00 -1.51973982E+01  7.59869910E+00  7.59869910E+00
 -1.51973982E+01  7.59869910E+00  7.59869910E+00 -1.51973982E+01  7.59869910E+00
  7.59869910E+00 -1.51973982E+01  7.59869910E+00  7.59869910E+00 -1.51973982E+01
  7.59869910E+00  7.59869910E+00 -1.51973982E+01  7.59869910E+00  7.59869910E+00
 -1.51973982E+01  7.59869910E+00  7.59869910E+00 -1.51973982E+01  7.59869910E+00
  7.59869910E+00 -1.51973982E+01  7.59869910E+00  7.59869910E+00 -1.51973982E+01
  7.59869910E+00  7.59869910E+00 -1.51973982E+01  7.59869910E+00  7.59869910E+00
 -1.51973982E+01  7.59869910E+00  7.59869910E+00 -1.51973982E+01  7.59869910E+00
  7.59869910E+00 -1.51973982E+01  7.59869910E+00  7.59869910E+00 -1.51973982E+01
  7.59869910E+00  7.59869910E+00 -1.51973982E+01  7.59869910E+00  7.59869910E+00
 -1.51973982E+01  7.59869910E+00  7.59869910E+00 -1.51973982E+01  7.59869910E+00
  7.59869910E+00 -1.51973982E+01  7.59869910E+00  7.59869910E+00 -1.51973982E+01
  7.59869910E+00  7.59869910E+00 -1.51973982E+01  7.59869910E+00  7.59869910E+00
 -1.51973982E+01  7.59869910E+00  7.59869910E+00 -1.51973982E+01  7.59869910E+00
  7.59869910E+00 -1.51973982E+01  7.59869910E+00  7.59869910E+00 -1.51973982E+01
  7.59869910E+00  7.59869910E+00 -1.51973982E+01  7.59869910E+00  7.59869910E+00
 -1.51973982E+01  7.59869910E+00  7.59869910E+00 -1.51973982E+01  7.59869910E+00
  7.59869910E+00 -1.51973982E+01  7.59869910E+00  7.59869910E+00 -1.51973982E+01
  7.59869910E+00  7.59869910E+00 -1.51973982E+01  7.59869910E+00  7.59869910E+00
 -1.51973982E+01  7.59869910E+00  7.59869910E+00 -1.51973982E+01  7.59869910E+00
  7.59869910E+00 -1.51973982E+01  7.59869910E+00  7.59869910E+00 -1.51973982E+01
  7.59869910E+00  7.59869910E+00 -1.51973982E+01  7.59869910E+00  7.59869910E+00
 -1.51973982E+01  7.59869910E+00  7.59869910E+00 -1.51973982E+01  7.59869910E+00
  7.59869910E+00 -1.51973982E+01  7.59869910E+00  7.59869910E+00 -1.51973982E+01
  7.59869910E+00  7.59869910E+00 -1.51973982E+01  7.59869910E+00  7.59869910E+00
 -1.51973982E+01  7.59869910E+00  7.59869910E+00 -1.51973982E+01  7.59869910E+00
  7.59869910E+00 -1.51973982E+01  7.59869910E+00  7.59869910E+00 -1.51973982E+01
  7.59869910E+00  7.59869910E+00 -1.51973982E+01  7.59869910E+00  7.59869910E+00
 -1.51973982E+01  7.59869910E+00  7.59869910E+00 -1.51973982E+01  7.59869910E+00
  7.59869910E+00 -1.51973982E+01  7.59869910E+00  7.59869910E+00 -1.51973982E+01
  7.59869910E+00  7.59869910E+00 -1.51973982E+01  7.59869910E+00  7.59869910E+00
 -1.51973982E+01  7.59869910E+00  7.59869910E+00 -1.51973982E+01  7.59869910E+00
  7.59869910E+00 -1.51973982E+01  7.59869910E+00  7.59869910E+00 -1.51973982E+01
  7.59869910E+00  7.59869910E+00 -1.51973982E+01  7.59869910E+00  7.59869910E+00
 -1.51973982E+01  7.59869910E+00  7.59869910E+00 -1.51973982E+01  7.59869910E+00
  7.59869910E+00 -1.51973982E+01  7.59869910E+00  7.59869910E+00 -1.51973982E+01
  7.59869910E+00  7.59869910E+00 -1.51973982E+01  7.59869910E+00  7.59869910E+00
 -1.51973982E+01  7.59869910E+00  7.59869910E+00 -1.51973982E+01  7.59869910E+00
  7.59869910E+00 -1.51973982E+01  7.59869910E+00  7.59869910E+00 -1.51973982E+01
  7.59869910E+00  7.59869910E+00 -1.51973982E+01  7.59869910E+00  7.59869910E+00
 -1.51973982E+01  7.59869910E+00  7.59869910E+00 -1.51973982E+01  7.59869910E+00
  7.59869910E+00 -1.51973982E+01  7.59869910E+00  7.59869910E+00 -1.51973982E+01
  7.59869910E+00  7.59869910E+00 -1.51973982E+01  7.59869910E+00  7.59869910E+00
 -1.51973982E+01  7.59869910E+00  7.59869910E+00 -1.51973982E+01  7.59869910E+00
  7.59869910E+00 -1.51973982E+01  7.59869910E+00  7.59869910E+00 -1.51973982E+01
  7.59869910E+00  7.59869910E+00 -1.51973982E+01  7.59869910E+00  7.59869910E+00
 -1.51973982E+01  7.59869910E+00  7.59869910E+00 -1.51973982E+01  7.59869910E+00
  7.59869910E+00 -1.51973982E+01  7.59869910E+00  7.59869910E+00 -1.51973982E+01
  7.59869910E+00  7.59869910E+00 -1.51973982E+01  7.59869910E+00  7.59869910E+00
 -1.51973982E+01  7.59869910E+00  7.59869910E+00 -1.51973982E+01  7.59869910E+00
  7.59869910E+00 -1.51973982E+01  7.59869910E+00  7.59869910E+00 -1.51973982E+01
  7.59869910E+00  7.59869910E+00 -1.51973982E+01  7.59869910E+00  7.59869910E+00
 -1.51973982E+01  7.59869910E+00  7.59869910E+00 -1.51973982E+01  7.59869910E+00
  7.59869910E+00 -1.51973982E+01  7.59869910E+00  7.59869910E+00 -1.51973982E+01
  7.59869910E+00  7.59869910E+00 -1.51973982E+01  7.59869910E+00  7.59869910E+00
 -1.51973982E+01  7.59869910E+00  7.59869910E+00 -1.51973982E+01  7.59869910E+00
  7.59869910E+00 -1.51973982E+01  7.59869910E+00  7.59869910E+00 -1.51973982E+01
  7.59869910E+00  7.59869910E+00 -1.51973982E+01  7.59869910E+00  7.59869910E+00
 -1.51973982E+01  7.59869910E+00  7.59869910E+00 -1.51973982E+01  7.59869910E+00
  7.59869910E+00 -1.51973982E+01  7.59869910E+00  7.59869910E+00 -1.51973982E+01
  7.59869910E+00  7.59869910E+00 -1.51973982E+01  7.59869910E+00  7.59869910E+00
 -1.51973982E+01  7.59869910E+00  7.59869910E+00 -1.51973982E+01  7.59869910E+00
  7.59869910E+00 -1.51973982E+01  7.59869910E+00  7.59869910E+00 -1.51973982E+01
  7.59869910E+00  7.59869910E+00 -1.51973982E+01  7.59869910E+00  7.59869910E+00
 -1.51973982E+01  7.59869910E+00  7.59869910E+00 -1.51973982E+01  7.59869910E+00
  7.59869910E+00 -1.51973982E+01  7.59869910E+00  7.59869910E+00 -1.51973982E+01
  7.59869910E+00  7.59869910E+00 -1.51973982E+01  7.59869910E+00  7.59869910E+00
 -1.51973982E+01  7.59869910E+00  7.59869910E+00 -1.51973982E+01  7.59869910E+00
  7.59869910E+00 -1.51973982E+01  7.59869910E+00  7.59869910E+00 -1.51973982E+01
  7.59869910E+00  7.59869910E+00 -1.51973982E+01  7.59869910E+00  7.59869910E+00
 -1.51973982E+01  7.59869910E+00  7.59869910E+00 -1.51973982E+01  7.59869910E+00
  7.59869910E+00 -1.51973982E+01  7.59869910E+00  7.59869910E+00 -1.51973982E+01
  7.59869910E+00  7.59869910E+00 -1.51973982E+01  7.59869910E+00  7.59869910E+00
 -1.51973982E+01  7.59869910E+00  7.59869910E+00 -1.51973982E+01  7.59869910E+00
  7.59869910E+00 -1.51973982E+01  7.59869910E+00  7.59869910E+00 -1.51973982E+01
  7.59869910E+00  7.59869910E+00 -1.51973982E+01  7.59869910E+00  7.59869910E+00
 -1.51973982E+01  7.59869910E+00  7.59869910E+00 -1.51973982E+01  7.59869910E+00
  7.59869910E+00 -1.51973982E+01  7.59869910E+00  7.59869910E+00 -1.51973982E+01
  7.59869910E+00  7.59869910E+00 -1.51973982E+01  7.59869910E+00  7.59869910E+00
 -1.51973982E+01  7.59869910E+00  7.59869910E+00 -1.51973982E+01  7.59869910E+00
  7.59869910E+00 -1.51973982E+01  7.59869910E+00  7.59869910E+00 -1.51973982E+01
  7.59869910E+00  7.59869910E+00 -1.51973982E+01  7.59869910E+00  7.59869910E+00
 -1.51973982E+01  7.59869910E+00  7.59869910E+00 -1.51973982E+01  7.59869910E+00
  7.59869910E+00 -1.51973982E+01  7.59869910E+00  7.59869910E+00 -1.51973982E+01
  7.59869910E+00  7.59869910E+00 -1.51973982E+01  7.59869910E+00  7.59869910E+00
 -1.51973982E+01  7.59869910E+00  7.59869910E+00 -1.51973982E+01  7.59869910E+00
  7.59869910E+00 -1.51973982E+01  7.59869910E+00  7.59869910E+00 -1.51973982E+01
  7.59869910E+00  7.59869910E+00 -1.51973982E+01  7.59869910E+00  7.59869910E+00
 -1.51973982E+01  7.59869910E+00  7.59869910E+00 -1.51973982E+01  7.59869910E+00
  7.59869910E+00 -1.51973982E+01  7.59869910E+00  7.59869910E+00 -1.51973982E+01
  7.59869910E+00  7.59869910E+00 -1.51973982E+01  7.59869910E+00  7.59869910E+00
 -1.51973982E+01  7.59869910E+00  7.59869910E+00 -1.51973982E+01  7.59869910E+00
  7.59869910E+00 -1.51973982E+01  7.59869910E+00  7.59869910E+00 -1.51973982E+01
  7.59869910E+00  7.59869910E+00 -1.51973982E+01  7.59869910E+00  7.59869910E+00
 -1.51973982E+01  7.59869910E+00  7.59869910E+00 -1.51973982E+01  7.59869910E+00
  7.59869910E+00 -1.51973982E+01  7.59869910E+00  7.59869910E+00 -1.51973982E+01
  7.59869910E+00  7.59869910E+00 -1.51973982E+01  7.59869910E+00  7.59869910E+00
 -1.51973982E+01  7.59869910E+00  7.59869910E+00 -1.51973982E+01  7.59869910E+00
  7.59869910E+00 -1.51973982E+01  7.59869910E+00  7.59869910E+00 -1.51973982E+01
  7.59869910E+00  7.59869910E+00 -1.51973982E+01  7.59869910E+00  7.59869910E+00
 -1.51973982E+01  7.59869910E+00  7.59869910E+00 -1.51973982E+01  7.59869910E+00
  7.59869910E+00 -1.51973982E+01  7.59869910E+00  7.59869910E+00 -1.51973982E+01
  7.59869910E+00  7.59869910E+00 -1.51973982E+01  7.59869910E+00  7.59869910E+00
 -1.51973982E+01  7.59869910E+00  7.59869910E+00 -1.51973982E+01  7.59869910E+00
  7.59869910E+00 -1.51973982E+01  7.59869910E+00  7.59869910E+00 -1.51973982E+01
  7.59869910E+00  7.59869910E+00 -1.51973982E+01  7.59869910E+00  7.59869910E+00
 -1.51973982E+01  7.59869910E+00  7.59869910E+00 -1.51973982E+01  7.59869910E+00
  7.59869910E+00 -1.51973982E+01  7.59869910E+00  7.59869910E+00 -1.51973982E+01
  7.59869910E+00  7.59869910E+00 -1.51973982E+01  7.59869910E+00  7.59869910E+00
 -1.51973982E+01  7.59869910E+00  7.59869910E+00 -1.51973982E+01  7.59869910E+00
  7.59869910E+00 -1.51973982E+01  7.59869910E+00  7.59869910E+00 -1.51973982E+01
  7.59869910E+00  7.59869910E+00 -1.51973982E+01  7.59869910E+00  7.59869910E+00
 -1.51973982E+01  7.59869910E+00  7.59869910E+00 -1.51973982E+01  7.59869910E+00
  7.59869910E+00 -1.51973982E+01  7.59869910E+00  7.59869910E+00 -1.51973982E+01
  7.59869910E+00  7.59869910E+00 -1.51973982E+01  7.59869910E+00  7.59869910E+00
 -1.51973982E+01  7.59869910E+00  7.59869910E+00 -1.51973982E+01  7.59869910E+00
  7.59869910E+00 -1.51973982E+01  7.59869910E+00  7.59869910E+00 -1.51973982E+01
  7.59869910E+00  7.59869910E+00 -1.51973982E+01  7.59869910E+00  7.59869910E+00
 -1.51973982E+01  7.59869910E+00  7.59869910E+00 -1.51973982E+01  7.59869910E+00
  7.59869910E+00 -1.51973982E+01  7.59869910E+00  7.59869910E+00 -1.51973982E+01
  7.59869910E+00  7.59869910E+00 -1.51973982E+01  7.59869910E+00  7.59869910E+00
 -1.51973982E+01  7.59869910E+00  7.59869910E+00 -1.51973982E+01  7.59869910E+00
  7.59869910E+00 -1.51973982E+01  7.59869910E+00  7.59869910E+00 -1.51973982E+01
  7.59869910E+00  7.59869910E+00 -1.51973982E+01  7.59869910E+00  7.59869910E+00
 -1.51973982E+01  7.59869910E+00  7.59869910E+00 -1.51973982E+01  7.59869910E+00
  7.59869910E+00 -1.51973982E+01  7.59869910E+00  7.59869910E+00 -1.51973982E+01
  7.59869910E+00  7.59869910E+00 -1.51973982E+01  7.59869910E+00  7.59869910E+00
 -1.51973982E+01  7.59869910E+00  7.59869910E+00 -1.51973982E+01  7.59869910E+00
  7.59869910E+00 -1.51973982E+01  7.59869910E+00  7.59869910E+00 -1.51973982E+01
  7.59869910E+00  7.59869910E+00 -1.51973982E+01  7.59869910E+00  7.59869910E+00
 -1.51973982E+01  7.59869910E+00  7.59869910E+00 -1.51973982E+01  7.59869910E+00
  7.59869910E+00 -1.51973982E+01  7.59869910E+00  7.59869910E+00 -1.51973982E+01
  7.59869910E+00  7.59869910E+00 -1.51973982E+01  7.59869910E+00  7.59869910E+00
 -1.51973982E+01  7.59869910E+00  7.59869910E+00 -1.51973982E+01  7.59869910E+00
  7.59869910E+00 -1.51973982E+01  7.59869910E+00  7.59869910E+00 -1.51973982E+01
  7.59869910E+00  7.59869910E+00 -1.51973982E+01  7.59869910E+00  7.59869910E+00
 -1.51973982E+01  7.59869910E+00  7.59869910E+00 -1.51973982E+01  7.59869910E+00
  7.59869910E+00 -1.51973982E+01  7.59869910E+00  7.59869910E+00 -1.51973982E+01
  7.59869910E+00  7.59869910E+00 -1.51973982E+01  7.59869910E+00  7.59869910E+00
 -1.51973982E+01  7.59869910E+00  7.59869910E+00 -1.51973982E+01  7.59869910E+00
  7.59869910E+00 -1.51973982E+01  7.59869910E+00  7.59869910E+00 -1.51973982E+01
  7.59869910E+00  7.59869910E+00 -1.51973982E+01  7.59869910E+00  7.59869910E+00
 -1.51973982E+01  7.59869910E+00  7.59869910E+00 -1.51973982E+01  7.59869910E+00
  7.59869910E+00 -1.51973982E+01  7.59869910E+00  7.59869910E+00 -1.51973982E+01
  7.59869910E+00  7.59869910E+00 -1.51973982E+01  7.59869910E+00  7.59869910E+00
 -1.51973982E+01  7.59869910E+00  7.59869910E+00 -1.51973982E+01  7.59869910E+00
  7.59869910E+00 -1.51973982E+01  7.59869910E+00  7.59869910E+00 -1.51973982E+01
  7.59869910E+00  7.59869910E+00 -1.51973982E+01  7.59869910E+00  7.59869910E+00
 -1.51973982E+01  7.59869910E+00  7.59869910E+00 -1.51973982E+01  7.59869910E+00
  7.59869910E+00 -1.51973982E+01  7.59869910E+00  7.59869910E+00 -1.51973982E+01
  7.59869910E+00  7.59869910E+00 -1.51973982E+01  7.59869910E+00  7.59869910E+00
 -1.51973982E+01  7.59869910E+00  7.59869910E+00 -1.51973982E+01  7.59869910E+00
  7.59869910E+00 -1.51973982E+01  7.59869910E+00  7.59869910E+00 -1.51973982E+01
  7.59869910E+00  7.59869910E+00 -1.51973982E+01  7.59869910E+00  7.59869910E+00
 -1.51973982E+01  7.59869910E+00  7.59869910E+00 -1.51973982E+01  7.59869910E+00
  7.59869910E+00 -1.51973982E+01  7.59869910E+00  7.59869910E+00 -1.51973982E+01
  7.59869910E+00  7.59869910E+00 -1.51973982E+01  7.59869910E+00  7.59869910E+00
 -1.51973982E+01  7.59869910E+00  7.59869910E+00 -1.51973982E+01  7.59869910E+00
  7.59869910E+00 -1.51973982E+01  7.59869910E+00  7.59869910E+00 -1.51973982E+01
  7.59869910E+00  7.59869910E+00 -1.51973982E+01  7.59869910E+00  7.59869910E+00
 -1.51973982E+01  7.59869910E+00  7.59869910E+00 -1.51973982E+01  7.59869910E+00
  7.59869910E+00 -1.51973982E+01  7.59869910E+00  7.59869910E+00 -1.51973982E+01
  7.59869910E+00  7.59869910E+00 -1.51973982E+01  7.59869910E+00  7.59869910E+00
 -1.51973982E+01  7.59869910E+00  7.59869910E+00 -1.51973982E+01  7.59869910E+00
  7.59869910E+00 -1.51973982E+01  7.59869910E+00  7.59869910E+00 -1.51973982E+01
  7.59869910E+00  7.59869910E+00 -1.51973982E+01  7.59869910E+00  7.59869910E+00
 -1.51973982E+01  7.59869910E+00  7.59869910E+00 -1.51973982E+01  7.59869910E+00
  7.59869910E+00 -1.51973982E+01  7.59869910E+00  7.59869910E+00 -1.51973982E+01
  7.59869910E+00  7.59869910E+00 -1.51973982E+01  7.59869910E+00  7.59869910E+00
 -1.51973982E+01  7.59869910E+00  7.59869910E+00 -1.51973982E+01  7.59869910E+00
  7.59869910E+00 -1.51973982E+01  7.59869910E+00  7.59869910E+00 -1.51973982E+01
  7.59869910E+00  7.59869910E+00 -1.51973982E+01  7.59869910E+00  7.59869910E+00
 -1.51973982E+01  7.59869910E+00  7.59869910E+00 -1.51973982E+01  7.59869910E+00
  7.59869910E+00 -1.51973982E+01  7.59869910E+00  7.59869910E+00 -1.51973982E+01
  7.59869910E+00  7.59869910E+00 -1.51973982E+01  7.59869910E+00  7.59869910E+00
 -1.51973982E+01  7.59869910E+00  7.59869910E+00 -1.51973982E+01  7.59869910E+00
  7.59869910E+00 -1.51973982E+01  7.59869910E+00  7.59869910E+00 -1.51973982E+01
  7.59869910E+00  7.59869910E+00 -1.51973982E+01  7.59869910E+00  7.59869910E+00
 -1.51973982E+01  7.59869910E+00  7.59869910E+00 -1.51973982E+01  7.59869910E+00
  7.59869910E+00 -1.51973982E+01  7.59869910E+00  7.59869910E+00 -1.51973982E+01
  7.59869910E+00  7.59869910E+00 -1.51973982E+01  7.59869910E+00  7.59869910E+00
 -1.51973982E+01  7.59869910E+00  7.59869910E+00 -1.51973982E+01  7.59869910E+00
  7.59869910E+00 -1.51973982E+01  7.59869910E+00  7.59869910E+00 -1.51973982E+01
  7.59869910E+00  7.59869910E+00 -1.51973982E+01  7.59869910E+00  7.59869910E+00
 -1.51973982E+01  7.59869910E+00  7.59869910E+00 -1.51973982E+01  7.59869910E+00
  7.59869910E+00 -1.51973982E+01  7.59869910E+00  7.59869910E+00 -1.51973982E+01
  7.59869910E+00  7.59869910E+00 -1.51973982E+01  7.59869910E+00  7.59869910E+00
 -1.51973982E+01  7.59869910E+00  7.59869910E+00 -1.51973982E+01  7.59869910E+00
  7.59869910E+00 -1.51973982E+01  7.59869910E+00  7.59869910E+00 -1.51973982E+01
  7.59869910E+00  7.59869910E+00 -1.51973982E+01  7.59869910E+00  7.59869910E+00
 -1.51973982E+01  7.59869910E+00  7.59869910E+00 -1.51973982E+01  7.59869910E+00
  7.59869910E+00 -1.51973982E+01  7.59869910E+00  7.59869910E+00 -1.51973982E+01
  7.59869910E+00  7.59869910E+00 -1.51973982E+01  7.59869910E+00  7.59869910E+00
 -1.51973982E+01  7.59869910E+00  7.59869910E+00 -1.51973982E+01  7.59869910E+00
  7.59869910E+00 -1.51973982E+01  7.59869910E+00  7.59869910E+00 -1.51973982E+01
  7.59869910E+00  7.59869910E+00 -1.51973982E+01  7.59869910E+00  7.59869910E+00
 -1.51973982E+01  7.59869910E+00  7.59869910E+00 -1.51973982E+01  7.59869910E+00
  7.59869910E+00 -1.51973982E+01  7.59869910E+00  7.59869910E+00 -1.51973982E+01
  7.59869910E+00  7.59869910E+00 -1.51973982E+01  7.59869910E+00  7.59869910E+00
 -1.51973982E+01  7.59869910E+00  7.59869910E+00 -1.51973982E+01  7.59869910E+00
  7.59869910E+00 -1.51973982E+01  7.59869910E+00  7.59869910E+00 -1.51973982E+01
  7.59869910E+00  7.59869910E+00 -1.51973982E+01  7.59869910E+00  7.59869910E+00
 -1.51973982E+01  7.59869910E+00  7.59869910E+00 -1.51973982E+01  7.59869910E+00
  7.59869910E+00 -1.51973982E+01  7.59869910E+00  7.59869910E+00 -1.51973982E+01
  7.59869910E+00  7.59869910E+00 -1.51973982E+01  7.59869910E+00  7.59869910E+00
 -1.51973982E+01  7.59869910E+00  7.59869910E+00 -1.51973982E+01  7.59869910E+00
  7.59869910E+00 -1.51973982E+01  7.59869910E+00  7.59869910E+00 -1.51973982E+01
  7.59869910E+00  7.59869910E+00 -1.51973982E+01  7.59869910E+00  7.59869910E+00
 -1.51973982E+01  7.59869910E+00  7.59869910E+00 -1.51973982E+01  7.59869910E+00
  7.59869910E+00 -1.51973982E+01  7.59869910E+00  7.59869910E+00 -1.51973982E+01
  7.59869910E+00  7.59869910E+00 -1.51973982E+01  7.59869910E+00  7.59869910E+00
 -1.51973982E+01  7.59869910E+00  7.59869910E+00 -1.51973982E+01  7.59869910E+00
  7.59869910E+00 -1.51973982E+01  7.59869910E+00  7.59869910E+00 -1.51973982E+01
  7.59869910E+00  7.59869910E+00 -1.51973982E+01  7.59869910E+00  7.59869910E+00
 -1.51973982E+01  7.59869910E+00  7.59869910E+00 -1.51973982E+01  7.59869910E+00
  7.59869910E+00 -1.51973982E+01  7.59869910E+00  7.59869910E+00 -1.51973982E+01
  7.59869910E+00  7.59869910E+00 -1.51973982E+01  7.59869910E+00  7.59869910E+00
 -1.51973982E+01  7.59869910E+00  7.59869910E+00 -1.51973982E+01  7.59869910E+00
  7.59869910E+00 -1.51973982E+01  7.59869910E+00  7.59869910E+00 -1.51973982E+01
  7.59869910E+00  7.59869910E+00 -1.51973982E+01  7.59869910E+00  7.59869910E+00
 -1.51973982E+01  7.59869910E+00  7.59869910E+00 -1.51973982E+01  7.59869910E+00
  7.59869910E+00 -1.51973982E+01  7.59869910E+00  7.59869910E+00 -1.51973982E+01
  7.59869910E+00  7.59869910E+00 -1.51973982E+01  7.59869910E+00  7.59869910E+00
 -1.51973982E+01  7.59869910E+00  7.59869910E+00 -1.51973982E+01  7.59869910E+00
  7.59869910E+00 -1.51973982E+01  7.59869910E+00  7.59869910E+00 -1.51973982E+01
  7.59869910E+00  7.59869910E+00 -1.51973982E+01  7.59869910E+00  7.59869910E+00
 -1.51973982E+01  7.59869910E+00  7.59869910E+00 -1.51973982E+01  7.59869910E+00
  7.59869910E+00 -1.51973982E+01  7.59869910E+00  7.59869910E+00 -1.51973982E+01
  7.59869910E+00  7.59869910E+00 -1.51973982E+01  7.59869910E+00  7.59869910E+00
 -1.51973982E+01  7.59869910E+00  7.59869910E+00 -1.51973982E+01  7.59869910E+00
  7.59869910E+00 -1.51973982E+01  7.59869910E+00  7.59869910E+00 -1.51973982E+01
  7.59869910E+00  7.59869910E+00 -1.51973982E+01  7.59869910E+00  7.59869910E+00
 -1.51973982E+01  7.59869910E+00  7.59869910E+00 -1.51973982E+01  7.59869910E+00
  7.59869910E+00 -1.51973982E+01  7.59869910E+00  7.59869910E+00 -1.51973982E+01
  7.59869910E+00  7.59869910E+00 -1.51973982E+01  7.59869910E+00  7.59869910E+00
 -1.51973982E+01  7.59869910E+00  7.59869910E+00 -1.51973982E+01  7.59869910E+00
  7.59869910E+00 -1.51973982E+01  7.59869910E+00  7.59869910E+00 -1.51973982E+01
  7.59869910E+00  7.59869910E+00 -1.51973982E+01  7.59869910E+00  7.59869910E+00
 -1.51973982E+01  7.59869910E+00  7.59869910E+00 -1.51973982E+01  7.59869910E+00
  7.59869910E+00 -1.51973982E+01  7.59869910E+00  7.59869910E+00 -1.51973982E+01
  7.59869910E+00  7.59869910E+00 -1.51973982E+01  7.59869910E+00  7.59869910E+00
 -1.51973982E+01  7.59869910E+00  7.59869910E+00 -1.51973982E+01  7.59869910E+00
  7.59869910E+00 -1.51973982E+01  7.59869910E+00  7.59869910E+00 -1.51973982E+01
  7.59869910E+00  7.59869910E+00 -1.51973982E+01  7.59869910E+00  7.59869910E+00
 -1.51973982E+01  7.59869910E+00  7.59869910E+00 -1.51973982E+01  7.59869910E+00
  7.59869910E+00 -1.51973982E+01  7.59869910E+00  7.59869910E+00 -1.51973982E+01
  7.59869910E+00  7.59869910E+00 -1.51973982E+01  7.59869910E+00  7.59869910E+00
 -1.51973982E+01  7.59869910E+00  7.59869910E+00 -1.51973982E+01  7.59869910E+00
  7.59869910E+00 -1.51973982E+01  7.59869910E+00  7.59869910E+00 -1.51973982E+01
  7.59869910E+00  7.59869910E+00 -1.51973982E+01  7.59869910E+00  7.59869910E+00
 -1.51973982E+01  7.59869910E+00  7.59869910E+00 -1.51973982E+01  7.59869910E+00
  7.59869910E+00 -1.51973982E+01  7.59869910E+00  7.59869910E+00 -1.51973982E+01
  7.59869910E+00  7.59869910E+00 -1.51973982E+01  7.59869910E+00  7.59869910E+00
 -1.51973982E+01  7.59869910E+00  7.59869910E+00 -1.51973982E+01  7.59869910E+00
  7.59869910E+00 -1.51973982E+01  7.59869910E+00  7.59869910E+00 -1.51973982E+01
  7.59869910E+00  7.59869910E+00 -1.51973982E+01  7.59869910E+00  7.59869910E+00
 -1.51973982E+01  7.59869910E+00  7.59869910E+00 -1.51973982E+01  7.59869910E+00
  7.59869910E+00 -1.51973982E+01  7.59869910E+00  7.59869910E+00 -1.51973982E+01
  7.59869910E+00  7.59869910E+00 -1.51973982E+01  7.59869910E+00  7.59869910E+00
 -1.51973982E+01  7.59869910E+00  7.59869910E+00 -1.51973982E+01  7.59869910E+00
  7.59869910E+00 -1.51973982E+01  7.59869910E+00  7.59869910E+00 -1.51973982E+01
  7.59869910E+00  7.59869910E+00 -1.51973982E+01  7.59869910E+00  7.59869910E+00
 -1.51973982E+01  7.59869910E+00  7.59869910E+00 -1.51973982E+01  7.59869910E+00
  7.59869910E+00 -1.51973982E+01  7.59869910E+00  7.59869910E+00 -1.51973982E+01
  7.59869910E+00  7.59869910E+00 -1.51973982E+01  7.59869910E+00  7.59869910E+00
 -1.51973982E+01  7.59869910E+00  7.59869910E+00 -1.51973982E+01  7.59869910E+00
  7.59869910E+00 -1.51973982E+01  7.59869910E+00  7.59869910E+00 -1.51973982E+01
  7.59869910E+00  7.59869910E+00 -1.51973982E+01  7.59869910E+00  7.59869910E+00
 -1.51973982E+01  7.59869910E+00  7.59869910E+00 -1.51973982E+01  7.59869910E+00
  7.59869910E+00 -1.51973982E+01  7.59869910E+00  7.59869910E+00 -1.51973982E+01
  7.59869910E+00  7.59869910E+00 -1.51973982E+01  7.59869910E+00  7.59869910E+00
 -1.51973982E+01  7.59869910E+00  7.59869910E+00 -1.51973982E+01  7.59869910E+00
  7.59869910E+00 -1.51973982E+01  7.59869910E+00  7.59869910E+00 -1.51973982E+01
  7.59869910E+00  7.59869910E+00 -1.51973982E+01  7.59869910E+00  7.59869910E+00
 -1.51973982E+01  7.59869910E+00  7.59869910E+00 -1.51973982E+01  7.59869910E+00
  7.59869910E+00 -1.51973982E+01  7.59869910E+00  7.59869910E+00 -1.51973982E+01
  7.59869910E+00  7.59869910E+00 -1.51973982E+01  7.59869910E+00  7.59869910E+00
 -1.51973982E+01  7.59869910E+00  7.59869910E+00 -1.51973982E+01  7.59869910E+00
  7.59869910E+00 -1.51973982E+01  7.59869910E+00  7.59869910E+00 -1.51973982E+01
  7.59869910E+00  7.59869910E+00 -1.51973982E+01  7.59869910E+00  7.59869910E+00
 -1.51973982E+01  7.59869910E+00  7.59869910E+00 -1.51973982E+01  7.59869910E+00
  7.59869910E+00 -1.51973982E+01  7.59869910E+00  7.59869910E+00 -1.51973982E+01
  7.59869910E+00  7.59869910E+00 -1.51973982E+01  7.59869910E+00  7.59869910E+00
 -1.51973982E+01  7.59869910E+00  7.59869910E+00 -1.51973982E+01  7.59869910E+00
  7.59869910E+00 -1.51973982E+01  7.59869910E+00  7.59869910E+00 -1.51973982E+01
  7.59869910E+00  7.59869910E+00 -1.51973982E+01  7.59869910E+00  7.59869910E+00
 -1.51973982E+01  7.59869910E+00  7.59869910E+00 -1.51973982E+01  7.59869910E+00
  7.59869910E+00 -1.51973982E+01  7.59869910E+00  7.59869910E+00 -1.51973982E+01
  7.59869910E+00  7.59869910E+00 -1.51973982E+01  7.59869910E+00  7.59869910E+00
 -1.51973982E+01  7.59869910E+00  7.59869910E+00 -1.51973982E+01  7.59869910E+00
  7.59869910E+00 -1.51973982E+01  7.59869910E+00  7.59869910E+00 -1.51973982E+01
  7.59869910E+00  7.59869910E+00 -1.51973982E+01  7.59869910E+00  7.59869910E+00
 -1.51973982E+01  7.59869910E+00  7.59869910E+00 -1.51973982E+01  7.59869910E+00
  7.59869910E+00 -1.51973982E+01  7.59869910E+00  7.59869910E+00 -1.51973982E+01
  7.59869910E+00  7.59869910E+00 -1.51973982E+01  7.59869910E+00  7.59869910E+00
 -1.51973982E+01  7.59869910E+00  7.59869910E+00 -1.51973982E+01  7.59869910E+00
  7.59869910E+00 -1.51973982E+01  7.59869910E+00  7.59869910E+00 -1.51973982E+01
  7.59869910E+00  7.59869910E+00 -1.51973982E+01  7.59869910E+00  7.59869910E+00
 -1.51973982E+01  7.59869910E+00  7.59869910E+00 -1.51973982E+01  7.59869910E+00
  7.59869910E+00 -1.51973982E+01  7.59869910E+00  7.59869910E+00 -1.51973982E+01
  7.59869910E+00  7.59869910E+00 -1.51973982E+01  7.59869910E+00  7.59869910E+00
 -1.51973982E+01  7.59869910E+00  7.59869910E+00 -1.51973982E+01  7.59869910E+00
  7.59869910E+00 -1.51973982E+01  7.59869910E+00  7.59869910E+00 -1.51973982E+01
  7.59869910E+00  7.59869910E+00 -1.51973982E+01  7.59869910E+00  7.59869910E+00
 -1.51973982E+01  7.59869910E+00  7.59869910E+00 -1.51973982E+01  7.59869910E+00
  7.59869910E+00 -1.51973982E+01  7.59869910E+00  7.59869910E+00 -1.51973982E+01
  7.59869910E+00  7.59869910E+00 -1.51973982E+01  7.59869910E+00  7.59869910E+00
 -1.51973982E+01  7.59869910E+00  7.59869910E+00 -1.51973982E+01  7.59869910E+00
  7.59869910E+00 -1.51973982E+01  7.59869910E+00  7.59869910E+00 -1.51973982E+01
  7.59869910E+00  7.59869910E+00 -1.51973982E+01  7.59869910E+00  7.59869910E+00
 -1.51973982E+01  7.59869910E+00  7.59869910E+00 -1.51973982E+01  7.59869910E+00
  7.59869910E+00 -1.51973982E+01  7.59869910E+00  7.59869910E+00 -1.51973982E+01
  7.59869910E+00  7.59869910E+00 -1.51973982E+01  7.59869910E+00  7.59869910E+00
 -1.51973982E+01  7.59869910E+00  7.59869910E+00 -1.51973982E+01  7.59869910E+00
  7.59869910E+00 -1.51973982E+01  7.59869910E+00  7.59869910E+00 -1.51973982E+01
  7.59869910E+00  7.59869910E+00 -1.51973982E+01  7.59869910E+00  7.59869910E+00
 -1.51973982E+01  7.59869910E+00  7.59869910E+00 -1.51973982E+01  7.59869910E+00
  7.59869910E+00 -1.51973982E+01  7.59869910E+00  7.59869910E+00 -1.51973982E+01
  7.59869910E+00  7.59869910E+00 -1.51973982E+01  7.59869910E+00  7.59869910E+00
 -1.51973982E+01  7.59869910E+00  7.59869910E+00 -1.51973982E+01  7.59869910E+00
  7.59869910E+00 -1.51973982E+01  7.59869910E+00  7.59869910E+00 -1.51973982E+01
  7.59869910E+00  7.59869910E+00 -1.51973982E+01  7.59869910E+00  7.59869910E+00
 -1.51973982E+01  7.59869910E+00  7.59869910E+00 -1.51973982E+01  7.59869910E+00
  7.59869910E+00 -1.51973982E+01  7.59869910E+00  7.59869910E+00 -1.51973982E+01
  7.59869910E+00  7.59869910E+00 -1.51973982E+01  7.59869910E+00  7.59869910E+00
 -1.51973982E+01  7.59869910E+00  7.59869910E+00 -1.51973982E+01  7.59869910E+00
  7.59869910E+00 -1.51973982E+01  7.59869910E+00  7.59869910E+00 -1.51973982E+01
  7.59869910E+00  7.59869910E+00 -1.51973982E+01  7.59869910E+00  7.59869910E+00
 -1.51973982E+01  7.59869910E+00  7.59869910E+00 -1.51973982E+01  7.59869910E+00
  7.59869910E+00 -1.51973982E+01  7.59869910E+00  7.59869910E+00 -1.51973982E+01
  7.59869910E+00  7.59869910E+00 -1.51973982E+01  7.59869910E+00  7.59869910E+00
 -1.51973982E+01  7.59869910E+00  7.59869910E+00 -1.51973982E+01  7.59869910E+00
  7.59869910E+00 -1.51973982E+01  7.59869910E+00  7.59869910E+00 -1.51973982E+01
  7.59869910E+00  7.59869910E+00 -1.51973982E+01  7.59869910E+00  7.59869910E+00
 -1.51973982E+01  7.59869910E+00  7.59869910E+00 -1.51973982E+01  7.59869910E+00
  7.59869910E+00 -1.51973982E+01  7.59869910E+00  7.59869910E+00 -1.51973982E+01
  7.59869910E+00  7.59869910E+00 -1.51973982E+01  7.59869910E+00  7.59869910E+00
 -1.51973982E+01  7.59869910E+00  7.59869910E+00 -1.51973982E+01  7.59869910E+00
  7.59869910E+00 -1.51973982E+01  7.59869910E+00  7.59869910E+00 -1.51973982E+01
  7.59869910E+00  7.59869910E+00 -1.51973982E+01  7.59869910E+00  7.59869910E+00
 -1.51973982E+01  7.59869910E+00  7.59869910E+00 -1.51973982E+01  7.59869910E+00
  7.59869910E+00 -1.51973982E+01  7.59869910E+00  7.59869910E+00 -1.51973982E+01
  7.59869910E+00  7.59869910E+00 -1.51973982E+01  7.59869910E+00  7.59869910E+00
 -1.51973982E+01  7.59869910E+00  7.59869910E+00 -1.51973982E+01  7.59869910E+00
  7.59869910E+00 -1.51973982E+01  7.59869910E+00  7.59869910E+00 -1.51973982E+01
  7.59869910E+00  7.59869910E+00 -1.51973982E+01  7.59869910E+00  7.59869910E+00
 -1.51973982E+01  7.59869910E+00  7.59869910E+00 -1.51973982E+01  7.59869910E+00
  7.59869910E+00 -1.51973982E+01  7.59869910E+00  7.59869910E+00 -1.51973982E+01
  7.59869910E+00  7.59869910E+00 -1.51973982E+01  7.59869910E+00  7.59869910E+00
 -1.51973982E+01  7.59869910E+00  7.59869910E+00 -1.51973982E+01  7.59869910E+00
  7.59869910E+00 -1.51973982E+01  7.59869910E+00  7.59869910E+00 -1.51973982E+01
  7.59869910E+00  7.59869910E+00 -1.51973982E+01  7.59869910E+00  7.59869910E+00
 -1.51973982E+01  7.59869910E+00  7.59869910E+00 -1.51973982E+01  7.59869910E+00
  7.59869910E+00 -1.51973982E+01  7.59869910E+00  7.59869910E+00 -1.51973982E+01
  7.59869910E+00  7.59869910E+00 -1.51973982E+01  7.59869910E+00  7.59869910E+00
 -1.51973982E+01  7.59869910E+00  7.59869910E+00 -1.51973982E+01  7.59869910E+00
  7.59869910E+00 -1.51973982E+01  7.59869910E+00  7.59869910E+00 -1.51973982E+01
  7.59869910E+00  7.59869910E+00 -1.51973982E+01  7.59869910E+00  7.59869910E+00
 -1.51973982E+01  7.59869910E+00  7.59869910E+00 -1.51973982E+01  7.59869910E+00
  7.59869910E+00 -1.51973982E+01  7.59869910E+00  7.59869910E+00 -1.51973982E+01
  7.59869910E+00  7.59869910E+00 -1.51973982E+01  7.59869910E+00  7.59869910E+00
 -1.51973982E+01  7.59869910E+00  7.59869910E+00 -1.51973982E+01  7.59869910E+00
  7.59869910E+00 -1.51973982E+01  7.59869910E+00  7.59869910E+00 -1.51973982E+01
  7.59869910E+00  7.59869910E+00 -1.51973982E+01  7.59869910E+00  7.59869910E+00
 -1.51973982E+01  7.59869910E+00  7.59869910E+00 -1.51973982E+01  7.59869910E+00
  7.59869910E+00 -1.51973982E+01  7.59869910E+00  7.59869910E+00 -1.51973982E+01
  7.59869910E+00  7.59869910E+00 -1.51973982E+01  7.59869910E+00  7.59869910E+00
 -1.51973982E+01  7.59869910E+00  7.59869910E+00 -1.51973982E+01  7.59869910E+00
  7.59869910E+00 -1.51973982E+01  7.59869910E+00  7.59869910E+00 -1.51973982E+01
  7.59869910E+00  7.59869910E+00 -1.51973982E+01  7.59869910E+00  7.59869910E+00
 -1.51973982E+01  7.59869910E+00  7.59869910E+00 -1.51973982E+01  7.59869910E+00
  7.59869910E+00 -1.51973982E+01  7.59869910E+00  7.59869910E+00 -1.51973982E+01
  7.59869910E+00  7.59869910E+00 -1.51973982E+01  7.59869910E+00  7.59869910E+00
 -1.51973982E+01  7.59869910E+00  7.59869910E+00 -1.51973982E+01  7.59869910E+00
  7.59869910E+00 -1.51973982E+01  7.59869910E+00  7.59869910E+00 -1.51973982E+01
  7.59869910E+00  7.59869910E+00 -1.51973982E+01  7.59869910E+00  7.59869910E+00
 -1.51973982E+01  7.59869910E+00  7.59869910E+00 -1.51973982E+01  7.59869910E+00
  7.59869910E+00 -1.51973982E+01  7.59869910E+00  7.59869910E+00 -1.51973982E+01
  7.59869910E+00  7.59869910E+00 -1.51973982E+01  7.59869910E+00  7.59869910E+00
 -1.51973982E+01  7.59869910E+00  7.59869910E+00 -1.51973982E+01  7.59869910E+00
  7.59869910E+00 -1.51973982E+01  7.59869910E+00  7.59869910E+00 -1.51973982E+01
  7.59869910E+00  7.59869910E+00 -1.51973982E+01  7.59869910E+00  7.59869910E+00
 -1.51973982E+01  7.59869910E+00  7.59869910E+00 -1.51973982E+01  7.59869910E+00
  7.59869910E+00 -1.51973982E+01  7.59869910E+00  7.59869910E+00 -1.51973982E+01
  7.59869910E+00  7.59869910E+00 -1.51973982E+01  7.59869910E+00  7.59869910E+00
 -1.51973982E+01  7.59869910E+00  7.59869910E+00 -1.51973982E+01  7.59869910E+00
  7.59869910E+00 -1.51973982E+01  7.59869910E+00  7.59869910E+00 -1.51973982E+01
  7.59869910E+00  7.59869910E+00 -1.51973982E+01  7.59869910E+00  7.59869910E+00
 -1.51973982E+01  7.59869910E+00  7.59869910E+00 -1.51973982E+01  7.59869910E+00
  7.59869910E+00 -1.51973982E+01  7.59869910E+00  7.59869910E+00 -1.51973982E+01
  7.59869910E+00  7.59869910E+00 -1.51973982E+01  7.59869910E+00  7.59869910E+00
 -1.51973982E+01  7.59869910E+00  7.59869910E+00 -1.51973982E+01  7.59869910E+00
  7.59869910E+00 -1.51973982E+01  7.59869910E+00  7.59869910E+00 -1.51973982E+01
  7.59869910E+00  7.59869910E+00 -1.51973982E+01  7.59869910E+00  7.59869910E+00
 -1.51973982E+01  7.59869910E+00  7.59869910E+00 -1.51973982E+01  7.59869910E+00
  7.59869910E+00 -1.51973982E+01  7.59869910E+00  7.59869910E+00 -1.51973982E+01
  7.59869910E+00  7.59869910E+00 -1.51973982E+01  7.59869910E+00  7.59869910E+00
 -1.51973982E+01  7.59869910E+00  7.59869910E+00 -1.51973982E+01  7.59869910E+00
  7.59869910E+00 -1.51973982E+01  7.59869910E+00  7.59869910E+00 -1.51973982E+01
  7.59869910E+00  7.59869910E+00 -1.51973982E+01  7.59869910E+00  7.59869910E+00
 -1.51973982E+01  7.59869910E+00  7.59869910E+00 -1.51973982E+01  7.59869910E+00
  7.59869910E+00 -1.51973982E+01  7.59869910E+00  7.59869910E+00 -1.51973982E+01
  7.59869910E+00  7.59869910E+00 -1.51973982E+01  7.59869910E+00  7.59869910E+00
 -1.51973982E+01  7.59869910E+00  7.59869910E+00 -1.51973982E+01  7.59869910E+00
  7.59869910E+00 -1.51973982E+01  7.59869910E+00  7.59869910E+00 -1.51973982E+01
  7.59869910E+00  7.59869910E+00 -1.51973982E+01  7.59869910E+00  7.59869910E+00
 -1.51973982E+01  7.59869910E+00  7.59869910E+00 -1.51973982E+01  7.59869910E+00
  7.59869910E+00 -1.51973982E+01  7.59869910E+00  7.59869910E+00 -1.51973982E+01
  7.59869910E+00  7.59869910E+00 -1.51973982E+01  7.59869910E+00  7.59869910E+00
 -1.51973982E+01  7.59869910E+00  7.59869910E+00 -1.51973982E+01  7.59869910E+00
  7.59869910E+00 -1.51973982E+01  7.59869910E+00  7.59869910E+00 -1.51973982E+01
  7.59869910E+00  7.59869910E+00 -1.51973982E+01  7.59869910E+00  7.59869910E+00
 -1.51973982E+01  7.59869910E+00  7.59869910E+00 -1.51973982E+01  7.59869910E+00
  7.59869910E+00 -1.51973982E+01  7.59869910E+00  7.59869910E+00 -1.51973982E+01
  7.59869910E+00  7.59869910E+00 -1.51973982E+01  7.59869910E+00  7.59869910E+00
 -1.51973982E+01  7.59869910E+00  7.59869910E+00 -1.51973982E+01  7.59869910E+00
  7.59869910E+00 -1.51973982E+01  7.59869910E+00  7.59869910E+00 -1.51973982E+01
  7.59869910E+00  7.59869910E+00 -1.51973982E+01  7.59869910E+00  7.59869910E+00
 -1.51973982E+01  7.59869910E+00  7.59869910E+00 -1.51973982E+01  7.59869910E+00
  7.59869910E+00 -1.51973982E+01  7.59869910E+00  7.59869910E+00 -1.51973982E+01
  7.59869910E+00  7.59869910E+00 -1.51973982E+01  7.59869910E+00  7.59869910E+00
 -1.51973982E+01  7.59869910E+00  7.59869910E+00 -1.51973982E+01  7.59869910E+00
  7.59869910E+00 -1.51973982E+01  7.59869910E+00  7.59869910E+00 -1.51973982E+01
  7.59869910E+00  7.59869910E+00 -1.51973982E+01  7.59869910E+00  7.59869910E+00
 -1.51973982E+01  7.59869910E+00  7.59869910E+00 -1.51973982E+01  7.59869910E+00
  7.59869910E+00 -1.51973982E+01  7.59869910E+00  7.59869910E+00 -1.51973982E+01
  7.59869910E+00  7.59869910E+00 -1.51973982E+01  7.59869910E+00  7.59869910E+00
 -1.51973982E+01  7.59869910E+00  7.59869910E+00 -1.51973982E+01  7.59869910E+00
  7.59869910E+00 -1.51973982E+01  7.59869910E+00  7.59869910E+00 -1.51973982E+01
  7.59869910E+00  7.59869910E+00 -1.51973982E+01  7.59869910E+00  7.59869910E+00
 -1.51973982E+01  7.59869910E+00  7.59869910E+00 -1.51973982E+01  7.59869910E+00
  7.59869910E+00 -1.51973982E+01  7.59869910E+00  7.59869910E+00 -1.51973982E+01
  7.59869910E+00  7.59869910E+00 -1.51973982E+01  7.59869910E+00  7.59869910E+00
 -1.51973982E+01  7.59869910E+00  7.59869910E+00 -1.51973982E+01  7.59869910E+00
  7.59869910E+00 -1.51973982E+01  7.59869910E+00  7.59869910E+00 -1.51973982E+01
  7.59869910E+00  7.59869910E+00 -1.51973982E+01  7.59869910E+00  7.59869910E+00
 -1.51973982E+01  7.59869910E+00  7.59869910E+00 -1.51973982E+01  7.59869910E+00
  7.59869910E+00 -1.51973982E+01  7.59869910E+00  7.59869910E+00 -1.51973982E+01
  7.59869910E+00  7.59869910E+00 -1.51973982E+01  7.59869910E+00  7.59869910E+00
 -1.51973982E+01  7.59869910E+00  7.59869910E+00 -1.51973982E+01  7.59869910E+00
  7.59869910E+00 -1.51973982E+01  7.59869910E+00  7.59869910E+00 -1.51973982E+01
  7.59869910E+00  7.59869910E+00 -1.51973982E+01  7.59869910E+00  7.59869910E+00
 -1.51973982E+01  7.59869910E+00  7.59869910E+00 -1.51973982E+01  7.59869910E+00
  7.59869910E+00 -1.51973982E+01  7.59869910E+00  7.59869910E+00 -1.51973982E+01
  7.59869910E+00  7.59869910E+00 -1.51973982E+01  7.59869910E+00  7.59869910E+00
 -1.51973982E+01  7.59869910E+00  7.59869910E+00 -1.51973982E+01  7.59869910E+00
  7.59869910E+00 -1.51973982E+01  7.59869910E+00  7.59869910E+00 -1.51973982E+01
  7.59869910E+00  7.59869910E+00 -1.51973982E+01  7.59869910E+00  7.59869910E+00
 -1.51973982E+01  7.59869910E+00  7.59869910E+00 -1.51973982E+01  7.59869910E+00
  7.59869910E+00 -1.51973982E+01  7.59869910E+00  7.59869910E+00 -1.51973982E+01
  7.59869910E+00  7.59869910E+00 -1.51973982E+01  7.59869910E+00  7.59869910E+00
 -1.51973982E+01  7.59869910E+00  7.59869910E+00 -1.51973982E+01  7.59869910E+00
  7.59869910E+00 -1.51973982E+01  7.59869910E+00  7.59869910E+00 -1.51973982E+01
  7.59869910E+00  7.59869910E+00 -1.51973982E+01  7.59869910E+00  7.59869910E+00
 -1.51973982E+01  7.59869910E+00  7.59869910E+00 -1.51973982E+01  7.59869910E+00
  7.59869910E+00 -1.51973982E+01  7.59869910E+00  7.59869910E+00 -1.51973982E+01
  7.59869910E+00  7.59869910E+00 -1.51973982E+01  7.59869910E+00  7.59869910E+00
 -1.51973982E+01  7.59869910E+00  7.59869910E+00 -1.51973982E+01  7.59869910E+00
  7.59869910E+00 -1.51973982E+01  7.59869910E+00  7.59869910E+00 -1.51973982E+01
  7.59869910E+00  7.59869910E+00 -1.51973982E+01  7.59869910E+00  7.59869910E+00
 -1.51973982E+01  7.59869910E+00  7.59869910E+00 -1.51973982E+01  7.59869910E+00
  7.59869910E+00 -1.51973982E+01  7.59869910E+00  7.59869910E+00 -1.51973982E+01
  7.59869910E+00  7.59869910E+00 -1.51973982E+01  7.59869910E+00  7.59869910E+00
 -1.51973982E+01  7.59869910E+00  7.59869910E+00 -1.51973982E+01  7.59869910E+00
  7.59869910E+00 -1.51973982E+01  7.59869910E+00  7.59869910E+00 -1.51973982E+01
  7.59869910E+00  7.59869910E+00 -1.51973982E+01  7.59869910E+00  7.59869910E+00
 -1.51973982E+01  7.59869910E+00  7.59869910E+00 -1.51973982E+01  7.59869910E+00
  7.59869910E+00 -1.51973982E+01  7.59869910E+00  7.59869910E+00 -1.51973982E+01
  7.59869910E+00  7.59869910E+00 -1.51973982E+01  7.59869910E+00  7.59869910E+00
 -1.51973982E+01  7.59869910E+00  7.59869910E+00 -1.51973982E+01  7.59869910E+00
  7.59869910E+00 -1.51973982E+01  7.59869910E+00  7.59869910E+00 -1.51973982E+01
  7.59869910E+00  7.59869910E+00 -1.51973982E+01  7.59869910E+00  7.59869910E+00
 -1.51973982E+01  7.59869910E+00  7.59869910E+00 -1.51973982E+01  7.59869910E+00
  7.59869910E+00 -1.51973982E+01  7.59869910E+00  7.59869910E+00 -1.51973982E+01
  7.59869910E+00  7.59869910E+00 -1.51973982E+01  7.59869910E+00  7.59869910E+00
 -1.51973982E+01  7.59869910E+00  7.59869910E+00 -1.51973982E+01  7.59869910E+00
  7.59869910E+00 -1.51973982E+01  7.59869910E+00  7.59869910E+00 -1.51973982E+01
  7.59869910E+00  7.59869910E+00 -1.51973982E+01  7.59869910E+00  7.59869910E+00
 -1.51973982E+01  7.59869910E+00  7.59869910E+00 -1.51973982E+01  7.59869910E+00
  7.59869910E+00 -1.51973982E+01  7.59869910E+00  7.59869910E+00 -1.51973982E+01
  7.59869910E+00  7.59869910E+00 -1.51973982E+01  7.59869910E+00  7.59869910E+00
 -1.51973982E+01  7.59869910E+00  7.59869910E+00 -1.51973982E+01  7.59869910E+00
  7.59869910E+00 -1.51973982E+01  7.59869910E+00  7.59869910E+00 -1.51973982E+01
  7.59869910E+00  7.59869910E+00 -1.51973982E+01  7.59869910E+00  7.59869910E+00
 -1.51973982E+01  7.59869910E+00  7.59869910E+00 -1.51973982E+01  7.59869910E+00
  7.59869910E+00 -1.51973982E+01  7.59869910E+00  7.59869910E+00 -1.51973982E+01
  7.59869910E+00  7.59869910E+00 -1.51973982E+01  7.59869910E+00  7.59869910E+00
 -1.51973982E+01  7.59869910E+00  7.59869910E+00 -1.51973982E+01  7.59869910E+00
  7.59869910E+00 -1.51973982E+01  7.59869910E+00  7.59869910E+00 -1.51973982E+01
  7.59869910E+00  7.59869910E+00 -1.51973982E+01  7.59869910E+00  7.59869910E+00
 -1.51973982E+01  7.59869910E+00  7.59869910E+00 -1.51973982E+01  7.59869910E+00
  7.59869910E+00 -1.51973982E+01  7.59869910E+00  7.59869910E+00 -1.51973982E+01
  7.59869910E+00  7.59869910E+00 -1.51973982E+01  7.59869910E+00  7.59869910E+00
 -1.51973982E+01  7.59869910E+00  7.59869910E+00 -1.51973982E+01  7.59869910E+00
  7.59869910E+00 -1.51973982E+01  7.59869910E+00  7.59869910E+00 -1.51973982E+01
  7.59869910E+00  7.59869910E+00 -1.51973982E+01  7.59869910E+00  7.59869910E+00
 -1.51973982E+01  7.59869910E+00  7.59869910E+00 -1.51973982E+01  7.59869910E+00
  7.59869910E+00 -1.51973982E+01  7.59869910E+00  7.59869910E+00 -1.51973982E+01
  7.59869910E+00  7.59869910E+00 -1.51973982E+01  7.59869910E+00  7.59869910E+00
 -1.51973982E+01  7.59869910E+00  7.59869910E+00 -1.51973982E+01  7.59869910E+00
  7.59869910E+00 -1.51973982E+01  7.59869910E+00  7.59869910E+00 -1.51973982E+01
  7.59869910E+00  7.59869910E+00 -1.51973982E+01  7.59869910E+00  7.59869910E+00
 -1.51973982E+01  7.59869910E+00  7.59869910E+00 -1.51973982E+01  7.59869910E+00
  7.59869910E+00 -1.51973982E+01  7.59869910E+00  7.59869910E+00 -1.51973982E+01
  7.59869910E+00  7.59869910E+00 -1.51973982E+01  7.59869910E+00  7.59869910E+00
 -1.51973982E+01  7.59869910E+00  7.59869910E+00 -1.51973982E+01  7.59869910E+00
  7.59869910E+00 -1.51973982E+01  7.59869910E+00  7.59869910E+00 -1.51973982E+01
  7.59869910E+00  7.59869910E+00 -1.51973982E+01  7.59869910E+00  7.59869910E+00
 -1.51973982E+01  7.59869910E+00  7.59869910E+00 -1.51973982E+01  7.59869910E+00
  7.59869910E+00 -1.51973982E+01  7.59869910E+00  7.59869910E+00 -1.51973982E+01
  7.59869910E+00  7.59869910E+00 -1.51973982E+01  7.59869910E+00  7.59869910E+00
 -1.51973982E+01  7.59869910E+00  7.59869910E+00 -1.51973982E+01  7.59869910E+00
  7.59869910E+00 -1.51973982E+01  7.59869910E+00  7.59869910E+00 -1.51973982E+01
  7.59869910E+00  7.59869910E+00 -1.51973982E+01  7.59869910E+00  7.59869910E+00
 -1.51973982E+01  7.59869910E+00  7.59869910E+00 -1.51973982E+01  7.59869910E+00
  7.59869910E+00 -1.51973982E+01  7.59869910E+00  7.59869910E+00 -1.51973982E+01
  7.59869910E+00  7.59869910E+00 -1.51973982E+01  7.59869910E+00  7.59869910E+00
 -1.51973982E+01  7.59869910E+00  7.59869910E+00 -1.51973982E+01  7.59869910E+00
  7.59869910E+00 -1.51973982E+01  7.59869910E+00  7.59869910E+00 -1.51973982E+01
  7.59869910E+00  7.59869910E+00 -1.51973982E+01  7.59869910E+00  7.59869910E+00
 -1.51973982E+01  7.59869910E+00  7.59869910E+00 -1.51973982E+01  7.59869910E+00
  7.59869910E+00 -1.51973982E+01  7.59869910E+00  7.59869910E+00 -1.51973982E+01
  7.59869910E+00  7.59869910E+00 -1.51973982E+01  7.59869910E+00  7.59869910E+00
 -1.51973982E+01  7.59869910E+00  7.59869910E+00 -1.51973982E+01  7.59869910E+00
  7.59869910E+00 -1.51973982E+01  7.59869910E+00  7.59869910E+00 -1.51973982E+01
  7.59869910E+00  7.59869910E+00 -1.51973982E+01  7.59869910E+00  7.59869910E+00
 -1.51973982E+01  7.59869910E+00  7.59869910E+00 -1.51973982E+01  7.59869910E+00
  7.59869910E+00 -1.51973982E+01  7.59869910E+00  7.59869910E+00 -1.51973982E+01
  7.59869910E+00  7.59869910E+00 -1.51973982E+01  7.59869910E+00  7.59869910E+00
 -1.51973982E+01  7.59869910E+00  7.59869910E+00 -1.51973982E+01  7.59869910E+00
  7.59869910E+00 -1.51973982E+01  7.59869910E+00  7.59869910E+00 -1.51973982E+01
  7.59869910E+00  7.59869910E+00 -1.51973982E+01  7.59869910E+00  7.59869910E+00
 -1.51973982E+01  7.59869910E+00  7.59869910E+00 -1.51973982E+01  7.59869910E+00
  7.59869910E+00 -1.51973982E+01  7.59869910E+00  7.59869910E+00 -1.51973982E+01
  7.59869910E+00  7.59869910E+00 -1.51973982E+01  7.59869910E+00  7.59869910E+00
 -1.51973982E+01  7.59869910E+00  7.59869910E+00 -1.51973982E+01  7.59869910E+00
  7.59869910E+00 -1.51973982E+01  7.59869910E+00  7.59869910E+00 -1.51973982E+01
  7.59869910E+00  7.59869910E+00 -1.51973982E+01  7.59869910E+00  7.59869910E+00
 -1.51973982E+01  7.59869910E+00  7.59869910E+00 -1.51973982E+01  7.59869910E+00
  7.59869910E+00 -1.51973982E+01  7.59869910E+00  7.59869910E+00 -1.51973982E+01
  7.59869910E+00  7.59869910E+00 -1.51973982E+01  7.59869910E+00  7.59869910E+00
 -1.51973982E+01  7.59869910E+00  7.59869910E+00 -1.51973982E+01  7.59869910E+00
  7.59869910E+00 -1.51973982E+01  7.59869910E+00  7.59869910E+00 -1.51973982E+01
  7.59869910E+00  7.59869910E+00 -1.51973982E+01  7.59869910E+00  7.59869910E+00
 -1.51973982E+01  7.59869910E+00  7.59869910E+00 -1.51973982E+01  7.59869910E+00
  7.59869910E+00 -1.51973982E+01  7.59869910E+00  7.59869910E+00 -1.51973982E+01
  7.59869910E+00  7.59869910E+00 -1.51973982E+01  7.59869910E+00  7.59869910E+00
 -1.51973982E+01  7.59869910E+00  7.59869910E+00 -1.51973982E+01  7.59869910E+00
  7.59869910E+00 -1.51973982E+01  7.59869910E+00  7.59869910E+00 -1.51973982E+01
  7.59869910E+00  7.59869910E+00 -1.51973982E+01  7.59869910E+00  7.59869910E+00
 -1.51973982E+01  7.59869910E+00  7.59869910E+00 -1.51973982E+01  7.59869910E+00
  7.59869910E+00 -1.51973982E+01  7.59869910E+00  7.59869910E+00 -1.51973982E+01
  7.59869910E+00  7.59869910E+00 -1.51973982E+01  7.59869910E+00  7.59869910E+00
 -1.51973982E+01  7.59869910E+00  7.59869910E+00 -1.51973982E+01  7.59869910E+00
  7.59869910E+00 -1.51973982E+01  7.59869910E+00  7.59869910E+00 -1.51973982E+01
  7.59869910E+00  7.59869910E+00 -1.51973982E+01  7.59869910E+00  7.59869910E+00
 -1.51973982E+01  7.59869910E+00  7.59869910E+00 -1.51973982E+01  7.59869910E+00
  7.59869910E+00 -1.51973982E+01  7.59869910E+00  7.59869910E+00 -1.51973982E+01
  7.59869910E+00  7.59869910E+00 -1.51973982E+01  7.59869910E+00  7.59869910E+00
 -1.51973982E+01  7.59869910E+00  7.59869910E+00 -1.51973982E+01  7.59869910E+00
  7.59869910E+00 -1.51973982E+01  7.59869910E+00  7.59869910E+00 -1.51973982E+01
  7.59869910E+00  7.59869910E+00 -1.51973982E+01  7.59869910E+00  7.59869910E+00
 -1.51973982E+01  7.59869910E+00  7.59869910E+00 -1.51973982E+01  7.59869910E+00
  7.59869910E+00 -1.51973982E+01  7.59869910E+00  7.59869910E+00 -1.51973982E+01
  7.59869910E+00  7.59869910E+00 -1.51973982E+01  7.59869910E+00  7.59869910E+00
 -1.51973982E+01  7.59869910E+00  7.59869910E+00 -1.51973982E+01  7.59869910E+00
  7.59869910E+00 -1.51973982E+01  7.59869910E+00  7.59869910E+00 -1.51973982E+01
  7.59869910E+00  7.59869910E+00 -1.51973982E+01  7.59869910E+00  7.59869910E+00
 -1.51973982E+01  7.59869910E+00  7.59869910E+00 -1.51973982E+01  7.59869910E+00
  7.59869910E+00 -1.51973982E+01  7.59869910E+00  7.59869910E+00 -1.51973982E+01
  7.59869910E+00  7.59869910E+00 -1.51973982E+01  7.59869910E+00  7.59869910E+00
 -1.51973982E+01  7.59869910E+00  7.59869910E+00 -1.51973982E+01  7.59869910E+00
  7.59869910E+00 -1.51973982E+01  7.59869910E+00  7.59869910E+00 -1.51973982E+01
  7.59869910E+00  7.59869910E+00 -1.51973982E+01  7.59869910E+00  7.59869910E+00
 -1.51973982E+01  7.59869910E+00  7.59869910E+00 -1.51973982E+01  7.59869910E+00
  7.59869910E+00 -1.51973982E+01  7.59869910E+00  7.59869910E+00 -1.51973982E+01
  7.59869910E+00  7.59869910E+00 -1.51973982E+01  7.59869910E+00  7.59869910E+00
 -1.51973982E+01  7.59869910E+00  7.59869910E+00 -1.51973982E+01  7.59869910E+00
  7.59869910E+00 -1.51973982E+01  7.59869910E+00  7.59869910E+00 -1.51973982E+01
  7.59869910E+00  7.59869910E+00 -1.51973982E+01  7.59869910E+00  7.59869910E+00
 -1.51973982E+01  7.59869910E+00  7.59869910E+00 -1.51973982E+01  7.59869910E+00
  7.59869910E+00 -1.51973982E+01  7.59869910E+00  7.59869910E+00 -1.51973982E+01
  7.59869910E+00  7.59869910E+00 -1.51973982E+01  7.59869910E+00  7.59869910E+00
 -1.51973982E+01  7.59869910E+00  7.59869910E+00 -1.51973982E+01  7.59869910E+00
  7.59869910E+00 -1.51973982E+01  7.59869910E+00  7.59869910E+00 -1.51973982E+01
  7.59869910E+00  7.59869910E+00 -1.51973982E+01  7.59869910E+00  7.59869910E+00
 -1.51973982E+01  7.59869910E+00  7.59869910E+00 -1.51973982E+01  7.59869910E+00
  7.59869910E+00 -1.51973982E+01  7.59869910E+00  7.59869910E+00 -1.51973982E+01
  7.59869910E+00  7.59869910E+00 -1.51973982E+01  7.59869910E+00  7.59869910E+00
 -1.51973982E+01  7.59869910E+00  7.59869910E+00 -1.51973982E+01  7.59869910E+00
  7.59869910E+00 -1.51973982E+01  7.59869910E+00  7.59869910E+00 -1.51973982E+01
  7.59869910E+00  7.59869910E+00 -1.51973982E+01  7.59869910E+00  7.59869910E+00
 -1.51973982E+01  7.59869910E+00  7.59869910E+00 -1.51973982E+01  7.59869910E+00
  7.59869910E+00 -1.51973982E+01  7.59869910E+00  7.59869910E+00 -1.51973982E+01
  7.59869910E+00  7.59869910E+00 -1.51973982E+01  7.59869910E+00  7.59869910E+00
 -1.51973982E+01  7.59869910E+00  7.59869910E+00 -1.51973982E+01  7.59869910E+00
  7.59869910E+00 -1.51973982E+01  7.59869910E+00  7.59869910E+00 -1.51973982E+01
  7.59869910E+00  7.59869910E+00 -1.51973982E+01  7.59869910E+00  7.59869910E+00
 -1.51973982E+01  7.59869910E+00  7.59869910E+00 -1.51973982E+01  7.59869910E+00
  7.59869910E+00 -1.51973982E+01  7.59869910E+00  7.59869910E+00 -1.51973982E+01
  7.59869910E+00  7.59869910E+00 -1.51973982E+01  7.59869910E+00  7.59869910E+00
 -1.51973982E+01  7.59869910E+00  7.59869910E+00 -1.51973982E+01  7.59869910E+00
  7.59869910E+00 -1.51973982E+01  7.59869910E+00  7.59869910E+00 -1.51973982E+01
  7.59869910E+00  7.59869910E+00 -1.51973982E+01  7.59869910E+00  7.59869910E+00
 -1.51973982E+01  7.59869910E+00  7.59869910E+00 -1.51973982E+01  7.59869910E+00
  7.59869910E+00 -1.51973982E+01  7.59869910E+00  7.59869910E+00 -1.51973982E+01
  7.59869910E+00  7.59869910E+00 -1.51973982E+01  7.59869910E+00  7.59869910E+00
 -1.51973982E+01  7.59869910E+00  7.59869910E+00 -1.51973982E+01  7.59869910E+00
  7.59869910E+00 -1.51973982E+01  7.59869910E+00  7.59869910E+00 -1.51973982E+01
  7.59869910E+00  7.59869910E+00 -1.51973982E+01  7.59869910E+00  7.59869910E+00
 -1.51973982E+01  7.59869910E+00  7.59869910E+00 -1.51973982E+01  7.59869910E+00
  7.59869910E+00 -1.51973982E+01  7.59869910E+00  7.59869910E+00 -1.51973982E+01
  7.59869910E+00  7.59869910E+00 -1.51973982E+01  7.59869910E+00  7.59869910E+00
 -1.51973982E+01  7.59869910E+00  7.59869910E+00 -1.51973982E+01  7.59869910E+00
  7.59869910E+00 -1.51973982E+01  7.59869910E+00  7.59869910E+00 -1.51973982E+01
  7.59869910E+00  7.59869910E+00 -1.51973982E+01  7.59869910E+00  7.59869910E+00
 -1.51973982E+01  7.59869910E+00  7.59869910E+00 -1.51973982E+01  7.59869910E+00
  7.59869910E+00 -1.51973982E+01  7.59869910E+00  7.59869910E+00 -1.51973982E+01
  7.59869910E+00  7.59869910E+00 -1.51973982E+01  7.59869910E+00  7.59869910E+00
 -1.51973982E+01  7.59869910E+00  7.59869910E+00 -1.51973982E+01  7.59869910E+00
  7.59869910E+00 -1.51973982E+01  7.59869910E+00  7.59869910E+00 -1.51973982E+01
  7.59869910E+00  7.59869910E+00 -1.51973982E+01  7.59869910E+00  7.59869910E+00
 -1.51973982E+01  7.59869910E+00  7.59869910E+00 -1.51973982E+01  7.59869910E+00
  7.59869910E+00 -1.51973982E+01  7.59869910E+00  7.59869910E+00 -1.51973982E+01
  7.59869910E+00  7.59869910E+00 -1.51973982E+01  7.59869910E+00  7.59869910E+00
 -1.51973982E+01  7.59869910E+00  7.59869910E+00 -1.51973982E+01  7.59869910E+00
  7.59869910E+00 -1.51973982E+01  7.59869910E+00  7.59869910E+00 -1.51973982E+01
  7.59869910E+00  7.59869910E+00 -1.51973982E+01  7.59869910E+00  7.59869910E+00
 -1.51973982E+01  7.59869910E+00  7.59869910E+00 -1.51973982E+01  7.59869910E+00
  7.59869910E+00 -1.51973982E+01  7.59869910E+00  7.59869910E+00 -1.51973982E+01
  7.59869910E+00  7.59869910E+00 -1.51973982E+01  7.59869910E+00  7.59869910E+00
 -1.51973982E+01  7.59869910E+00  7.59869910E+00 -1.51973982E+01  7.59869910E+00
  7.59869910E+00 -1.51973982E+01  7.59869910E+00  7.59869910E+00 -1.51973982E+01
  7.59869910E+00  7.59869910E+00 -1.51973982E+01  7.59869910E+00  7.59869910E+00
 -1.51973982E+01  7.59869910E+00  7.59869910E+00 -1.51973982E+01  7.59869910E+00
  7.59869910E+00 -1.51973982E+01  7.59869910E+00  7.59869910E+00 -1.51973982E+01
  7.59869910E+00  7.59869910E+00 -1.51973982E+01  7.59869910E+00  7.59869910E+00
 -1.51973982E+01  7.59869910E+00  7.59869910E+00 -1.51973982E+01  7.59869910E+00
  7.59869910E+00 -1.51973982E+01  7.59869910E+00  7.59869910E+00 -1.51973982E+01
  7.59869910E+00  7.59869910E+00 -1.51973982E+01  7.59869910E+00  7.59869910E+00
 -1.51973982E+01  7.59869910E+00  7.59869910E+00 -1.51973982E+01  7.59869910E+00
  7.59869910E+00 -1.51973982E+01  7.59869910E+00  7.59869910E+00 -1.51973982E+01
  7.59869910E+00  7.59869910E+00 -1.51973982E+01  7.59869910E+00  7.59869910E+00
 -1.51973982E+01  7.59869910E+00  7.59869910E+00 -1.51973982E+01  7.59869910E+00
  7.59869910E+00 -1.51973982E+01  7.59869910E+00  7.59869910E+00 -1.51973982E+01
  7.59869910E+00  7.59869910E+00 -1.51973982E+01  7.59869910E+00  7.59869910E+00
 -1.51973982E+01  7.59869910E+00  7.59869910E+00 -1.51973982E+01  7.59869910E+00
  7.59869910E+00 -1.51973982E+01  7.59869910E+00  7.59869910E+00 -1.51973982E+01
  7.59869910E+00  7.59869910E+00 -1.51973982E+01  7.59869910E+00  7.59869910E+00
 -1.51973982E+01  7.59869910E+00  7.59869910E+00 -1.51973982E+01  7.59869910E+00
  7.59869910E+00 -1.51973982E+01  7.59869910E+00  7.59869910E+00 -1.51973982E+01
  7.59869910E+00  7.59869910E+00 -1.51973982E+01  7.59869910E+00  7.59869910E+00
 -1.51973982E+01  7.59869910E+00  7.59869910E+00 -1.51973982E+01  7.59869910E+00
  7.59869910E+00 -1.51973982E+01  7.59869910E+00  7.59869910E+00 -1.51973982E+01
  7.59869910E+00  7.59869910E+00 -1.51973982E+01  7.59869910E+00  7.59869910E+00
 -1.51973982E+01  7.59869910E+00  7.59869910E+00 -1.51973982E+01  7.59869910E+00
  7.59869910E+00 -1.51973982E+01  7.59869910E+00  7.59869910E+00 -1.51973982E+01
  7.59869910E+00  7.59869910E+00 -1.51973982E+01  7.59869910E+00  7.59869910E+00
 -1.51973982E+01  7.59869910E+00  7.59869910E+00 -1.51973982E+01  7.59869910E+00
  7.59869910E+00 -1.51973982E+01  7.59869910E+00  7.59869910E+00 -1.51973982E+01
  7.59869910E+00  7.59869910E+00 -1.51973982E+01  7.59869910E+00  7.59869910E+00
 -1.51973982E+01  7.59869910E+00  7.59869910E+00 -1.51973982E+01  7.59869910E+00
  7.59869910E+00 -1.51973982E+01  7.59869910E+00  7.59869910E+00 -1.51973982E+01
  7.59869910E+00  7.59869910E+00 -1.51973982E+01  7.59869910E+00  7.59869910E+00
 -1.51973982E+01  7.59869910E+00  7.59869910E+00 -1.51973982E+01  7.59869910E+00
  7.59869910E+00 -1.51973982E+01  7.59869910E+00  7.59869910E+00 -1.51973982E+01
  7.59869910E+00  7.59869910E+00 -1.51973982E+01  7.59869910E+00  7.59869910E+00
 -1.51973982E+01  7.59869910E+00  7.59869910E+00 -1.51973982E+01  7.59869910E+00
  7.59869910E+00 -1.51973982E+01  7.59869910E+00  7.59869910E+00 -1.51973982E+01
  7.59869910E+00  7.59869910E+00 -1.51973982E+01  7.59869910E+00  7.59869910E+00
 -1.51973982E+01  7.59869910E+00  7.59869910E+00 -1.51973982E+01  7.59869910E+00
  7.59869910E+00 -1.51973982E+01  7.59869910E+00  7.59869910E+00 -1.51973982E+01
  7.59869910E+00  7.59869910E+00 -1.51973982E+01  7.59869910E+00  7.59869910E+00
 -1.51973982E+01  7.59869910E+00  7.59869910E+00 -1.51973982E+01  7.59869910E+00
  7.59869910E+00 -1.51973982E+01  7.59869910E+00  7.59869910E+00 -1.51973982E+01
  7.59869910E+00  7.59869910E+00 -1.51973982E+01  7.59869910E+00  7.59869910E+00
 -1.51973982E+01  7.59869910E+00  7.59869910E+00 -1.51973982E+01  7.59869910E+00
  7.59869910E+00 -1.51973982E+01  7.59869910E+00  7.59869910E+00 -1.51973982E+01
  7.59869910E+00  7.59869910E+00 -1.51973982E+01  7.59869910E+00  7.59869910E+00
 -1.51973982E+01  7.59869910E+00  7.59869910E+00 -1.51973982E+01  7.59869910E+00
  7.59869910E+00 -1.51973982E+01  7.59869910E+00  7.59869910E+00 -1.51973982E+01
  7.59869910E+00  7.59869910E+00 -1.51973982E+01  7.59869910E+00  7.59869910E+00
 -1.51973982E+01  7.59869910E+00  7.59869910E+00 -1.51973982E+01  7.59869910E+00
  7.59869910E+00 -1.51973982E+01  7.59869910E+00  7.59869910E+00 -1.51973982E+01
  7.59869910E+00  7.59869910E+00 -1.51973982E+01  7.59869910E+00  7.59869910E+00
 -1.51973982E+01  7.59869910E+00  7.59869910E+00 -1.51973982E+01  7.59869910E+00
  7.59869910E+00 -1.51973982E+01  7.59869910E+00  7.59869910E+00 -1.51973982E+01
  7.59869910E+00  7.59869910E+00 -1.51973982E+01  7.59869910E+00  7.59869910E+00
 -1.51973982E+01  7.59869910E+00  7.59869910E+00 -1.51973982E+01  7.59869910E+00
  7.59869910E+00 -1.51973982E+01  7.59869910E+00  7.59869910E+00 -1.51973982E+01
  7.59869910E+00  7.59869910E+00 -1.51973982E+01  7.59869910E+00  7.59869910E+00
 -1.51973982E+01  7.59869910E+00  7.59869910E+00 -1.51973982E+01  7.59869910E+00
  7.59869910E+00 -1.51973982E+01  7.59869910E+00  7.59869910E+00 -1.51973982E+01
  7.59869910E+00  7.59869910E+00 -1.51973982E+01  7.59869910E+00  7.59869910E+00
 -1.51973982E+01  7.59869910E+00  7.59869910E+00 -1.51973982E+01  7.59869910E+00
  7.59869910E+00 -1.51973982E+01  7.59869910E+00  7.59869910E+00 -1.51973982E+01
  7.59869910E+00  7.59869910E+00 -1.51973982E+01  7.59869910E+00  7.59869910E+00
 -1.51973982E+01  7.59869910E+00  7.59869910E+00 -1.51973982E+01  7.59869910E+00
  7.59869910E+00 -1.51973982E+01  7.59869910E+00  7.59869910E+00 -1.51973982E+01
  7.59869910E+00  7.59869910E+00 -1.51973982E+01  7.59869910E+00  7.59869910E+00
 -1.51973982E+01  7.59869910E+00  7.59869910E+00 -1.51973982E+01  7.59869910E+00
  7.59869910E+00 -1.51973982E+01  7.59869910E+00  7.59869910E+00 -1.51973982E+01
  7.59869910E+00  7.59869910E+00 -1.51973982E+01  7.59869910E+00  7.59869910E+00
 -1.51973982E+01  7.59869910E+00  7.59869910E+00 -1.51973982E+01  7.59869910E+00
  7.59869910E+00 -1.51973982E+01  7.59869910E+00  7.59869910E+00 -1.51973982E+01
  7.59869910E+00  7.59869910E+00 -1.51973982E+01  7.59869910E+00  7.59869910E+00
 -1.51973982E+01  7.59869910E+00  7.59869910E+00 -1.51973982E+01  7.59869910E+00
  7.59869910E+00 -1.51973982E+01  7.59869910E+00  7.59869910E+00 -1.51973982E+01
  7.59869910E+00  7.59869910E+00 -1.51973982E+01  7.59869910E+00  7.59869910E+00
 -1.51973982E+01  7.59869910E+00  7.59869910E+00 -1.51973982E+01  7.59869910E+00
  7.59869910E+00 -1.51973982E+01  7.59869910E+00  7.59869910E+00 -1.51973982E+01
  7.59869910E+00  7.59869910E+00 -1.51973982E+01  7.59869910E+00  7.59869910E+00
 -1.51973982E+01  7.59869910E+00  7.59869910E+00 -1.51973982E+01  7.59869910E+00
  7.59869910E+00 -1.51973982E+01  7.59869910E+00  7.59869910E+00 -1.51973982E+01
  7.59869910E+00  7.59869910E+00 -1.51973982E+01  7.59869910E+00  7.59869910E+00
 -1.51973982E+01  7.59869910E+00  7.59869910E+00 -1.51973982E+01  7.59869910E+00
  7.59869910E+00 -1.51973982E+01  7.59869910E+00  7.59869910E+00 -1.51973982E+01
  7.59869910E+00  7.59869910E+00 -1.51973982E+01  7.59869910E+00  7.59869910E+00
 -1.51973982E+01  7.59869910E+00  7.59869910E+00 -1.51973982E+01  7.59869910E+00
  7.59869910E+00 -1.51973982E+01  7.59869910E+00  7.59869910E+00 -1.51973982E+01
  7.59869910E+00  7.59869910E+00 -1.51973982E+01  7.59869910E+00  7.59869910E+00
 -1.51973982E+01  7.59869910E+00  7.59869910E+00 -1.51973982E+01  7.59869910E+00
  7.59869910E+00 -1.51973982E+01  7.59869910E+00  7.59869910E+00 -1.51973982E+01
  7.59869910E+00  7.59869910E+00 -1.51973982E+01  7.59869910E+00  7.59869910E+00
 -1.51973982E+01  7.59869910E+00  7.59869910E+00 -1.51973982E+01  7.59869910E+00
  7.59869910E+00 -1.51973982E+01  7.59869910E+00  7.59869910E+00 -1.51973982E+01
  7.59869910E+00  7.59869910E+00 -1.51973982E+01  7.59869910E+00  7.59869910E+00
 -1.51973982E+01  7.59869910E+00  7.59869910E+00 -1.51973982E+01  7.59869910E+00
  7.59869910E+00 -1.51973982E+01  7.59869910E+00  7.59869910E+00 -1.51973982E+01
  7.59869910E+00  7.59869910E+00 -1.51973982E+01  7.59869910E+00  7.59869910E+00
 -1.51973982E+01  7.59869910E+00  7.59869910E+00 -1.51973982E+01  7.59869910E+00
  7.59869910E+00 -1.51973982E+01  7.59869910E+00  7.59869910E+00 -1.51973982E+01
  7.59869910E+00  7.59869910E+00 -1.51973982E+01  7.59869910E+00  7.59869910E+00
 -1.51973982E+01  7.59869910E+00  7.59869910E+00 -1.51973982E+01  7.59869910E+00
  7.59869910E+00 -1.51973982E+01  7.59869910E+00  7.59869910E+00 -1.51973982E+01
  7.59869910E+00  7.59869910E+00 -1.51973982E+01  7.59869910E+00  7.59869910E+00
 -1.51973982E+01  7.59869910E+00  7.59869910E+00 -1.51973982E+01  7.59869910E+00
  7.59869910E+00 -1.51973982E+01  7.59869910E+00  7.59869910E+00 -1.51973982E+01
  7.59869910E+00  7.59869910E+00 -1.51973982E+01  7.59869910E+00  7.59869910E+00
 -1.51973982E+01  7.59869910E+00  7.59869910E+00 -1.51973982E+01  7.59869910E+00
  7.59869910E+00 -1.51973982E+01  7.59869910E+00  7.59869910E+00 -1.51973982E+01
  7.59869910E+00  7.59869910E+00 -1.51973982E+01  7.59869910E+00  7.59869910E+00
 -1.51973982E+01  7.59869910E+00  7.59869910E+00 -1.51973982E+01  7.59869910E+00
  7.59869910E+00 -1.51973982E+01  7.59869910E+00  7.59869910E+00 -1.51973982E+01
  7.59869910E+00  7.59869910E+00 -1.51973982E+01  7.59869910E+00  7.59869910E+00
 -1.51973982E+01  7.59869910E+00  7.59869910E+00 -1.51973982E+01  7.59869910E+00
  7.59869910E+00 -1.51973982E+01  7.59869910E+00  7.59869910E+00 -1.51973982E+01
  7.59869910E+00  7.59869910E+00 -1.51973982E+01  7.59869910E+00  7.59869910E+00
 -1.51973982E+01  7.59869910E+00  7.59869910E+00 -1.51973982E+01  7.59869910E+00
  7.59869910E+00 -1.51973982E+01  7.59869910E+00  7.59869910E+00 -1.51973982E+01
  7.59869910E+00  7.59869910E+00 -1.51973982E+01  7.59869910E+00  7.59869910E+00
 -1.51973982E+01  7.59869910E+00  7.59869910E+00 -1.51973982E+01  7.59869910E+00
  7.59869910E+00 -1.51973982E+01  7.59869910E+00  7.59869910E+00 -1.51973982E+01
  7.59869910E+00  7.59869910E+00 -1.51973982E+01  7.59869910E+00  7.59869910E+00
 -1.51973982E+01  7.59869910E+00  7.59869910E+00 -1.51973982E+01  7.59869910E+00
  7.59869910E+00 -1.51973982E+01  7.59869910E+00  7.59869910E+00 -1.51973982E+01
  7.59869910E+00  7.59869910E+00 -1.51973982E+01  7.59869910E+00  7.59869910E+00
 -1.51973982E+01  7.59869910E+00  7.59869910E+00 -1.51973982E+01  7.59869910E+00
  7.59869910E+00 -1.51973982E+01  7.59869910E+00  7.59869910E+00 -1.51973982E+01
  7.59869910E+00  7.59869910E+00 -1.51973982E+01  7.59869910E+00  7.59869910E+00
 -1.51973982E+01  7.59869910E+00  7.59869910E+00 -1.51973982E+01  7.59869910E+00
  7.59869910E+00 -1.51973982E+01  7.59869910E+00  7.59869910E+00 -1.51973982E+01
  7.59869910E+00  7.59869910E+00 -1.51973982E+01  7.59869910E+00  7.59869910E+00
 -1.51973982E+01  7.59869910E+00  7.59869910E+00 -1.51973982E+01  7.59869910E+00
  7.59869910E+00 -1.51973982E+01  7.59869910E+00  7.59869910E+00 -1.51973982E+01
  7.59869910E+00  7.59869910E+00 -1.51973982E+01  7.59869910E+00  7.59869910E+00
 -1.51973982E+01  7.59869910E+00  7.59869910E+00 -1.51973982E+01  7.59869910E+00
  7.59869910E+00 -1.51973982E+01  7.59869910E+00  7.59869910E+00 -1.51973982E+01
  7.59869910E+00  7.59869910E+00 -1.51973982E+01  7.59869910E+00  7.59869910E+00
 -1.51973982E+01  7.59869910E+00  7.59869910E+00 -1.51973982E+01  7.59869910E+00
  7.59869910E+00 -1.51973982E+01  7.59869910E+00  7.59869910E+00 -1.51973982E+01
  7.59869910E+00  7.59869910E+00 -1.51973982E+01  7.59869910E+00  7.59869910E+00
 -1.51973982E+01  7.59869910E+00  7.59869910E+00 -1.51973982E+01  7.59869910E+00
  7.59869910E+00 -1.51973982E+01  7.59869910E+00  7.59869910E+00 -1.51973982E+01
  7.59869910E+00  7.59869910E+00 -1.51973982E+01  7.59869910E+00  7.59869910E+00
 -1.51973982E+01  7.59869910E+00  7.59869910E+00 -1.51973982E+01  7.59869910E+00
  7.59869910E+00 -1.51973982E+01  7.59869910E+00  7.59869910E+00 -1.51973982E+01
  7.59869910E+00  7.59869910E+00 -1.51973982E+01  7.59869910E+00  7.59869910E+00
 -1.51973982E+01  7.59869910E+00  7.59869910E+00 -1.51973982E+01  7.59869910E+00
  7.59869910E+00 -1.51973982E+01  7.59869910E+00  7.59869910E+00 -1.51973982E+01
  7.59869910E+00  7.59869910E+00 -1.51973982E+01  7.59869910E+00  7.59869910E+00
 -1.51973982E+01  7.59869910E+00  7.59869910E+00 -1.51973982E+01  7.59869910E+00
  7.59869910E+00 -1.51973982E+01  7.59869910E+00  7.59869910E+00 -1.51973982E+01
  7.59869910E+00  7.59869910E+00 -1.51973982E+01  7.59869910E+00  7.59869910E+00
 -1.51973982E+01  7.59869910E+00  7.59869910E+00 -1.51973982E+01  7.59869910E+00
  7.59869910E+00 -1.51973982E+01  7.59869910E+00  7.59869910E+00 -1.51973982E+01
  7.59869910E+00  7.59869910E+00 -1.51973982E+01  7.59869910E+00  7.59869910E+00
 -1.51973982E+01  7.59869910E+00  7.59869910E+00 -1.51973982E+01  7.59869910E+00
  7.59869910E+00 -1.51973982E+01  7.59869910E+00  7.59869910E+00 -1.51973982E+01
  7.59869910E+00  7.59869910E+00 -1.51973982E+01  7.59869910E+00  7.59869910E+00
 -1.51973982E+01  7.59869910E+00  7.59869910E+00 -1.51973982E+01  7.59869910E+00
  7.59869910E+00 -1.51973982E+01  7.59869910E+00  7.59869910E+00 -1.51973982E+01
  7.59869910E+00  7.59869910E+00 -1.51973982E+01  7.59869910E+00  7.59869910E+00
 -1.51973982E+01  7.59869910E+00  7.59869910E+00 -1.51973982E+01  7.59869910E+00
  7.59869910E+00 -1.51973982E+01  7.59869910E+00  7.59869910E+00 -1.51973982E+01
  7.59869910E+00  7.59869910E+00 -1.51973982E+01  7.59869910E+00  7.59869910E+00
 -1.51973982E+01  7.59869910E+00  7.59869910E+00 -1.51973982E+01  7.59869910E+00
  7.59869910E+00 -1.51973982E+01  7.59869910E+00  7.59869910E+00 -1.51973982E+01
  7.59869910E+00  7.59869910E+00 -1.51973982E+01  7.59869910E+00  7.59869910E+00
 -1.51973982E+01  7.59869910E+00  7.59869910E+00 -1.51973982E+01  7.59869910E+00
  7.59869910E+00 -1.51973982E+01  7.59869910E+00  7.59869910E+00 -1.51973982E+01
  7.59869910E+00  7.59869910E+00 -1.51973982E+01  7.59869910E+00  7.59869910E+00
 -1.51973982E+01  7.59869910E+00  7.59869910E+00 -1.51973982E+01  7.59869910E+00
  7.59869910E+00 -1.51973982E+01  7.59869910E+00  7.59869910E+00 -1.51973982E+01
  7.59869910E+00  7.59869910E+00 -1.51973982E+01  7.59869910E+00  7.59869910E+00
 -1.51973982E+01  7.59869910E+00  7.59869910E+00 -1.51973982E+01  7.59869910E+00
  7.59869910E+00 -1.51973982E+01  7.59869910E+00  7.59869910E+00 -1.51973982E+01
  7.59869910E+00  7.59869910E+00 -1.51973982E+01  7.59869910E+00  7.59869910E+00
 -1.51973982E+01  7.59869910E+00  7.59869910E+00 -1.51973982E+01  7.59869910E+00
  7.59869910E+00 -1.51973982E+01  7.59869910E+00  7.59869910E+00 -1.51973982E+01
  7.59869910E+00  7.59869910E+00 -1.51973982E+01  7.59869910E+00  7.59869910E+00
 -1.51973982E+01  7.59869910E+00  7.59869910E+00 -1.51973982E+01  7.59869910E+00
  7.59869910E+00 -1.51973982E+01  7.59869910E+00  7.59869910E+00 -1.51973982E+01
  7.59869910E+00  7.59869910E+00 -1.51973982E+01  7.59869910E+00  7.59869910E+00
 -1.51973982E+01  7.59869910E+00  7.59869910E+00 -1.51973982E+01  7.59869910E+00
  7.59869910E+00 -1.51973982E+01  7.59869910E+00  7.59869910E+00 -1.51973982E+01
  7.59869910E+00  7.59869910E+00 -1.51973982E+01  7.59869910E+00  7.59869910E+00
 -1.51973982E+01  7.59869910E+00  7.59869910E+00 -1.51973982E+01  7.59869910E+00
  7.59869910E+00 -1.51973982E+01  7.59869910E+00  7.59869910E+00 -1.51973982E+01
  7.59869910E+00  7.59869910E+00 -1.51973982E+01  7.59869910E+00  7.59869910E+00
 -1.51973982E+01  7.59869910E+00  7.59869910E+00 -1.51973982E+01  7.59869910E+00
  7.59869910E+00 -1.51973982E+01  7.59869910E+00  7.59869910E+00 -1.51973982E+01
  7.59869910E+00  7.59869910E+00 -1.51973982E+01  7.59869910E+00  7.59869910E+00
 -1.51973982E+01  7.59869910E+00  7.59869910E+00 -1.51973982E+01  7.59869910E+00
  7.59869910E+00 -1.51973982E+01  7.59869910E+00  7.59869910E+00 -1.51973982E+01
  7.59869910E+00  7.59869910E+00 -1.51973982E+01  7.59869910E+00  7.59869910E+00
 -1.51973982E+01  7.59869910E+00  7.59869910E+00 -1.51973982E+01  7.59869910E+00
  7.59869910E+00 -1.51973982E+01  7.59869910E+00  7.59869910E+00 -1.51973982E+01
  7.59869910E+00  7.59869910E+00 -1.51973982E+01  7.59869910E+00  7.59869910E+00
 -1.51973982E+01  7.59869910E+00  7.59869910E+00 -1.51973982E+01  7.59869910E+00
  7.59869910E+00 -1.51973982E+01  7.59869910E+00  7.59869910E+00 -1.51973982E+01
  7.59869910E+00  7.59869910E+00 -1.51973982E+01  7.59869910E+00  7.59869910E+00
 -1.51973982E+01  7.59869910E+00  7.59869910E+00 -1.51973982E+01  7.59869910E+00
  7.59869910E+00 -1.51973982E+01  7.59869910E+00  7.59869910E+00 -1.51973982E+01
  7.59869910E+00  7.59869910E+00 -1.51973982E+01  7.59869910E+00  7.59869910E+00
 -1.51973982E+01  7.59869910E+00  7.59869910E+00 -1.51973982E+01  7.59869910E+00
  7.59869910E+00 -1.51973982E+01  7.59869910E+00  7.59869910E+00 -1.51973982E+01
  7.59869910E+00  7.59869910E+00 -1.51973982E+01  7.59869910E+00  7.59869910E+00
 -1.51973982E+01  7.59869910E+00  7.59869910E+00 -1.51973982E+01  7.59869910E+00
  7.59869910E+00 -1.51973982E+01  7.59869910E+00  7.59869910E+00 -1.51973982E+01
  7.59869910E+00  7.59869910E+00 -1.51973982E+01  7.59869910E+00  7.59869910E+00
 -1.51973982E+01  7.59869910E+00  7.59869910E+00 -1.51973982E+01  7.59869910E+00
  7.59869910E+00 -1.51973982E+01  7.59869910E+00  7.59869910E+00 -1.51973982E+01
  7.59869910E+00  7.59869910E+00 -1.51973982E+01  7.59869910E+00  7.59869910E+00
 -1.51973982E+01  7.59869910E+00  7.59869910E+00 -1.51973982E+01  7.59869910E+00
  7.59869910E+00 -1.51973982E+01  7.59869910E+00  7.59869910E+00 -1.51973982E+01
  7.59869910E+00  7.59869910E+00 -1.51973982E+01  7.59869910E+00  7.59869910E+00
 -1.51973982E+01  7.59869910E+00  7.59869910E+00 -1.51973982E+01  7.59869910E+00
  7.59869910E+00 -1.51973982E+01  7.59869910E+00  7.59869910E+00 -1.51973982E+01
  7.59869910E+00  7.59869910E+00 -1.51973982E+01  7.59869910E+00  7.59869910E+00
 -1.51973982E+01  7.59869910E+00  7.59869910E+00 -1.51973982E+01  7.59869910E+00
  7.59869910E+00 -1.51973982E+01  7.59869910E+00  7.59869910E+00 -1.51973982E+01
  7.59869910E+00  7.59869910E+00 -1.51973982E+01  7.59869910E+00  7.59869910E+00
 -1.51973982E+01  7.59869910E+00  7.59869910E+00 -1.51973982E+01  7.59869910E+00
  7.59869910E+00 -1.51973982E+01  7.59869910E+00  7.59869910E+00 -1.51973982E+01
  7.59869910E+00  7.59869910E+00 -1.51973982E+01  7.59869910E+00  7.59869910E+00
 -1.51973982E+01  7.59869910E+00  7.59869910E+00 -1.51973982E+01  7.59869910E+00
  7.59869910E+00 -1.51973982E+01  7.59869910E+00  7.59869910E+00 -1.51973982E+01
  7.59869910E+00  7.59869910E+00 -1.51973982E+01  7.59869910E+00  7.59869910E+00
 -1.51973982E+01  7.59869910E+00  7.59869910E+00 -1.51973982E+01  7.59869910E+00
  7.59869910E+00 -1.51973982E+01  7.59869910E+00  7.59869910E+00 -1.51973982E+01
  7.59869910E+00  7.59869910E+00 -1.51973982E+01  7.59869910E+00  7.59869910E+00
 -1.51973982E+01  7.59869910E+00  7.59869910E+00 -1.51973982E+01  7.59869910E+00
  7.59869910E+00 -1.51973982E+01  7.59869910E+00  7.59869910E+00 -1.51973982E+01
  7.59869910E+00  7.59869910E+00 -1.51973982E+01  7.59869910E+00  7.59869910E+00
 -1.51973982E+01  7.59869910E+00  7.59869910E+00 -1.51973982E+01  7.59869910E+00
  7.59869910E+00 -1.51973982E+01  7.59869910E+00  7.59869910E+00 -1.51973982E+01
  7.59869910E+00  7.59869910E+00 -1.51973982E+01  7.59869910E+00  7.59869910E+00
 -1.51973982E+01  7.59869910E+00  7.59869910E+00 -1.51973982E+01  7.59869910E+00
  7.59869910E+00 -1.51973982E+01  7.59869910E+00  7.59869910E+00 -1.51973982E+01
  7.59869910E+00  7.59869910E+00 -1.51973982E+01  7.59869910E+00  7.59869910E+00
 -1.51973982E+01  7.59869910E+00  7.59869910E+00 -1.51973982E+01  7.59869910E+00
  7.59869910E+00 -1.51973982E+01  7.59869910E+00  7.59869910E+00 -1.51973982E+01
  7.59869910E+00  7.59869910E+00 -1.51973982E+01  7.59869910E+00  7.59869910E+00
 -1.51973982E+01  7.59869910E+00  7.59869910E+00 -1.51973982E+01  7.59869910E+00
  7.59869910E+00 -1.51973982E+01  7.59869910E+00  7.59869910E+00 -1.51973982E+01
  7.59869910E+00  7.59869910E+00 -1.51973982E+01  7.59869910E+00  7.59869910E+00
 -1.51973982E+01  7.59869910E+00  7.59869910E+00 -1.51973982E+01  7.59869910E+00
  7.59869910E+00 -1.51973982E+01  7.59869910E+00  7.59869910E+00 -1.51973982E+01
  7.59869910E+00  7.59869910E+00 -1.51973982E+01  7.59869910E+00  7.59869910E+00
 -1.51973982E+01  7.59869910E+00  7.59869910E+00 -1.51973982E+01  7.59869910E+00
  7.59869910E+00 -1.51973982E+01  7.59869910E+00  7.59869910E+00 -1.51973982E+01
  7.59869910E+00  7.59869910E+00 -1.51973982E+01  7.59869910E+00  7.59869910E+00
 -1.51973982E+01  7.59869910E+00  7.59869910E+00 -1.51973982E+01  7.59869910E+00
  7.59869910E+00 -1.51973982E+01  7.59869910E+00  7.59869910E+00 -1.51973982E+01
  7.59869910E+00  7.59869910E+00 -1.51973982E+01  7.59869910E+00  7.59869910E+00
 -1.51973982E+01  7.59869910E+00  7.59869910E+00 -1.51973982E+01  7.59869910E+00
  7.59869910E+00 -1.51973982E+01  7.59869910E+00  7.59869910E+00 -1.51973982E+01
  7.59869910E+00  7.59869910E+00 -1.51973982E+01  7.59869910E+00  7.59869910E+00
 -1.51973982E+01  7.59869910E+00  7.59869910E+00 -1.51973982E+01  7.59869910E+00
  7.59869910E+00 -1.51973982E+01  7.59869910E+00  7.59869910E+00 -1.51973982E+01
  7.59869910E+00  7.59869910E+00 -1.51973982E+01  7.59869910E+00  7.59869910E+00
 -1.51973982E+01  7.59869910E+00  7.59869910E+00 -1.51973982E+01  7.59869910E+00
  7.59869910E+00 -1.51973982E+01  7.59869910E+00  7.59869910E+00 -1.51973982E+01
  7.59869910E+00  7.59869910E+00 -1.51973982E+01  7.59869910E+00  7.59869910E+00
 -1.51973982E+01  7.59869910E+00  7.59869910E+00 -1.51973982E+01  7.59869910E+00
  7.59869910E+00 -1.51973982E+01  7.59869910E+00  7.59869910E+00 -1.51973982E+01
  7.59869910E+00  7.59869910E+00 -1.51973982E+01  7.59869910E+00  7.59869910E+00
 -1.51973982E+01  7.59869910E+00  7.59869910E+00 -1.51973982E+01  7.59869910E+00
  7.59869910E+00 -1.51973982E+01  7.59869910E+00  7.59869910E+00 -1.51973982E+01
  7.59869910E+00  7.59869910E+00 -1.51973982E+01  7.59869910E+00  7.59869910E+00
 -1.51973982E+01  7.59869910E+00  7.59869910E+00 -1.51973982E+01  7.59869910E+00
  7.59869910E+00 -1.51973982E+01  7.59869910E+00  7.59869910E+00 -1.51973982E+01
  7.59869910E+00  7.59869910E+00 -1.51973982E+01  7.59869910E+00  7.59869910E+00
 -1.51973982E+01  7.59869910E+00  7.59869910E+00 -1.51973982E+01  7.59869910E+00
  7.59869910E+00 -1.51973982E+01  7.59869910E+00  7.59869910E+00 -1.51973982E+01
  7.59869910E+00  7.59869910E+00 -1.51973982E+01  7.59869910E+00  7.59869910E+00
 -1.51973982E+01  7.59869910E+00  7.59869910E+00 -1.51973982E+01  7.59869910E+00
  7.59869910E+00 -1.51973982E+01  7.59869910E+00  7.59869910E+00 -1.51973982E+01
  7.59869910E+00  7.59869910E+00 -1.51973982E+01  7.59869910E+00  7.59869910E+00
 -1.51973982E+01  7.59869910E+00  7.59869910E+00 -1.51973982E+01  7.59869910E+00
  7.59869910E+00 -1.51973982E+01  7.59869910E+00  7.59869910E+00 -1.51973982E+01
  7.59869910E+00  7.59869910E+00 -1.51973982E+01  7.59869910E+00  7.59869910E+00
 -1.51973982E+01  7.59869910E+00  7.59869910E+00 -1.51973982E+01  7.59869910E+00
  7.59869910E+00 -1.51973982E+01  7.59869910E+00  7.59869910E+00 -1.51973982E+01
  7.59869910E+00  7.59869910E+00 -1.51973982E+01  7.59869910E+00  7.59869910E+00
 -1.51973982E+01  7.59869910E+00  7.59869910E+00 -1.51973982E+01  7.59869910E+00
  7.59869910E+00 -1.51973982E+01  7.59869910E+00  7.59869910E+00 -1.51973982E+01
  7.59869910E+00  7.59869910E+00 -1.51973982E+01  7.59869910E+00  7.59869910E+00
 -1.51973982E+01  7.59869910E+00  7.59869910E+00 -1.51973982E+01  7.59869910E+00
  7.59869910E+00 -1.51973982E+01  7.59869910E+00  7.59869910E+00 -1.51973982E+01
  7.59869910E+00  7.59869910E+00 -1.51973982E+01  7.59869910E+00  7.59869910E+00
 -1.51973982E+01  7.59869910E+00  7.59869910E+00 -1.51973982E+01  7.59869910E+00
  7.59869910E+00 -1.51973982E+01  7.59869910E+00  7.59869910E+00 -1.51973982E+01
  7.59869910E+00  7.59869910E+00 -1.51973982E+01  7.59869910E+00  7.59869910E+00
 -1.51973982E+01  7.59869910E+00  7.59869910E+00 -1.51973982E+01  7.59869910E+00
  7.59869910E+00 -1.51973982E+01  7.59869910E+00  7.59869910E+00 -1.51973982E+01
  7.59869910E+00  7.59869910E+00 -1.51973982E+01  7.59869910E+00  7.59869910E+00
 -1.51973982E+01  7.59869910E+00  7.59869910E+00 -1.51973982E+01  7.59869910E+00
  7.59869910E+00 -1.51973982E+01  7.59869910E+00  7.59869910E+00 -1.51973982E+01
  7.59869910E+00  7.59869910E+00 -1.51973982E+01  7.59869910E+00  7.59869910E+00
 -1.51973982E+01  7.59869910E+00  7.59869910E+00 -1.51973982E+01  7.59869910E+00
  7.59869910E+00 -1.51973982E+01  7.59869910E+00  7.59869910E+00 -1.51973982E+01
  7.59869910E+00  7.59869910E+00 -1.51973982E+01  7.59869910E+00  7.59869910E+00
 -1.51973982E+01  7.59869910E+00  7.59869910E+00 -1.51973982E+01  7.59869910E+00
  7.59869910E+00 -1.51973982E+01  7.59869910E+00  7.59869910E+00 -1.51973982E+01
  7.59869910E+00  7.59869910E+00 -1.51973982E+01  7.59869910E+00  7.59869910E+00
 -1.51973982E+01  7.59869910E+00  7.59869910E+00 -1.51973982E+01  7.59869910E+00
  7.59869910E+00 -1.51973982E+01  7.59869910E+00  7.59869910E+00 -1.51973982E+01
  7.59869910E+00  7.59869910E+00 -1.51973982E+01  7.59869910E+00  7.59869910E+00
 -1.51973982E+01  7.59869910E+00  7.59869910E+00 -1.51973982E+01  7.59869910E+00
  7.59869910E+00 -1.51973982E+01  7.59869910E+00  7.59869910E+00 -1.51973982E+01
  7.59869910E+00  7.59869910E+00 -1.51973982E+01  7.59869910E+00  7.59869910E+00
 -1.51973982E+01  7.59869910E+00  7.59869910E+00 -1.51973982E+01  7.59869910E+00
  7.59869910E+00 -1.51973982E+01  7.59869910E+00  7.59869910E+00 -1.51973982E+01
  7.59869910E+00  7.59869910E+00 -1.51973982E+01  7.59869910E+00  7.59869910E+00
 -1.51973982E+01  7.59869910E+00  7.59869910E+00 -1.51973982E+01  7.59869910E+00
  7.59869910E+00 -1.51973982E+01  7.59869910E+00  7.59869910E+00 -1.51973982E+01
  7.59869910E+00  7.59869910E+00 -1.51973982E+01  7.59869910E+00  7.59869910E+00
 -1.51973982E+01  7.59869910E+00  7.59869910E+00 -1.51973982E+01  7.59869910E+00
  7.59869910E+00 -1.51973982E+01  7.59869910E+00  7.59869910E+00 -1.51973982E+01
  7.59869910E+00  7.59869910E+00 -1.51973982E+01  7.59869910E+00  7.59869910E+00
 -1.51973982E+01  7.59869910E+00  7.59869910E+00 -1.51973982E+01  7.59869910E+00
  7.59869910E+00 -1.51973982E+01  7.59869910E+00  7.59869910E+00 -1.51973982E+01
  7.59869910E+00  7.59869910E+00 -1.51973982E+01  7.59869910E+00  7.59869910E+00
 -1.51973982E+01  7.59869910E+00  7.59869910E+00 -1.51973982E+01  7.59869910E+00
  7.59869910E+00 -1.51973982E+01  7.59869910E+00  7.59869910E+00 -1.51973982E+01
  7.59869910E+00  7.59869910E+00 -1.51973982E+01  7.59869910E+00  7.59869910E+00
 -1.51973982E+01  7.59869910E+00  7.59869910E+00 -1.51973982E+01  7.59869910E+00
  7.59869910E+00 -1.51973982E+01  7.59869910E+00  7.59869910E+00 -1.51973982E+01
  7.59869910E+00  7.59869910E+00 -1.51973982E+01  7.59869910E+00  7.59869910E+00
 -1.51973982E+01  7.59869910E+00  7.59869910E+00 -1.51973982E+01  7.59869910E+00
  7.59869910E+00 -1.51973982E+01  7.59869910E+00  7.59869910E+00 -1.51973982E+01
  7.59869910E+00  7.59869910E+00 -1.51973982E+01  7.59869910E+00  7.59869910E+00
 -1.51973982E+01  7.59869910E+00  7.59869910E+00 -1.51973982E+01  7.59869910E+00
  7.59869910E+00 -1.51973982E+01  7.59869910E+00  7.59869910E+00 -1.51973982E+01
  7.59869910E+00  7.59869910E+00 -1.51973982E+01  7.59869910E+00  7.59869910E+00
 -1.51973982E+01  7.59869910E+00  7.59869910E+00 -1.51973982E+01  7.59869910E+00
  7.59869910E+00 -1.51973982E+01  7.59869910E+00  7.59869910E+00 -1.51973982E+01
  7.59869910E+00  7.59869910E+00 -1.51973982E+01  7.59869910E+00  7.59869910E+00
 -1.51973982E+01  7.59869910E+00  7.59869910E+00 -1.51973982E+01  7.59869910E+00
  7.59869910E+00 -1.51973982E+01  7.59869910E+00  7.59869910E+00 -1.51973982E+01
  7.59869910E+00  7.59869910E+00 -1.51973982E+01  7.59869910E+00  7.59869910E+00
 -1.51973982E+01  7.59869910E+00  7.59869910E+00 -1.51973982E+01  7.59869910E+00
  7.59869910E+00 -1.51973982E+01  7.59869910E+00  7.59869910E+00 -1.51973982E+01
  7.59869910E+00  7.59869910E+00 -1.51973982E+01  7.59869910E+00  7.59869910E+00
 -1.51973982E+01  7.59869910E+00  7.59869910E+00 -1.51973982E+01  7.59869910E+00
  7.59869910E+00 -1.51973982E+01  7.59869910E+00  7.59869910E+00 -1.51973982E+01
  7.59869910E+00  7.59869910E+00 -1.51973982E+01  7.59869910E+00  7.59869910E+00
 -1.51973982E+01  7.59869910E+00  7.59869910E+00 -1.51973982E+01  7.59869910E+00
  7.59869910E+00 -1.51973982E+01  7.59869910E+00  7.59869910E+00 -1.51973982E+01
  7.59869910E+00  7.59869910E+00 -1.51973982E+01  7.59869910E+00  7.59869910E+00
 -1.51973982E+01  7.59869910E+00  7.59869910E+00 -1.51973982E+01  7.59869910E+00
  7.59869910E+00 -1.51973982E+01  7.59869910E+00  7.59869910E+00 -1.51973982E+01
  7.59869910E+00  7.59869910E+00 -1.51973982E+01  7.59869910E+00  7.59869910E+00
 -1.51973982E+01  7.59869910E+00  7.59869910E+00 -1.51973982E+01  7.59869910E+00
  7.59869910E+00 -1.51973982E+01  7.59869910E+00  7.59869910E+00 -1.51973982E+01
  7.59869910E+00  7.59869910E+00 -1.51973982E+01  7.59869910E+00  7.59869910E+00
 -1.51973982E+01  7.59869910E+00  7.59869910E+00 -1.51973982E+01  7.59869910E+00
  7.59869910E+00 -1.51973982E+01  7.59869910E+00  7.59869910E+00 -1.51973982E+01
  7.59869910E+00  7.59869910E+00 -1.51973982E+01  7.59869910E+00  7.59869910E+00
 -1.51973982E+01  7.59869910E+00  7.59869910E+00 -1.51973982E+01  7.59869910E+00
  7.59869910E+00 -1.51973982E+01  7.59869910E+00  7.59869910E+00 -1.51973982E+01
  7.59869910E+00  7.59869910E+00 -1.51973982E+01  7.59869910E+00  7.59869910E+00
 -1.51973982E+01  7.59869910E+00  7.59869910E+00 -1.51973982E+01  7.59869910E+00
  7.59869910E+00 -1.51973982E+01  7.59869910E+00  7.59869910E+00 -1.51973982E+01
  7.59869910E+00  7.59869910E+00 -1.51973982E+01  7.59869910E+00  7.59869910E+00
 -1.51973982E+01  7.59869910E+00  7.59869910E+00 -1.51973982E+01  7.59869910E+00
  7.59869910E+00 -1.51973982E+01  7.59869910E+00  7.59869910E+00 -1.51973982E+01
  7.59869910E+00  7.59869910E+00 -1.51973982E+01  7.59869910E+00  7.59869910E+00
 -1.51973982E+01  7.59869910E+00  7.59869910E+00 -1.51973982E+01  7.59869910E+00
  7.59869910E+00 -1.51973982E+01  7.59869910E+00  7.59869910E+00 -1.51973982E+01
  7.59869910E+00  7.59869910E+00 -1.51973982E+01  7.59869910E+00  7.59869910E+00
 -1.51973982E+01  7.59869910E+00  7.59869910E+00 -1.51973982E+01  7.59869910E+00
  7.59869910E+00 -1.51973982E+01  7.59869910E+00  7.59869910E+00 -1.51973982E+01
  7.59869910E+00  7.59869910E+00 -1.51973982E+01  7.59869910E+00  7.59869910E+00
 -1.51973982E+01  7.59869910E+00  7.59869910E+00 -1.51973982E+01  7.59869910E+00
  7.59869910E+00 -1.51973982E+01  7.59869910E+00  7.59869910E+00 -1.51973982E+01
  7.59869910E+00  7.59869910E+00 -1.51973982E+01  7.59869910E+00  7.59869910E+00
 -1.51973982E+01  7.59869910E+00  7.59869910E+00 -1.51973982E+01  7.59869910E+00
  7.59869910E+00 -1.51973982E+01  7.59869910E+00  7.59869910E+00 -1.51973982E+01
  7.59869910E+00  7.59869910E+00 -1.51973982E+01  7.59869910E+00  7.59869910E+00
 -1.51973982E+01  7.59869910E+00  7.59869910E+00 -1.51973982E+01  7.59869910E+00
  7.59869910E+00 -1.51973982E+01  7.59869910E+00  7.59869910E+00 -1.51973982E+01
  7.59869910E+00  7.59869910E+00 -1.51973982E+01  7.59869910E+00  7.59869910E+00
 -1.51973982E+01  7.59869910E+00  7.59869910E+00 -1.51973982E+01  7.59869910E+00
  7.59869910E+00 -1.51973982E+01  7.59869910E+00  7.59869910E+00 -1.51973982E+01
  7.59869910E+00  7.59869910E+00 -1.51973982E+01  7.59869910E+00  7.59869910E+00
 -1.51973982E+01  7.59869910E+00  7.59869910E+00 -1.51973982E+01  7.59869910E+00
  7.59869910E+00 -1.51973982E+01  7.59869910E+00  7.59869910E+00 -1.51973982E+01
  7.59869910E+00  7.59869910E+00 -1.51973982E+01  7.59869910E+00  7.59869910E+00
 -1.51973982E+01  7.59869910E+00  7.59869910E+00 -1.51973982E+01  7.59869910E+00
  7.59869910E+00 -1.51973982E+01  7.59869910E+00  7.59869910E+00 -1.51973982E+01
  7.59869910E+00  7.59869910E+00 -1.51973982E+01  7.59869910E+00  7.59869910E+00
 -1.51973982E+01  7.59869910E+00  7.59869910E+00 -1.51973982E+01  7.59869910E+00
  7.59869910E+00 -1.51973982E+01  7.59869910E+00  7.59869910E+00 -1.51973982E+01
  7.59869910E+00  7.59869910E+00 -1.51973982E+01  7.59869910E+00  7.59869910E+00
 -1.51973982E+01  7.59869910E+00  7.59869910E+00 -1.51973982E+01  7.59869910E+00
  7.59869910E+00 -1.51973982E+01  7.59869910E+00  7.59869910E+00 -1.51973982E+01
  7.59869910E+00  7.59869910E+00 -1.51973982E+01  7.59869910E+00  7.59869910E+00
 -1.51973982E+01  7.59869910E+00  7.59869910E+00 -1.51973982E+01  7.59869910E+00
  7.59869910E+00 -1.51973982E+01  7.59869910E+00  7.59869910E+00 -1.51973982E+01
  7.59869910E+00  7.59869910E+00 -1.51973982E+01  7.59869910E+00  7.59869910E+00
 -1.51973982E+01  7.59869910E+00  7.59869910E+00 -1.51973982E+01  7.59869910E+00
  7.59869910E+00 -1.51973982E+01  7.59869910E+00  7.59869910E+00 -1.51973982E+01
  7.59869910E+00  7.59869910E+00 -1.51973982E+01  7.59869910E+00  7.59869910E+00
 -1.51973982E+01  7.59869910E+00  7.59869910E+00 -1.51973982E+01  7.59869910E+00
  7.59869910E+00 -1.51973982E+01  7.59869910E+00  7.59869910E+00 -1.51973982E+01
  7.59869910E+00  7.59869910E+00 -1.51973982E+01  7.59869910E+00  7.59869910E+00
 -1.51973982E+01  7.59869910E+00  7.59869910E+00 -1.51973982E+01  7.59869910E+00
  7.59869910E+00 -1.51973982E+01  7.59869910E+00  7.59869910E+00 -1.51973982E+01
  7.59869910E+00  7.59869910E+00 -1.51973982E+01  7.59869910E+00  7.59869910E+00
 -1.51973982E+01  7.59869910E+00  7.59869910E+00 -1.51973982E+01  7.59869910E+00
  7.59869910E+00 -1.51973982E+01  7.59869910E+00  7.59869910E+00 -1.51973982E+01
  7.59869910E+00  7.59869910E+00 -1.51973982E+01  7.59869910E+00  7.59869910E+00
 -1.51973982E+01  7.59869910E+00  7.59869910E+00 -1.51973982E+01  7.59869910E+00
  7.59869910E+00 -1.51973982E+01  7.59869910E+00  7.59869910E+00 -1.51973982E+01
  7.59869910E+00  7.59869910E+00 -1.51973982E+01  7.59869910E+00  7.59869910E+00
 -1.51973982E+01  7.59869910E+00  7.59869910E+00 -1.51973982E+01  7.59869910E+00
  7.59869910E+00 -1.51973982E+01  7.59869910E+00  7.59869910E+00 -1.51973982E+01
  7.59869910E+00  7.59869910E+00 -1.51973982E+01  7.59869910E+00  7.59869910E+00
 -1.51973982E+01  7.59869910E+00  7.59869910E+00 -1.51973982E+01  7.59869910E+00
  7.59869910E+00 -1.51973982E+01  7.59869910E+00  7.59869910E+00 -1.51973982E+01
  7.59869910E+00  7.59869910E+00 -1.51973982E+01  7.59869910E+00  7.59869910E+00
 -1.51973982E+01  7.59869910E+00  7.59869910E+00 -1.51973982E+01  7.59869910E+00
  7.59869910E+00 -1.51973982E+01  7.59869910E+00  7.59869910E+00 -1.51973982E+01
  7.59869910E+00  7.59869910E+00 -1.51973982E+01  7.59869910E+00  7.59869910E+00
 -1.51973982E+01  7.59869910E+00  7.59869910E+00 -1.51973982E+01  7.59869910E+00
  7.59869910E+00 -1.51973982E+01  7.59869910E+00  7.59869910E+00 -1.51973982E+01
  7.59869910E+00  7.59869910E+00 -1.51973982E+01  7.59869910E+00  7.59869910E+00
 -1.51973982E+01  7.59869910E+00  7.59869910E+00 -1.51973982E+01  7.59869910E+00
  7.59869910E+00 -1.51973982E+01  7.59869910E+00  7.59869910E+00 -1.51973982E+01
  7.59869910E+00  7.59869910E+00 -1.51973982E+01  7.59869910E+00  7.59869910E+00
 -1.51973982E+01  7.59869910E+00  7.59869910E+00 -1.51973982E+01  7.59869910E+00
  7.59869910E+00 -1.51973982E+01  7.59869910E+00  7.59869910E+00 -1.51973982E+01
  7.59869910E+00  7.59869910E+00 -1.51973982E+01  7.59869910E+00  7.59869910E+00
 -1.51973982E+01  7.59869910E+00  7.59869910E+00 -1.51973982E+01  7.59869910E+00
  7.59869910E+00 -1.51973982E+01  7.59869910E+00  7.59869910E+00 -1.51973982E+01
  7.59869910E+00  7.59869910E+00 -1.51973982E+01  7.59869910E+00  7.59869910E+00
 -1.51973982E+01  7.59869910E+00  7.59869910E+00 -1.51973982E+01  7.59869910E+00
  7.59869910E+00 -1.51973982E+01  7.59869910E+00  7.59869910E+00 -1.51973982E+01
  7.59869910E+00  7.59869910E+00 -1.51973982E+01  7.59869910E+00  7.59869910E+00
 -1.51973982E+01  7.59869910E+00  7.59869910E+00 -1.51973982E+01  7.59869910E+00
  7.59869910E+00 -1.51973982E+01  7.59869910E+00  7.59869910E+00 -1.51973982E+01
  7.59869910E+00  7.59869910E+00 -1.51973982E+01  7.59869910E+00  7.59869910E+00
 -1.51973982E+01  7.59869910E+00  7.59869910E+00 -1.51973982E+01  7.59869910E+00
  7.59869910E+00 -1.51973982E+01  7.59869910E+00  7.59869910E+00 -1.51973982E+01
  7.59869910E+00  7.59869910E+00 -1.51973982E+01  7.59869910E+00  7.59869910E+00
 -1.51973982E+01  7.59869910E+00  7.59869910E+00 -1.51973982E+01  7.59869910E+00
  7.59869910E+00 -1.51973982E+01  7.59869910E+00  7.59869910E+00 -1.51973982E+01
  7.59869910E+00  7.59869910E+00 -1.51973982E+01  7.59869910E+00  7.59869910E+00
 -1.51973982E+01  7.59869910E+00  7.59869910E+00 -1.51973982E+01  7.59869910E+00
  7.59869910E+00 -1.51973982E+01  7.59869910E+00  7.59869910E+00 -1.51973982E+01
  7.59869910E+00  7.59869910E+00 -1.51973982E+01  7.59869910E+00  7.59869910E+00
 -1.51973982E+01  7.59869910E+00  7.59869910E+00 -1.51973982E+01  7.59869910E+00
  7.59869910E+00 -1.51973982E+01  7.59869910E+00  7.59869910E+00 -1.51973982E+01
  7.59869910E+00  7.59869910E+00 -1.51973982E+01  7.59869910E+00  7.59869910E+00
 -1.51973982E+01  7.59869910E+00  7.59869910E+00 -1.51973982E+01  7.59869910E+00
  7.59869910E+00 -1.51973982E+01  7.59869910E+00  7.59869910E+00 -1.51973982E+01
  7.59869910E+00  7.59869910E+00 -1.51973982E+01  7.59869910E+00  7.59869910E+00
 -1.51973982E+01  7.59869910E+00  7.59869910E+00 -1.51973982E+01  7.59869910E+00
  7.59869910E+00 -1.51973982E+01  7.59869910E+00  7.59869910E+00 -1.51973982E+01
  7.59869910E+00  7.59869910E+00 -1.51973982E+01  7.59869910E+00  7.59869910E+00
 -1.51973982E+01  7.59869910E+00  7.59869910E+00 -1.51973982E+01  7.59869910E+00
  7.59869910E+00 -1.51973982E+01  7.59869910E+00  7.59869910E+00 -1.51973982E+01
  7.59869910E+00  7.59869910E+00 -1.51973982E+01  7.59869910E+00  7.59869910E+00
 -1.51973982E+01  7.59869910E+00  7.59869910E+00 -1.51973982E+01  7.59869910E+00
  7.59869910E+00 -1.51973982E+01  7.59869910E+00  7.59869910E+00 -1.51973982E+01
  7.59869910E+00  7.59869910E+00 -1.51973982E+01  7.59869910E+00  7.59869910E+00
 -1.51973982E+01  7.59869910E+00  7.59869910E+00 -1.51973982E+01  7.59869910E+00
  7.59869910E+00 -1.51973982E+01  7.59869910E+00  7.59869910E+00 -1.51973982E+01
  7.59869910E+00  7.59869910E+00 -1.51973982E+01  7.59869910E+00  7.59869910E+00
 -1.51973982E+01  7.59869910E+00  7.59869910E+00 -1.51973982E+01  7.59869910E+00
  7.59869910E+00 -1.51973982E+01  7.59869910E+00  7.59869910E+00 -1.51973982E+01
  7.59869910E+00  7.59869910E+00 -1.51973982E+01  7.59869910E+00  7.59869910E+00
 -1.51973982E+01  7.59869910E+00  7.59869910E+00 -1.51973982E+01  7.59869910E+00
  7.59869910E+00 -1.51973982E+01  7.59869910E+00  7.59869910E+00 -1.51973982E+01
  7.59869910E+00  7.59869910E+00 -1.51973982E+01  7.59869910E+00  7.59869910E+00
 -1.51973982E+01  7.59869910E+00  7.59869910E+00 -1.51973982E+01  7.59869910E+00
  7.59869910E+00 -1.51973982E+01  7.59869910E+00  7.59869910E+00 -1.51973982E+01
  7.59869910E+00  7.59869910E+00 -1.51973982E+01  7.59869910E+00  7.59869910E+00
 -1.51973982E+01  7.59869910E+00  7.59869910E+00 -1.51973982E+01  7.59869910E+00
  7.59869910E+00 -1.51973982E+01  7.59869910E+00  7.59869910E+00 -1.51973982E+01
  7.59869910E+00  7.59869910E+00 -1.51973982E+01  7.59869910E+00  7.59869910E+00
 -1.51973982E+01  7.59869910E+00  7.59869910E+00 -1.51973982E+01  7.59869910E+00
  7.59869910E+00 -1.51973982E+01  7.59869910E+00  7.59869910E+00 -1.51973982E+01
  7.59869910E+00  7.59869910E+00 -1.51973982E+01  7.59869910E+00  7.59869910E+00
 -1.51973982E+01  7.59869910E+00  7.59869910E+00 -1.51973982E+01  7.59869910E+00
  7.59869910E+00 -1.51973982E+01  7.59869910E+00  7.59869910E+00 -1.51973982E+01
  7.59869910E+00  7.59869910E+00 -1.51973982E+01  7.59869910E+00  7.59869910E+00
 -1.51973982E+01  7.59869910E+00  7.59869910E+00 -1.51973982E+01  7.59869910E+00
  7.59869910E+00 -1.51973982E+01  7.59869910E+00  7.59869910E+00 -1.51973982E+01
  7.59869910E+00  7.59869910E+00 -1.51973982E+01  7.59869910E+00  7.59869910E+00
 -1.51973982E+01  7.59869910E+00  7.59869910E+00 -1.51973982E+01  7.59869910E+00
  7.59869910E+00 -1.51973982E+01  7.59869910E+00  7.59869910E+00 -1.51973982E+01
  7.59869910E+00  7.59869910E+00 -1.51973982E+01  7.59869910E+00  7.59869910E+00
 -1.51973982E+01  7.59869910E+00  7.59869910E+00 -1.51973982E+01  7.59869910E+00
  7.59869910E+00 -1.51973982E+01  7.59869910E+00  7.59869910E+00 -1.51973982E+01
  7.59869910E+00  7.59869910E+00 -1.51973982E+01  7.59869910E+00  7.59869910E+00
 -1.51973982E+01  7.59869910E+00  7.59869910E+00 -1.51973982E+01  7.59869910E+00
  7.59869910E+00 -1.51973982E+01  7.59869910E+00  7.59869910E+00 -1.51973982E+01
  7.59869910E+00  7.59869910E+00 -1.51973982E+01  7.59869910E+00  7.59869910E+00
 -1.51973982E+01  7.59869910E+00  7.59869910E+00 -1.51973982E+01  7.59869910E+00
  7.59869910E+00 -1.51973982E+01  7.59869910E+00  7.59869910E+00 -1.51973982E+01
  7.59869910E+00  7.59869910E+00 -1.51973982E+01  7.59869910E+00  7.59869910E+00
 -1.51973982E+01  7.59869910E+00  7.59869910E+00 -1.51973982E+01  7.59869910E+00
  7.59869910E+00 -1.51973982E+01  7.59869910E+00  7.59869910E+00 -1.51973982E+01
  7.59869910E+00  7.59869910E+00 -1.51973982E+01  7.59869910E+00  7.59869910E+00
 -1.51973982E+01  7.59869910E+00  7.59869910E+00 -1.51973982E+01  7.59869910E+00
  7.59869910E+00 -1.51973982E+01  7.59869910E+00  7.59869910E+00 -1.51973982E+01
  7.59869910E+00  7.59869910E+00 -1.51973982E+01  7.59869910E+00  7.59869910E+00
 -1.51973982E+01  7.59869910E+00  7.59869910E+00 -1.51973982E+01  7.59869910E+00
  7.59869910E+00 -1.51973982E+01  7.59869910E+00  7.59869910E+00 -1.51973982E+01
  7.59869910E+00  7.59869910E+00 -1.51973982E+01  7.59869910E+00  7.59869910E+00
 -1.51973982E+01  7.59869910E+00  7.59869910E+00 -1.51973982E+01  7.59869910E+00
  7.59869910E+00 -1.51973982E+01  7.59869910E+00  7.59869910E+00 -1.51973982E+01
  7.59869910E+00  7.59869910E+00 -1.51973982E+01  7.59869910E+00  7.59869910E+00
 -1.51973982E+01  7.59869910E+00  7.59869910E+00 -1.51973982E+01  7.59869910E+00
  7.59869910E+00 -1.51973982E+01  7.59869910E+00  7.59869910E+00 -1.51973982E+01
  7.59869910E+00  7.59869910E+00 -1.51973982E+01  7.59869910E+00  7.59869910E+00
 -1.51973982E+01  7.59869910E+00  7.59869910E+00 -1.51973982E+01  7.59869910E+00
  7.59869910E+00 -1.51973982E+01  7.59869910E+00  7.59869910E+00 -1.51973982E+01
  7.59869910E+00  7.59869910E+00 -1.51973982E+01  7.59869910E+00  7.59869910E+00
 -1.51973982E+01  7.59869910E+00  7.59869910E+00 -1.51973982E+01  7.59869910E+00
  7.59869910E+00 -1.51973982E+01  7.59869910E+00  7.59869910E+00 -1.51973982E+01
  7.59869910E+00  7.59869910E+00 -1.51973982E+01  7.59869910E+00  7.59869910E+00
 -1.51973982E+01  7.59869910E+00  7.59869910E+00 -1.51973982E+01  7.59869910E+00
  7.59869910E+00 -1.51973982E+01  7.59869910E+00  7.59869910E+00 -1.51973982E+01
  7.59869910E+00  7.59869910E+00 -1.51973982E+01  7.59869910E+00  7.59869910E+00
 -1.51973982E+01  7.59869910E+00  7.59869910E+00 -1.51973982E+01  7.59869910E+00
  7.59869910E+00 -1.51973982E+01  7.59869910E+00  7.59869910E+00 -1.51973982E+01
  7.59869910E+00  7.59869910E+00 -1.51973982E+01  7.59869910E+00  7.59869910E+00
 -1.51973982E+01  7.59869910E+00  7.59869910E+00 -1.51973982E+01  7.59869910E+00
  7.59869910E+00 -1.51973982E+01  7.59869910E+00  7.59869910E+00 -1.51973982E+01
  7.59869910E+00  7.59869910E+00 -1.51973982E+01  7.59869910E+00  7.59869910E+00
 -1.51973982E+01  7.59869910E+00  7.59869910E+00 -1.51973982E+01  7.59869910E+00
  7.59869910E+00 -1.51973982E+01  7.59869910E+00  7.59869910E+00 -1.51973982E+01
  7.59869910E+00  7.59869910E+00 -1.51973982E+01  7.59869910E+00  7.59869910E+00
 -1.51973982E+01  7.59869910E+00  7.59869910E+00 -1.51973982E+01  7.59869910E+00
  7.59869910E+00 -1.51973982E+01  7.59869910E+00  7.59869910E+00 -1.51973982E+01
  7.59869910E+00  7.59869910E+00 -1.51973982E+01  7.59869910E+00  7.59869910E+00
 -1.51973982E+01  7.59869910E+00  7.59869910E+00 -1.51973982E+01  7.59869910E+00
  7.59869910E+00 -1.51973982E+01  7.59869910E+00  7.59869910E+00 -1.51973982E+01
  7.59869910E+00  7.59869910E+00 -1.51973982E+01  7.59869910E+00  7.59869910E+00
 -1.51973982E+01  7.59869910E+00  7.59869910E+00 -1.51973982E+01  7.59869910E+00
  7.59869910E+00 -1.51973982E+01  7.59869910E+00  7.59869910E+00 -1.51973982E+01
  7.59869910E+00  7.59869910E+00 -1.51973982E+01  7.59869910E+00  7.59869910E+00
 -1.51973982E+01  7.59869910E+00  7.59869910E+00 -1.51973982E+01  7.59869910E+00
  7.59869910E+00 -1.51973982E+01  7.59869910E+00  7.59869910E+00 -1.51973982E+01
  7.59869910E+00  7.59869910E+00 -1.51973982E+01  7.59869910E+00  7.59869910E+00
 -1.51973982E+01  7.59869910E+00  7.59869910E+00 -1.51973982E+01  7.59869910E+00
  7.59869910E+00 -1.51973982E+01  7.59869910E+00  7.59869910E+00 -1.51973982E+01
  7.59869910E+00  7.59869910E+00 -1.51973982E+01  7.59869910E+00  7.59869910E+00
 -1.51973982E+01  7.59869910E+00  7.59869910E+00 -1.51973982E+01  7.59869910E+00
  7.59869910E+00 -1.51973982E+01  7.59869910E+00  7.59869910E+00 -1.51973982E+01
  7.59869910E+00  7.59869910E+00 -1.51973982E+01  7.59869910E+00  7.59869910E+00
 -1.51973982E+01  7.59869910E+00  7.59869910E+00 -1.51973982E+01  7.59869910E+00
  7.59869910E+00 -1.51973982E+01  7.59869910E+00  7.59869910E+00 -1.51973982E+01
  7.59869910E+00  7.59869910E+00 -1.51973982E+01  7.59869910E+00  7.59869910E+00
 -1.51973982E+01  7.59869910E+00  7.59869910E+00 -1.51973982E+01  7.59869910E+00
  7.59869910E+00 -1.51973982E+01  7.59869910E+00  7.59869910E+00 -1.51973982E+01
  7.59869910E+00  7.59869910E+00 -1.51973982E+01  7.59869910E+00  7.59869910E+00
 -1.51973982E+01  7.59869910E+00  7.59869910E+00 -1.51973982E+01  7.59869910E+00
  7.59869910E+00 -1.51973982E+01  7.59869910E+00  7.59869910E+00 -1.51973982E+01
  7.59869910E+00  7.59869910E+00 -1.51973982E+01  7.59869910E+00  7.59869910E+00
 -1.51973982E+01  7.59869910E+00  7.59869910E+00 -1.51973982E+01  7.59869910E+00
  7.59869910E+00 -1.51973982E+01  7.59869910E+00  7.59869910E+00 -1.51973982E+01
  7.59869910E+00  7.59869910E+00 -1.51973982E+01  7.59869910E+00  7.59869910E+00
 -1.51973982E+01  7.59869910E+00  7.59869910E+00 -1.51973982E+01  7.59869910E+00
  7.59869910E+00 -1.51973982E+01  7.59869910E+00  7.59869910E+00 -1.51973982E+01
  7.59869910E+00  7.59869910E+00 -1.51973982E+01  7.59869910E+00  7.59869910E+00
 -1.51973982E+01  7.59869910E+00  7.59869910E+00 -1.51973982E+01  7.59869910E+00
  7.59869910E+00 -1.51973982E+01  7.59869910E+00  7.59869910E+00 -1.51973982E+01
  7.59869910E+00  7.59869910E+00 -1.51973982E+01  7.59869910E+00  7.59869910E+00
 -1.51973982E+01  7.59869910E+00  7.59869910E+00 -1.51973982E+01  7.59869910E+00
  7.59869910E+00 -1.51973982E+01  7.59869910E+00  7.59869910E+00 -1.51973982E+01
  7.59869910E+00  7.59869910E+00 -1.51973982E+01  7.59869910E+00  7.59869910E+00
 -1.51973982E+01  7.59869910E+00  7.59869910E+00 -1.51973982E+01  7.59869910E+00
  7.59869910E+00 -1.51973982E+01  7.59869910E+00  7.59869910E+00 -1.51973982E+01
  7.59869910E+00  7.59869910E+00 -1.51973982E+01  7.59869910E+00  7.59869910E+00
 -1.51973982E+01  7.59869910E+00  7.59869910E+00 -1.51973982E+01  7.59869910E+00
  7.59869910E+00 -1.51973982E+01  7.59869910E+00  7.59869910E+00 -1.51973982E+01
  7.59869910E+00  7.59869910E+00 -1.51973982E+01  7.59869910E+00  7.59869910E+00
 -1.51973982E+01  7.59869910E+00  7.59869910E+00 -1.51973982E+01  7.59869910E+00
  7.59869910E+00 -1.51973982E+01  7.59869910E+00  7.59869910E+00 -1.51973982E+01
  7.59869910E+00  7.59869910E+00 -1.51973982E+01  7.59869910E+00  7.59869910E+00
 -1.51973982E+01  7.59869910E+00  7.59869910E+00 -1.51973982E+01  7.59869910E+00
  7.59869910E+00 -1.51973982E+01  7.59869910E+00  7.59869910E+00 -1.51973982E+01
  7.59869910E+00  7.59869910E+00 -1.51973982E+01  7.59869910E+00  7.59869910E+00
 -1.51973982E+01  7.59869910E+00  7.59869910E+00 -1.51973982E+01  7.59869910E+00
  7.59869910E+00 -1.51973982E+01  7.59869910E+00  7.59869910E+00 -1.51973982E+01
  7.59869910E+00  7.59869910E+00 -1.51973982E+01  7.59869910E+00  7.59869910E+00
 -1.51973982E+01  7.59869910E+00  7.59869910E+00 -1.51973982E+01  7.59869910E+00
  7.59869910E+00 -1.51973982E+01  7.59869910E+00  7.59869910E+00 -1.51973982E+01
  7.59869910E+00  7.59869910E+00 -1.51973982E+01  7.59869910E+00  7.59869910E+00
 -1.51973982E+01  7.59869910E+00  7.59869910E+00 -1.51973982E+01  7.59869910E+00
  7.59869910E+00 -1.51973982E+01  7.59869910E+00  7.59869910E+00 -1.51973982E+01
  7.59869910E+00  7.59869910E+00 -1.51973982E+01  7.59869910E+00  7.59869910E+00
 -1.51973982E+01  7.59869910E+00  7.59869910E+00 -1.51973982E+01  7.59869910E+00
  7.59869910E+00 -1.51973982E+01  7.59869910E+00  7.59869910E+00 -1.51973982E+01
  7.59869910E+00  7.59869910E+00 -1.51973982E+01  7.59869910E+00  7.59869910E+00
 -1.51973982E+01  7.59869910E+00  7.59869910E+00 -1.51973982E+01  7.59869910E+00
  7.59869910E+00 -1.51973982E+01  7.59869910E+00  7.59869910E+00 -1.51973982E+01
  7.59869910E+00  7.59869910E+00 -1.51973982E+01  7.59869910E+00  7.59869910E+00
 -1.51973982E+01  7.59869910E+00  7.59869910E+00 -1.51973982E+01  7.59869910E+00
  7.59869910E+00 -1.51973982E+01  7.59869910E+00  7.59869910E+00 -1.51973982E+01
  7.59869910E+00  7.59869910E+00 -1.51973982E+01  7.59869910E+00  7.59869910E+00
 -1.51973982E+01  7.59869910E+00  7.59869910E+00 -1.51973982E+01  7.59869910E+00
  7.59869910E+00 -1.51973982E+01  7.59869910E+00  7.59869910E+00 -1.51973982E+01
  7.59869910E+00  7.59869910E+00 -1.51973982E+01  7.59869910E+00  7.59869910E+00
 -1.51973982E+01  7.59869910E+00  7.59869910E+00 -1.51973982E+01  7.59869910E+00
  7.59869910E+00 -1.51973982E+01  7.59869910E+00  7.59869910E+00 -1.51973982E+01
  7.59869910E+00  7.59869910E+00 -1.51973982E+01  7.59869910E+00  7.59869910E+00
 -1.51973982E+01  7.59869910E+00  7.59869910E+00 -1.51973982E+01  7.59869910E+00
  7.59869910E+00 -1.51973982E+01  7.59869910E+00  7.59869910E+00 -1.51973982E+01
  7.59869910E+00  7.59869910E+00 -1.51973982E+01  7.59869910E+00  7.59869910E+00
 -1.51973982E+01  7.59869910E+00  7.59869910E+00 -1.51973982E+01  7.59869910E+00
  7.59869910E+00 -1.51973982E+01  7.59869910E+00  7.59869910E+00 -1.51973982E+01
  7.59869910E+00  7.59869910E+00 -1.51973982E+01  7.59869910E+00  7.59869910E+00
 -1.51973982E+01  7.59869910E+00  7.59869910E+00 -1.51973982E+01  7.59869910E+00
  7.59869910E+00 -1.51973982E+01  7.59869910E+00  7.59869910E+00 -1.51973982E+01
  7.59869910E+00  7.59869910E+00 -1.51973982E+01  7.59869910E+00  7.59869910E+00
 -1.51973982E+01  7.59869910E+00  7.59869910E+00 -1.51973982E+01  7.59869910E+00
  7.59869910E+00 -1.51973982E+01  7.59869910E+00  7.59869910E+00 -1.51973982E+01
  7.59869910E+00  7.59869910E+00 -1.51973982E+01  7.59869910E+00  7.59869910E+00
 -1.51973982E+01  7.59869910E+00  7.59869910E+00 -1.51973982E+01  7.59869910E+00
  7.59869910E+00 -1.51973982E+01  7.59869910E+00  7.59869910E+00 -1.51973982E+01
  7.59869910E+00  7.59869910E+00 -1.51973982E+01  7.59869910E+00  7.59869910E+00
 -1.51973982E+01  7.59869910E+00  7.59869910E+00 -1.51973982E+01  7.59869910E+00
  7.59869910E+00 -1.51973982E+01  7.59869910E+00  7.59869910E+00 -1.51973982E+01
  7.59869910E+00  7.59869910E+00 -1.51973982E+01  7.59869910E+00  7.59869910E+00
 -1.51973982E+01  7.59869910E+00  7.59869910E+00 -1.51973982E+01  7.59869910E+00
  7.59869910E+00 -1.51973982E+01  7.59869910E+00  7.59869910E+00 -1.51973982E+01
  7.59869910E+00  7.59869910E+00 -1.51973982E+01  7.59869910E+00  7.59869910E+00
 -1.51973982E+01  7.59869910E+00  7.59869910E+00 -1.51973982E+01  7.59869910E+00
  7.59869910E+00 -1.51973982E+01  7.59869910E+00  7.59869910E+00 -1.51973982E+01
  7.59869910E+00  7.59869910E+00 -1.51973982E+01  7.59869910E+00  7.59869910E+00
 -1.51973982E+01  7.59869910E+00  7.59869910E+00 -1.51973982E+01  7.59869910E+00
  7.59869910E+00 -1.51973982E+01  7.59869910E+00  7.59869910E+00 -1.51973982E+01
  7.59869910E+00  7.59869910E+00 -1.51973982E+01  7.59869910E+00  7.59869910E+00
 -1.51973982E+01  7.59869910E+00  7.59869910E+00 -1.51973982E+01  7.59869910E+00
  7.59869910E+00 -1.51973982E+01  7.59869910E+00  7.59869910E+00 -1.51973982E+01
  7.59869910E+00  7.59869910E+00 -1.51973982E+01  7.59869910E+00  7.59869910E+00
 -1.51973982E+01  7.59869910E+00  7.59869910E+00 -1.51973982E+01  7.59869910E+00
  7.59869910E+00 -1.51973982E+01  7.59869910E+00  7.59869910E+00 -1.51973982E+01
  7.59869910E+00  7.59869910E+00 -1.51973982E+01  7.59869910E+00  7.59869910E+00
 -1.51973982E+01  7.59869910E+00  7.59869910E+00 -1.51973982E+01  7.59869910E+00
  7.59869910E+00 -1.51973982E+01  7.59869910E+00  7.59869910E+00 -1.51973982E+01
  7.59869910E+00  7.59869910E+00 -1.51973982E+01  7.59869910E+00  7.59869910E+00
 -1.51973982E+01  7.59869910E+00  7.59869910E+00 -1.51973982E+01  7.59869910E+00
  7.59869910E+00 -1.51973982E+01  7.59869910E+00  7.59869910E+00 -1.51973982E+01
  7.59869910E+00  7.59869910E+00 -1.51973982E+01  7.59869910E+00  7.59869910E+00
 -1.51973982E+01  7.59869910E+00  7.59869910E+00 -1.51973982E+01  7.59869910E+00
  7.59869910E+00 -1.51973982E+01  7.59869910E+00  7.59869910E+00 -1.51973982E+01
  7.59869910E+00  7.59869910E+00 -1.51973982E+01  7.59869910E+00  7.59869910E+00
 -1.51973982E+01  7.59869910E+00  7.59869910E+00 -1.51973982E+01  7.59869910E+00
  7.59869910E+00 -1.51973982E+01  7.59869910E+00  7.59869910E+00 -1.51973982E+01
  7.59869910E+00  7.59869910E+00 -1.51973982E+01  7.59869910E+00  7.59869910E+00
 -1.51973982E+01  7.59869910E+00  7.59869910E+00 -1.51973982E+01  7.59869910E+00
  7.59869910E+00 -1.51973982E+01  7.59869910E+00  7.59869910E+00 -1.51973982E+01
  7.59869910E+00  7.59869910E+00 -1.51973982E+01  7.59869910E+00  7.59869910E+00
 -1.51973982E+01  7.59869910E+00  7.59869910E+00 -1.51973982E+01  7.59869910E+00
  7.59869910E+00 -1.51973982E+01  7.59869910E+00  7.59869910E+00 -1.51973982E+01
  7.59869910E+00  7.59869910E+00 -1.51973982E+01  7.59869910E+00  7.59869910E+00
 -1.51973982E+01  7.59869910E+00  7.59869910E+00 -1.51973982E+01  7.59869910E+00
  7.59869910E+00 -1.51973982E+01  7.59869910E+00  7.59869910E+00 -1.51973982E+01
  7.59869910E+00  7.59869910E+00 -1.51973982E+01  7.59869910E+00  7.59869910E+00
 -1.51973982E+01  7.59869910E+00  7.59869910E+00 -1.51973982E+01  7.59869910E+00
  7.59869910E+00 -1.51973982E+01  7.59869910E+00  7.59869910E+00 -1.51973982E+01
  7.59869910E+00  7.59869910E+00 -1.51973982E+01  7.59869910E+00  7.59869910E+00
 -1.51973982E+01  7.59869910E+00  7.59869910E+00 -1.51973982E+01  7.59869910E+00
  7.59869910E+00 -1.51973982E+01  7.59869910E+00  7.59869910E+00 -1.51973982E+01
  7.59869910E+00  7.59869910E+00 -1.51973982E+01  7.59869910E+00  7.59869910E+00
 -1.51973982E+01  7.59869910E+00  7.59869910E+00 -1.51973982E+01  7.59869910E+00
  7.59869910E+00 -1.51973982E+01  7.59869910E+00  7.59869910E+00 -1.51973982E+01
  7.59869910E+00  7.59869910E+00 -1.51973982E+01  7.59869910E+00  7.59869910E+00
 -1.51973982E+01  7.59869910E+00  7.59869910E+00 -1.51973982E+01  7.59869910E+00
  7.59869910E+00 -1.51973982E+01  7.59869910E+00  7.59869910E+00 -1.51973982E+01
  7.59869910E+00  7.59869910E+00 -1.51973982E+01  7.59869910E+00  7.59869910E+00
 -1.51973982E+01  7.59869910E+00  7.59869910E+00 -1.51973982E+01  7.59869910E+00
  7.59869910E+00 -1.51973982E+01  7.59869910E+00  7.59869910E+00 -1.51973982E+01
  7.59869910E+00  7.59869910E+00 -1.51973982E+01  7.59869910E+00  7.59869910E+00
 -1.51973982E+01  7.59869910E+00  7.59869910E+00 -1.51973982E+01  7.59869910E+00
  7.59869910E+00 -1.51973982E+01  7.59869910E+00  7.59869910E+00 -1.51973982E+01
  7.59869910E+00  7.59869910E+00 -1.51973982E+01  7.59869910E+00  7.59869910E+00
 -1.51973982E+01  7.59869910E+00  7.59869910E+00 -1.51973982E+01  7.59869910E+00
  7.59869910E+00 -1.51973982E+01  7.59869910E+00  7.59869910E+00 -1.51973982E+01
  7.59869910E+00  7.59869910E+00 -1.51973982E+01  7.59869910E+00  7.59869910E+00
 -1.51973982E+01  7.59869910E+00  7.59869910E+00 -1.51973982E+01  7.59869910E+00
  7.59869910E+00 -1.51973982E+01  7.59869910E+00  7.59869910E+00 -1.51973982E+01
  7.59869910E+00  7.59869910E+00 -1.51973982E+01  7.59869910E+00  7.59869910E+00
 -1.51973982E+01  7.59869910E+00  7.59869910E+00 -1.51973982E+01  7.59869910E+00
  7.59869910E+00 -1.51973982E+01  7.59869910E+00  7.59869910E+00 -1.51973982E+01
  7.59869910E+00  7.59869910E+00 -1.51973982E+01  7.59869910E+00  7.59869910E+00
 -1.51973982E+01  7.59869910E+00  7.59869910E+00 -1.51973982E+01  7.59869910E+00
  7.59869910E+00 -1.51973982E+01  7.59869910E+00  7.59869910E+00 -1.51973982E+01
  7.59869910E+00  7.59869910E+00 -1.51973982E+01  7.59869910E+00  7.59869910E+00
 -1.51973982E+01  7.59869910E+00  7.59869910E+00 -1.51973982E+01  7.59869910E+00
  7.59869910E+00 -1.51973982E+01  7.59869910E+00  7.59869910E+00 -1.51973982E+01
  7.59869910E+00  7.59869910E+00 -1.51973982E+01  7.59869910E+00  7.59869910E+00
 -1.51973982E+01  7.59869910E+00  7.59869910E+00 -1.51973982E+01  7.59869910E+00
  7.59869910E+00 -1.51973982E+01  7.59869910E+00  7.59869910E+00 -1.51973982E+01
  7.59869910E+00  7.59869910E+00 -1.51973982E+01  7.59869910E+00  7.59869910E+00
 -1.51973982E+01  7.59869910E+00  7.59869910E+00 -1.51973982E+01  7.59869910E+00
  7.59869910E+00 -1.51973982E+01  7.59869910E+00  7.59869910E+00 -1.51973982E+01
  7.59869910E+00  7.59869910E+00 -1.51973982E+01  7.59869910E+00  7.59869910E+00
 -1.51973982E+01  7.59869910E+00  7.59869910E+00 -1.51973982E+01  7.59869910E+00
  7.59869910E+00 -1.51973982E+01  7.59869910E+00  7.59869910E+00 -1.51973982E+01
  7.59869910E+00  7.59869910E+00 -1.51973982E+01  7.59869910E+00  7.59869910E+00
 -1.51973982E+01  7.59869910E+00  7.59869910E+00 -1.51973982E+01  7.59869910E+00
  7.59869910E+00 -1.51973982E+01  7.59869910E+00  7.59869910E+00 -1.51973982E+01
  7.59869910E+00  7.59869910E+00 -1.51973982E+01  7.59869910E+00  7.59869910E+00
 -1.51973982E+01  7.59869910E+00  7.59869910E+00 -1.51973982E+01  7.59869910E+00
  7.59869910E+00 -1.51973982E+01  7.59869910E+00  7.59869910E+00 -1.51973982E+01
  7.59869910E+00  7.59869910E+00 -1.51973982E+01  7.59869910E+00  7.59869910E+00
 -1.51973982E+01  7.59869910E+00  7.59869910E+00 -1.51973982E+01  7.59869910E+00
  7.59869910E+00 -1.51973982E+01  7.59869910E+00  7.59869910E+00 -1.51973982E+01
  7.59869910E+00  7.59869910E+00 -1.51973982E+01  7.59869910E+00  7.59869910E+00
 -1.51973982E+01  7.59869910E+00  7.59869910E+00 -1.51973982E+01  7.59869910E+00
  7.59869910E+00 -1.51973982E+01  7.59869910E+00  7.59869910E+00 -1.51973982E+01
  7.59869910E+00  7.59869910E+00 -1.51973982E+01  7.59869910E+00  7.59869910E+00
 -1.51973982E+01  7.59869910E+00  7.59869910E+00 -1.51973982E+01  7.59869910E+00
  7.59869910E+00 -1.51973982E+01  7.59869910E+00  7.59869910E+00 -1.51973982E+01
  7.59869910E+00  7.59869910E+00 -1.51973982E+01  7.59869910E+00  7.59869910E+00
 -1.51973982E+01  7.59869910E+00  7.59869910E+00 -1.51973982E+01  7.59869910E+00
  7.59869910E+00 -1.51973982E+01  7.59869910E+00  7.59869910E+00 -1.51973982E+01
  7.59869910E+00  7.59869910E+00 -1.51973982E+01  7.59869910E+00  7.59869910E+00
 -1.51973982E+01  7.59869910E+00  7.59869910E+00 -1.51973982E+01  7.59869910E+00
  7.59869910E+00 -1.51973982E+01  7.59869910E+00  7.59869910E+00 -1.51973982E+01
  7.59869910E+00  7.59869910E+00 -1.51973982E+01  7.59869910E+00  7.59869910E+00
 -1.51973982E+01  7.59869910E+00  7.59869910E+00 -1.51973982E+01  7.59869910E+00
  7.59869910E+00 -1.51973982E+01  7.59869910E+00  7.59869910E+00 -1.51973982E+01
  7.59869910E+00  7.59869910E+00 -1.51973982E+01  7.59869910E+00  7.59869910E+00
 -1.51973982E+01  7.59869910E+00  7.59869910E+00 -1.51973982E+01  7.59869910E+00
  7.59869910E+00 -1.51973982E+01  7.59869910E+00  7.59869910E+00 -1.51973982E+01
  7.59869910E+00  7.59869910E+00 -1.51973982E+01  7.59869910E+00  7.59869910E+00
 -1.51973982E+01  7.59869910E+00  7.59869910E+00 -1.51973982E+01  7.59869910E+00
  7.59869910E+00 -1.51973982E+01  7.59869910E+00  7.59869910E+00 -1.51973982E+01
  7.59869910E+00  7.59869910E+00 -1.51973982E+01  7.59869910E+00  7.59869910E+00
 -1.51973982E+01  7.59869910E+00  7.59869910E+00 -1.51973982E+01  7.59869910E+00
  7.59869910E+00 -1.51973982E+01  7.59869910E+00  7.59869910E+00 -1.51973982E+01
  7.59869910E+00  7.59869910E+00 -1.51973982E+01  7.59869910E+00  7.59869910E+00
 -1.51973982E+01  7.59869910E+00  7.59869910E+00 -1.51973982E+01  7.59869910E+00
  7.59869910E+00 -1.51973982E+01  7.59869910E+00  7.59869910E+00 -1.51973982E+01
  7.59869910E+00  7.59869910E+00 -1.51973982E+01  7.59869910E+00  7.59869910E+00
 -1.51973982E+01  7.59869910E+00  7.59869910E+00 -1.51973982E+01  7.59869910E+00
  7.59869910E+00 -1.51973982E+01  7.59869910E+00  7.59869910E+00 -1.51973982E+01
  7.59869910E+00  7.59869910E+00 -1.51973982E+01  7.59869910E+00  7.59869910E+00
 -1.51973982E+01  7.59869910E+00  7.59869910E+00 -1.51973982E+01  7.59869910E+00
  7.59869910E+00 -1.51973982E+01  7.59869910E+00  7.59869910E+00 -1.51973982E+01
  7.59869910E+00  7.59869910E+00 -1.51973982E+01  7.59869910E+00  7.59869910E+00
 -1.51973982E+01  7.59869910E+00  7.59869910E+00 -1.51973982E+01  7.59869910E+00
  7.59869910E+00 -1.51973982E+01  7.59869910E+00  7.59869910E+00 -1.51973982E+01
  7.59869910E+00  7.59869910E+00 -1.51973982E+01  7.59869910E+00  7.59869910E+00
 -1.51973982E+01  7.59869910E+00  7.59869910E+00 -1.51973982E+01  7.59869910E+00
  7.59869910E+00 -1.51973982E+01  7.59869910E+00  7.59869910E+00 -1.51973982E+01
  7.59869910E+00  7.59869910E+00 -1.51973982E+01  7.59869910E+00  7.59869910E+00
 -1.51973982E+01  7.59869910E+00  7.59869910E+00 -1.51973982E+01  7.59869910E+00
  7.59869910E+00 -1.51973982E+01  7.59869910E+00  7.59869910E+00 -1.51973982E+01
  7.59869910E+00  7.59869910E+00 -1.51973982E+01  7.59869910E+00  7.59869910E+00
 -1.51973982E+01  7.59869910E+00  7.59869910E+00 -1.51973982E+01  7.59869910E+00
  7.59869910E+00 -1.51973982E+01  7.59869910E+00  7.59869910E+00 -1.51973982E+01
  7.59869910E+00  7.59869910E+00 -1.51973982E+01  7.59869910E+00  7.59869910E+00
 -1.51973982E+01  7.59869910E+00  7.59869910E+00 -1.51973982E+01  7.59869910E+00
  7.59869910E+00 -1.51973982E+01  7.59869910E+00  7.59869910E+00 -1.51973982E+01
  7.59869910E+00  7.59869910E+00 -1.51973982E+01  7.59869910E+00  7.59869910E+00
 -1.51973982E+01  7.59869910E+00  7.59869910E+00 -1.51973982E+01  7.59869910E+00
  7.59869910E+00 -1.51973982E+01  7.59869910E+00  7.59869910E+00 -1.51973982E+01
  7.59869910E+00  7.59869910E+00 -1.51973982E+01  7.59869910E+00  7.59869910E+00
 -1.51973982E+01  7.59869910E+00  7.59869910E+00 -1.51973982E+01  7.59869910E+00
  7.59869910E+00 -1.51973982E+01  7.59869910E+00  7.59869910E+00 -1.51973982E+01
  7.59869910E+00  7.59869910E+00 -1.51973982E+01  7.59869910E+00  7.59869910E+00
 -1.51973982E+01  7.59869910E+00  7.59869910E+00 -1.51973982E+01  7.59869910E+00
  7.59869910E+00 -1.51973982E+01  7.59869910E+00  7.59869910E+00 -1.51973982E+01
  7.59869910E+00  7.59869910E+00 -1.51973982E+01  7.59869910E+00  7.59869910E+00
 -1.51973982E+01  7.59869910E+00  7.59869910E+00 -1.51973982E+01  7.59869910E+00
  7.59869910E+00 -1.51973982E+01  7.59869910E+00  7.59869910E+00 -1.51973982E+01
  7.59869910E+00  7.59869910E+00 -1.51973982E+01  7.59869910E+00  7.59869910E+00
 -1.51973982E+01  7.59869910E+00  7.59869910E+00 -1.51973982E+01  7.59869910E+00
  7.59869910E+00 -1.51973982E+01  7.59869910E+00  7.59869910E+00 -1.51973982E+01
  7.59869910E+00  7.59869910E+00 -1.51973982E+01  7.59869910E+00  7.59869910E+00
 -1.51973982E+01  7.59869910E+00  7.59869910E+00 -1.51973982E+01  7.59869910E+00
  7.59869910E+00 -1.51973982E+01  7.59869910E+00  7.59869910E+00 -1.51973982E+01
  7.59869910E+00  7.59869910E+00 -1.51973982E+01  7.59869910E+00  7.59869910E+00
 -1.51973982E+01  7.59869910E+00  7.59869910E+00 -1.51973982E+01  7.59869910E+00
  7.59869910E+00 -1.51973982E+01  7.59869910E+00  7.59869910E+00 -1.51973982E+01
  7.59869910E+00  7.59869910E+00 -1.51973982E+01  7.59869910E+00  7.59869910E+00
 -1.51973982E+01  7.59869910E+00  7.59869910E+00 -1.51973982E+01  7.59869910E+00
  7.59869910E+00 -1.51973982E+01  7.59869910E+00  7.59869910E+00 -1.51973982E+01
  7.59869910E+00  7.59869910E+00 -1.51973982E+01  7.59869910E+00  7.59869910E+00
 -1.51973982E+01  7.59869910E+00  7.59869910E+00 -1.51973982E+01  7.59869910E+00
  7.59869910E+00 -1.51973982E+01  7.59869910E+00  7.59869910E+00 -1.51973982E+01
  7.59869910E+00  7.59869910E+00 -1.51973982E+01  7.59869910E+00  7.59869910E+00
 -1.51973982E+01  7.59869910E+00  7.59869910E+00 -1.51973982E+01  7.59869910E+00
  7.59869910E+00 -1.51973982E+01  7.59869910E+00  7.59869910E+00 -1.51973982E+01
  7.59869910E+00  7.59869910E+00 -1.51973982E+01  7.59869910E+00  7.59869910E+00
 -1.51973982E+01  7.59869910E+00  7.59869910E+00 -1.51973982E+01  7.59869910E+00
  7.59869910E+00 -1.51973982E+01  7.59869910E+00  7.59869910E+00 -1.51973982E+01
  7.59869910E+00  7.59869910E+00 -1.51973982E+01  7.59869910E+00  7.59869910E+00
 -1.51973982E+01  7.59869910E+00  7.59869910E+00 -1.51973982E+01  7.59869910E+00
  7.59869910E+00 -1.51973982E+01  7.59869910E+00  7.59869910E+00 -1.51973982E+01
  7.59869910E+00  7.59869910E+00 -1.51973982E+01  7.59869910E+00  7.59869910E+00
 -1.51973982E+01  7.59869910E+00  7.59869910E+00 -1.51973982E+01  7.59869910E+00
  7.59869910E+00 -1.51973982E+01  7.59869910E+00  7.59869910E+00 -1.51973982E+01
  7.59869910E+00  7.59869910E+00 -1.51973982E+01  7.59869910E+00  7.59869910E+00
 -1.51973982E+01  7.59869910E+00  7.59869910E+00 -1.51973982E+01  7.59869910E+00
  7.59869910E+00 -1.51973982E+01  7.59869910E+00  7.59869910E+00 -1.51973982E+01
  7.59869910E+00  7.59869910E+00 -1.51973982E+01  7.59869910E+00  7.59869910E+00
 -1.51973982E+01  7.59869910E+00  7.59869910E+00 -1.51973982E+01  7.59869910E+00
  7.59869910E+00 -1.51973982E+01  7.59869910E+00  7.59869910E+00 -1.51973982E+01
  7.59869910E+00  7.59869910E+00 -1.51973982E+01  7.59869910E+00  7.59869910E+00
 -1.51973982E+01  7.59869910E+00  7.59869910E+00 -1.51973982E+01  7.59869910E+00
  7.59869910E+00 -1.51973982E+01  7.59869910E+00  7.59869910E+00 -1.51973982E+01
  7.59869910E+00  7.59869910E+00 -1.51973982E+01  7.59869910E+00  7.59869910E+00
 -1.51973982E+01  7.59869910E+00  7.59869910E+00 -1.51973982E+01  7.59869910E+00
  7.59869910E+00 -1.51973982E+01  7.59869910E+00  7.59869910E+00 -1.51973982E+01
  7.59869910E+00  7.59869910E+00 -1.51973982E+01  7.59869910E+00  7.59869910E+00
 -1.51973982E+01  7.59869910E+00  7.59869910E+00 -1.51973982E+01  7.59869910E+00
  7.59869910E+00 -1.51973982E+01  7.59869910E+00  7.59869910E+00 -1.51973982E+01
  7.59869910E+00  7.59869910E+00 -1.51973982E+01  7.59869910E+00  7.59869910E+00
 -1.51973982E+01  7.59869910E+00  7.59869910E+00 -1.51973982E+01  7.59869910E+00
  7.59869910E+00 -1.51973982E+01  7.59869910E+00  7.59869910E+00 -1.51973982E+01
  7.59869910E+00  7.59869910E+00 -1.51973982E+01  7.59869910E+00  7.59869910E+00
 -1.51973982E+01  7.59869910E+00  7.59869910E+00 -1.51973982E+01  7.59869910E+00
  7.59869910E+00 -1.51973982E+01  7.59869910E+00  7.59869910E+00 -1.51973982E+01
  7.59869910E+00  7.59869910E+00 -1.51973982E+01  7.59869910E+00  7.59869910E+00
 -1.51973982E+01  7.59869910E+00  7.59869910E+00 -1.51973982E+01  7.59869910E+00
  7.59869910E+00 -1.51973982E+01  7.59869910E+00  7.59869910E+00 -1.51973982E+01
  7.59869910E+00  7.59869910E+00 -1.51973982E+01  7.59869910E+00  7.59869910E+00
 -1.51973982E+01  7.59869910E+00  7.59869910E+00 -1.51973982E+01  7.59869910E+00
  7.59869910E+00 -1.51973982E+01  7.59869910E+00  7.59869910E+00 -1.51973982E+01
  7.59869910E+00  7.59869910E+00 -1.51973982E+01  7.59869910E+00  7.59869910E+00
 -1.51973982E+01  7.59869910E+00  7.59869910E+00 -1.51973982E+01  7.59869910E+00
  7.59869910E+00 -1.51973982E+01  7.59869910E+00  7.59869910E+00 -1.51973982E+01
  7.59869910E+00  7.59869910E+00 -1.51973982E+01  7.59869910E+00  7.59869910E+00
 -1.51973982E+01  7.59869910E+00  7.59869910E+00 -1.51973982E+01  7.59869910E+00
  7.59869910E+00 -1.51973982E+01  7.59869910E+00  7.59869910E+00 -1.51973982E+01
  7.59869910E+00  7.59869910E+00 -1.51973982E+01  7.59869910E+00  7.59869910E+00
 -1.51973982E+01  7.59869910E+00  7.59869910E+00 -1.51973982E+01  7.59869910E+00
  7.59869910E+00 -1.51973982E+01  7.59869910E+00  7.59869910E+00 -1.51973982E+01
  7.59869910E+00  7.59869910E+00 -1.51973982E+01  7.59869910E+00  7.59869910E+00
 -1.51973982E+01  7.59869910E+00  7.59869910E+00 -1.51973982E+01  7.59869910E+00
  7.59869910E+00 -1.51973982E+01  7.59869910E+00  7.59869910E+00 -1.51973982E+01
  7.59869910E+00  7.59869910E+00 -1.51973982E+01  7.59869910E+00  7.59869910E+00
 -1.51973982E+01  7.59869910E+00  7.59869910E+00 -1.51973982E+01  7.59869910E+00
  7.59869910E+00 -1.51973982E+01  7.59869910E+00  7.59869910E+00 -1.51973982E+01
  7.59869910E+00  7.59869910E+00 -1.51973982E+01  7.59869910E+00  7.59869910E+00
 -1.51973982E+01  7.59869910E+00  7.59869910E+00 -1.51973982E+01  7.59869910E+00
  7.59869910E+00 -1.51973982E+01  7.59869910E+00  7.59869910E+00 -1.51973982E+01
  7.59869910E+00  7.59869910E+00 -1.51973982E+01  7.59869910E+00  7.59869910E+00
 -1.51973982E+01  7.59869910E+00  7.59869910E+00 -1.51973982E+01  7.59869910E+00
  7.59869910E+00 -1.51973982E+01  7.59869910E+00  7.59869910E+00 -1.51973982E+01
  7.59869910E+00  7.59869910E+00 -1.51973982E+01  7.59869910E+00  7.59869910E+00
 -1.51973982E+01  7.59869910E+00  7.59869910E+00 -1.51973982E+01  7.59869910E+00
  7.59869910E+00 -1.51973982E+01  7.59869910E+00  7.59869910E+00 -1.51973982E+01
  7.59869910E+00  7.59869910E+00 -1.51973982E+01  7.59869910E+00  7.59869910E+00
 -1.51973982E+01  7.59869910E+00  7.59869910E+00 -1.51973982E+01  7.59869910E+00
  7.59869910E+00 -1.51973982E+01  7.59869910E+00  7.59869910E+00 -1.51973982E+01
  7.59869910E+00  7.59869910E+00 -1.51973982E+01  7.59869910E+00  7.59869910E+00
 -1.51973982E+01  7.59869910E+00  7.59869910E+00 -1.51973982E+01  7.59869910E+00
  7.59869910E+00 -1.51973982E+01  7.59869910E+00  7.59869910E+00 -1.51973982E+01
  7.59869910E+00  7.59869910E+00 -1.51973982E+01  7.59869910E+00  7.59869910E+00
 -1.51973982E+01  7.59869910E+00  7.59869910E+00 -1.51973982E+01  7.59869910E+00
  7.59869910E+00 -1.51973982E+01  7.59869910E+00  7.59869910E+00 -1.51973982E+01
  7.59869910E+00  7.59869910E+00 -1.51973982E+01  7.59869910E+00  7.59869910E+00
 -1.51973982E+01  7.59869910E+00  7.59869910E+00 -1.51973982E+01  7.59869910E+00
  7.59869910E+00 -1.51973982E+01  7.59869910E+00  7.59869910E+00 -1.51973982E+01
  7.59869910E+00  7.59869910E+00 -1.51973982E+01  7.59869910E+00  7.59869910E+00
 -1.51973982E+01  7.59869910E+00  7.59869910E+00 -1.51973982E+01  7.59869910E+00
  7.59869910E+00 -1.51973982E+01  7.59869910E+00  7.59869910E+00 -1.51973982E+01
  7.59869910E+00  7.59869910E+00 -1.51973982E+01  7.59869910E+00  7.59869910E+00
 -1.51973982E+01  7.59869910E+00  7.59869910E+00 -1.51973982E+01  7.59869910E+00
  7.59869910E+00 -1.51973982E+01  7.59869910E+00  7.59869910E+00 -1.51973982E+01
  7.59869910E+00  7.59869910E+00 -1.51973982E+01  7.59869910E+00  7.59869910E+00
 -1.51973982E+01  7.59869910E+00  7.59869910E+00 -1.51973982E+01  7.59869910E+00
  7.59869910E+00 -1.51973982E+01  7.59869910E+00  7.59869910E+00 -1.51973982E+01
  7.59869910E+00  7.59869910E+00 -1.51973982E+01  7.59869910E+00  7.59869910E+00
 -1.51973982E+01  7.59869910E+00  7.59869910E+00 -1.51973982E+01  7.59869910E+00
  7.59869910E+00 -1.51973982E+01  7.59869910E+00  7.59869910E+00 -1.51973982E+01
  7.59869910E+00  7.59869910E+00 -1.51973982E+01  7.59869910E+00  7.59869910E+00
 -1.51973982E+01  7.59869910E+00  7.59869910E+00 -1.51973982E+01  7.59869910E+00
  7.59869910E+00 -1.51973982E+01  7.59869910E+00  7.59869910E+00 -1.51973982E+01
  7.59869910E+00  7.59869910E+00 -1.51973982E+01  7.59869910E+00  7.59869910E+00
 -1.51973982E+01  7.59869910E+00  7.59869910E+00 -1.51973982E+01  7.59869910E+00
  7.59869910E+00 -1.51973982E+01  7.59869910E+00  7.59869910E+00 -1.51973982E+01
  7.59869910E+00  7.59869910E+00 -1.51973982E+01  7.59869910E+00  7.59869910E+00
 -1.51973982E+01  7.59869910E+00  7.59869910E+00 -1.51973982E+01  7.59869910E+00
  7.59869910E+00 -1.51973982E+01  7.59869910E+00  7.59869910E+00 -1.51973982E+01
  7.59869910E+00  7.59869910E+00 -1.51973982E+01  7.59869910E+00  7.59869910E+00
 -1.51973982E+01  7.59869910E+00  7.59869910E+00 -1.51973982E+01  7.59869910E+00
  7.59869910E+00 -1.51973982E+01  7.59869910E+00  7.59869910E+00 -1.51973982E+01
  7.59869910E+00  7.59869910E+00 -1.51973982E+01  7.59869910E+00  7.59869910E+00
 -1.51973982E+01  7.59869910E+00  7.59869910E+00 -1.51973982E+01  7.59869910E+00
  7.59869910E+00 -1.51973982E+01  7.59869910E+00  7.59869910E+00 -1.51973982E+01
  7.59869910E+00  7.59869910E+00 -1.51973982E+01  7.59869910E+00  7.59869910E+00
 -1.51973982E+01  7.59869910E+00  7.59869910E+00 -1.51973982E+01  7.59869910E+00
  7.59869910E+00 -1.51973982E+01  7.59869910E+00  7.59869910E+00 -1.51973982E+01
  7.59869910E+00  7.59869910E+00 -1.51973982E+01  7.59869910E+00  7.59869910E+00
 -1.51973982E+01  7.59869910E+00  7.59869910E+00 -1.51973982E+01  7.59869910E+00
  7.59869910E+00 -1.51973982E+01  7.59869910E+00  7.59869910E+00 -1.51973982E+01
  7.59869910E+00  7.59869910E+00 -1.51973982E+01  7.59869910E+00  7.59869910E+00
 -1.51973982E+01  7.59869910E+00  7.59869910E+00 -1.51973982E+01  7.59869910E+00
  7.59869910E+00 -1.51973982E+01  7.59869910E+00  7.59869910E+00 -1.51973982E+01
  7.59869910E+00  7.59869910E+00 -1.51973982E+01  7.59869910E+00  7.59869910E+00
 -1.51973982E+01  7.59869910E+00  7.59869910E+00 -1.51973982E+01  7.59869910E+00
  7.59869910E+00 -1.51973982E+01  7.59869910E+00  7.59869910E+00 -1.51973982E+01
  7.59869910E+00  7.59869910E+00 -1.51973982E+01  7.59869910E+00  7.59869910E+00
 -1.51973982E+01  7.59869910E+00  7.59869910E+00 -1.51973982E+01  7.59869910E+00
  7.59869910E+00 -1.51973982E+01  7.59869910E+00  7.59869910E+00 -1.51973982E+01
  7.59869910E+00  7.59869910E+00 -1.51973982E+01  7.59869910E+00  7.59869910E+00
 -1.51973982E+01  7.59869910E+00  7.59869910E+00 -1.51973982E+01  7.59869910E+00
  7.59869910E+00 -1.51973982E+01  7.59869910E+00  7.59869910E+00 -1.51973982E+01
  7.59869910E+00  7.59869910E+00 -1.51973982E+01  7.59869910E+00  7.59869910E+00
 -1.51973982E+01  7.59869910E+00  7.59869910E+00 -1.51973982E+01  7.59869910E+00
  7.59869910E+00 -1.51973982E+01  7.59869910E+00  7.59869910E+00 -1.51973982E+01
  7.59869910E+00  7.59869910E+00 -1.51973982E+01  7.59869910E+00  7.59869910E+00
 -1.51973982E+01  7.59869910E+00  7.59869910E+00 -1.51973982E+01  7.59869910E+00
  7.59869910E+00 -1.51973982E+01  7.59869910E+00  7.59869910E+00 -1.51973982E+01
  7.59869910E+00  7.59869910E+00 -1.51973982E+01  7.59869910E+00  7.59869910E+00
 -1.51973982E+01  7.59869910E+00  7.59869910E+00 -1.51973982E+01  7.59869910E+00
  7.59869910E+00 -1.51973982E+01  7.59869910E+00  7.59869910E+00 -1.51973982E+01
  7.59869910E+00  7.59869910E+00 -1.51973982E+01  7.59869910E+00  7.59869910E+00
 -1.51973982E+01  7.59869910E+00  7.59869910E+00 -1.51973982E+01  7.59869910E+00
  7.59869910E+00 -1.51973982E+01  7.59869910E+00  7.59869910E+00 -1.51973982E+01
  7.59869910E+00  7.59869910E+00 -1.51973982E+01  7.59869910E+00  7.59869910E+00
 -1.51973982E+01  7.59869910E+00  7.59869910E+00 -1.51973982E+01  7.59869910E+00
  7.59869910E+00 -1.51973982E+01  7.59869910E+00  7.59869910E+00 -1.51973982E+01
  7.59869910E+00  7.59869910E+00 -1.51973982E+01  7.59869910E+00  7.59869910E+00
 -1.51973982E+01  7.59869910E+00  7.59869910E+00 -1.51973982E+01  7.59869910E+00
  7.59869910E+00 -1.51973982E+01  7.59869910E+00  7.59869910E+00 -1.51973982E+01
  7.59869910E+00  7.59869910E+00 -1.51973982E+01  7.59869910E+00  7.59869910E+00
 -1.51973982E+01  7.59869910E+00  7.59869910E+00 -1.51973982E+01  7.59869910E+00
  7.59869910E+00 -1.51973982E+01  7.59869910E+00  7.59869910E+00 -1.51973982E+01
  7.59869910E+00  7.59869910E+00 -1.51973982E+01  7.59869910E+00  7.59869910E+00
 -1.51973982E+01  7.59869910E+00  7.59869910E+00 -1.51973982E+01  7.59869910E+00
  7.59869910E+00 -1.51973982E+01  7.59869910E+00  7.59869910E+00 -1.51973982E+01
  7.59869910E+00  7.59869910E+00 -1.51973982E+01  7.59869910E+00  7.59869910E+00
 -1.51973982E+01  7.59869910E+00  7.59869910E+00 -1.51973982E+01  7.59869910E+00
  7.59869910E+00 -1.51973982E+01  7.59869910E+00  7.59869910E+00 -1.51973982E+01
  7.59869910E+00  7.59869910E+00 -1.51973982E+01  7.59869910E+00  7.59869910E+00
 -1.51973982E+01  7.59869910E+00  7.59869910E+00 -1.51973982E+01  7.59869910E+00
  7.59869910E+00 -1.51973982E+01  7.59869910E+00  7.59869910E+00 -1.51973982E+01
  7.59869910E+00  7.59869910E+00 -1.51973982E+01  7.59869910E+00  7.59869910E+00
 -1.51973982E+01  7.59869910E+00  7.59869910E+00 -1.51973982E+01  7.59869910E+00
  7.59869910E+00 -1.51973982E+01  7.59869910E+00  7.59869910E+00 -1.51973982E+01
  7.59869910E+00  7.59869910E+00 -1.51973982E+01  7.59869910E+00  7.59869910E+00
 -1.51973982E+01  7.59869910E+00  7.59869910E+00 -1.51973982E+01  7.59869910E+00
  7.59869910E+00 -1.51973982E+01  7.59869910E+00  7.59869910E+00 -1.51973982E+01
  7.59869910E+00  7.59869910E+00 -1.51973982E+01  7.59869910E+00  7.59869910E+00
 -1.51973982E+01  7.59869910E+00  7.59869910E+00 -1.51973982E+01  7.59869910E+00
  7.59869910E+00 -1.51973982E+01  7.59869910E+00  7.59869910E+00 -1.51973982E+01
  7.59869910E+00  7.59869910E+00 -1.51973982E+01  7.59869910E+00  7.59869910E+00
 -1.51973982E+01  7.59869910E+00  7.59869910E+00 -1.51973982E+01  7.59869910E+00
  7.59869910E+00 -1.51973982E+01  7.59869910E+00  7.59869910E+00 -1.51973982E+01
  7.59869910E+00  7.59869910E+00 -1.51973982E+01  7.59869910E+00  7.59869910E+00
 -1.51973982E+01  7.59869910E+00  7.59869910E+00 -1.51973982E+01  7.59869910E+00
  7.59869910E+00 -1.51973982E+01  7.59869910E+00  7.59869910E+00 -1.51973982E+01
  7.59869910E+00  7.59869910E+00 -1.51973982E+01  7.59869910E+00  7.59869910E+00
 -1.51973982E+01  7.59869910E+00  7.59869910E+00 -1.51973982E+01  7.59869910E+00
  7.59869910E+00 -1.51973982E+01  7.59869910E+00  7.59869910E+00 -1.51973982E+01
  7.59869910E+00  7.59869910E+00 -1.51973982E+01  7.59869910E+00  7.59869910E+00
 -1.51973982E+01  7.59869910E+00  7.59869910E+00 -1.51973982E+01  7.59869910E+00
  7.59869910E+00 -1.51973982E+01  7.59869910E+00  7.59869910E+00 -1.51973982E+01
  7.59869910E+00  7.59869910E+00 -1.51973982E+01  7.59869910E+00  7.59869910E+00
 -1.51973982E+01  7.59869910E+00  7.59869910E+00 -1.51973982E+01  7.59869910E+00
  7.59869910E+00 -1.51973982E+01  7.59869910E+00  7.59869910E+00 -1.51973982E+01
  7.59869910E+00  7.59869910E+00 -1.51973982E+01  7.59869910E+00  7.59869910E+00
 -1.51973982E+01  7.59869910E+00  7.59869910E+00 -1.51973982E+01  7.59869910E+00
  7.59869910E+00 -1.51973982E+01  7.59869910E+00  7.59869910E+00 -1.51973982E+01
  7.59869910E+00  7.59869910E+00 -1.51973982E+01  7.59869910E+00  7.59869910E+00
 -1.51973982E+01  7.59869910E+00  7.59869910E+00 -1.51973982E+01  7.59869910E+00
  7.59869910E+00 -1.51973982E+01  7.59869910E+00  7.59869910E+00 -1.51973982E+01
  7.59869910E+00  7.59869910E+00 -1.51973982E+01  7.59869910E+00  7.59869910E+00
 -1.51973982E+01  7.59869910E+00  7.59869910E+00 -1.51973982E+01  7.59869910E+00
  7.59869910E+00 -1.51973982E+01  7.59869910E+00  7.59869910E+00 -1.51973982E+01
  7.59869910E+00  7.59869910E+00 -1.51973982E+01  7.59869910E+00  7.59869910E+00
 -1.51973982E+01  7.59869910E+00  7.59869910E+00 -1.51973982E+01  7.59869910E+00
  7.59869910E+00 -1.51973982E+01  7.59869910E+00  7.59869910E+00 -1.51973982E+01
  7.59869910E+00  7.59869910E+00 -1.51973982E+01  7.59869910E+00  7.59869910E+00
 -1.51973982E+01  7.59869910E+00  7.59869910E+00 -1.51973982E+01  7.59869910E+00
  7.59869910E+00 -1.51973982E+01  7.59869910E+00  7.59869910E+00 -1.51973982E+01
  7.59869910E+00  7.59869910E+00 -1.51973982E+01  7.59869910E+00  7.59869910E+00
 -1.51973982E+01  7.59869910E+00  7.59869910E+00 -1.51973982E+01  7.59869910E+00
  7.59869910E+00 -1.51973982E+01  7.59869910E+00  7.59869910E+00 -1.51973982E+01
  7.59869910E+00  7.59869910E+00 -1.51973982E+01  7.59869910E+00  7.59869910E+00
 -1.51973982E+01  7.59869910E+00  7.59869910E+00 -1.51973982E+01  7.59869910E+00
  7.59869910E+00 -1.51973982E+01  7.59869910E+00  7.59869910E+00 -1.51973982E+01
  7.59869910E+00  7.59869910E+00 -1.51973982E+01  7.59869910E+00  7.59869910E+00
 -1.51973982E+01  7.59869910E+00  7.59869910E+00 -1.51973982E+01  7.59869910E+00
  7.59869910E+00 -1.51973982E+01  7.59869910E+00  7.59869910E+00 -1.51973982E+01
  7.59869910E+00  7.59869910E+00 -1.51973982E+01  7.59869910E+00  7.59869910E+00
 -1.51973982E+01  7.59869910E+00  7.59869910E+00 -1.51973982E+01  7.59869910E+00
  7.59869910E+00 -1.51973982E+01  7.59869910E+00  7.59869910E+00 -1.51973982E+01
  7.59869910E+00  7.59869910E+00 -1.51973982E+01  7.59869910E+00  7.59869910E+00
 -1.51973982E+01  7.59869910E+00  7.59869910E+00 -1.51973982E+01  7.59869910E+00
  7.59869910E+00 -1.51973982E+01  7.59869910E+00  7.59869910E+00 -1.51973982E+01
  7.59869910E+00  7.59869910E+00 -1.51973982E+01  7.59869910E+00  7.59869910E+00
 -1.51973982E+01  7.59869910E+00  7.59869910E+00 -1.51973982E+01  7.59869910E+00
  7.59869910E+00 -1.51973982E+01  7.59869910E+00  7.59869910E+00 -1.51973982E+01
  7.59869910E+00  7.59869910E+00 -1.51973982E+01  7.59869910E+00  7.59869910E+00
 -1.51973982E+01  7.59869910E+00  7.59869910E+00 -1.51973982E+01  7.59869910E+00
  7.59869910E+00 -1.51973982E+01  7.59869910E+00  7.59869910E+00 -1.51973982E+01
  7.59869910E+00  7.59869910E+00 -1.51973982E+01  7.59869910E+00  7.59869910E+00
 -1.51973982E+01  7.59869910E+00  7.59869910E+00 -1.51973982E+01  7.59869910E+00
  7.59869910E+00 -1.51973982E+01  7.59869910E+00  7.59869910E+00 -1.51973982E+01
  7.59869910E+00  7.59869910E+00 -1.51973982E+01  7.59869910E+00  7.59869910E+00
 -1.51973982E+01  7.59869910E+00  7.59869910E+00 -1.51973982E+01  7.59869910E+00
  7.59869910E+00 -1.51973982E+01  7.59869910E+00  7.59869910E+00 -1.51973982E+01
  7.59869910E+00  7.59869910E+00 -1.51973982E+01  7.59869910E+00  7.59869910E+00
 -1.51973982E+01  7.59869910E+00  7.59869910E+00 -1.51973982E+01  7.59869910E+00
  7.59869910E+00 -1.51973982E+01  7.59869910E+00  7.59869910E+00 -1.51973982E+01
  7.59869910E+00  7.59869910E+00 -1.51973982E+01  7.59869910E+00  7.59869910E+00
 -1.51973982E+01  7.59869910E+00  7.59869910E+00 -1.51973982E+01  7.59869910E+00
  7.59869910E+00 -1.51973982E+01  7.59869910E+00  7.59869910E+00 -1.51973982E+01
  7.59869910E+00  7.59869910E+00 -1.51973982E+01  7.59869910E+00  7.59869910E+00
 -1.51973982E+01  7.59869910E+00  7.59869910E+00 -1.51973982E+01  7.59869910E+00
  7.59869910E+00 -1.51973982E+01  7.59869910E+00  7.59869910E+00 -1.51973982E+01
  7.59869910E+00  7.59869910E+00 -1.51973982E+01  7.59869910E+00  7.59869910E+00
 -1.51973982E+01  7.59869910E+00  7.59869910E+00 -1.51973982E+01  7.59869910E+00
  7.59869910E+00 -1.51973982E+01  7.59869910E+00  7.59869910E+00 -1.51973982E+01
  7.59869910E+00  7.59869910E+00 -1.51973982E+01  7.59869910E+00  7.59869910E+00
 -1.51973982E+01  7.59869910E+00  7.59869910E+00 -1.51973982E+01  7.59869910E+00
  7.59869910E+00 -1.51973982E+01  7.59869910E+00  7.59869910E+00 -1.51973982E+01
  7.59869910E+00  7.59869910E+00 -1.51973982E+01  7.59869910E+00  7.59869910E+00
 -1.51973982E+01  7.59869910E+00  7.59869910E+00 -1.51973982E+01  7.59869910E+00
  7.59869910E+00 -1.51973982E+01  7.59869910E+00  7.59869910E+00 -1.51973982E+01
  7.59869910E+00  7.59869910E+00 -1.51973982E+01  7.59869910E+00  7.59869910E+00
 -1.51973982E+01  7.59869910E+00  7.59869910E+00 -1.51973982E+01  7.59869910E+00
  7.59869910E+00 -1.51973982E+01  7.59869910E+00  7.59869910E+00 -1.51973982E+01
  7.59869910E+00  7.59869910E+00 -1.51973982E+01  7.59869910E+00  7.59869910E+00
 -1.51973982E+01  7.59869910E+00  7.59869910E+00 -1.51973982E+01  7.59869910E+00
  7.59869910E+00 -1.51973982E+01  7.59869910E+00  7.59869910E+00 -1.51973982E+01
  7.59869910E+00  7.59869910E+00 -1.51973982E+01  7.59869910E+00  7.59869910E+00
 -1.51973982E+01  7.59869910E+00  7.59869910E+00 -1.51973982E+01  7.59869910E+00
  7.59869910E+00 -1.51973982E+01  7.59869910E+00  7.59869910E+00 -1.51973982E+01
  7.59869910E+00  7.59869910E+00 -1.51973982E+01  7.59869910E+00  7.59869910E+00
 -1.51973982E+01  7.59869910E+00  7.59869910E+00 -1.51973982E+01  7.59869910E+00
  7.59869910E+00 -1.51973982E+01  7.59869910E+00  7.59869910E+00 -1.51973982E+01
  7.59869910E+00  7.59869910E+00 -1.51973982E+01  7.59869910E+00  7.59869910E+00
 -1.51973982E+01  7.59869910E+00  7.59869910E+00 -1.51973982E+01  7.59869910E+00
  7.59869910E+00 -1.51973982E+01  7.59869910E+00  7.59869910E+00 -1.51973982E+01
  7.59869910E+00  7.59869910E+00 -1.51973982E+01  7.59869910E+00  7.59869910E+00
 -1.51973982E+01  7.59869910E+00  7.59869910E+00 -1.51973982E+01  7.59869910E+00
  7.59869910E+00 -1.51973982E+01  7.59869910E+00  7.59869910E+00 -1.51973982E+01
  7.59869910E+00  7.59869910E+00 -1.51973982E+01  7.59869910E+00  7.59869910E+00
 -1.51973982E+01  7.59869910E+00  7.59869910E+00 -1.51973982E+01  7.59869910E+00
  7.59869910E+00 -1.51973982E+01  7.59869910E+00  7.59869910E+00 -1.51973982E+01
  7.59869910E+00  7.59869910E+00 -1.51973982E+01  7.59869910E+00  7.59869910E+00
 -1.51973982E+01  7.59869910E+00  7.59869910E+00 -1.51973982E+01  7.59869910E+00
  7.59869910E+00 -1.51973982E+01  7.59869910E+00  7.59869910E+00 -1.51973982E+01
  7.59869910E+00  7.59869910E+00 -1.51973982E+01  7.59869910E+00  7.59869910E+00
 -1.51973982E+01  7.59869910E+00  7.59869910E+00 -1.51973982E+01  7.59869910E+00
  7.59869910E+00 -1.51973982E+01  7.59869910E+00  7.59869910E+00 -1.51973982E+01
  7.59869910E+00  7.59869910E+00 -1.51973982E+01  7.59869910E+00  7.59869910E+00
 -1.51973982E+01  7.59869910E+00  7.59869910E+00 -1.51973982E+01  7.59869910E+00
  7.59869910E+00 -1.51973982E+01  7.59869910E+00  7.59869910E+00 -1.51973982E+01
  7.59869910E+00  7.59869910E+00 -1.51973982E+01  7.59869910E+00  7.59869910E+00
 -1.51973982E+01  7.59869910E+00  7.59869910E+00 -1.51973982E+01  7.59869910E+00
  7.59869910E+00 -1.51973982E+01  7.59869910E+00  7.59869910E+00 -1.51973982E+01
  7.59869910E+00  7.59869910E+00 -1.51973982E+01  7.59869910E+00  7.59869910E+00
 -1.51973982E+01  7.59869910E+00  7.59869910E+00 -1.51973982E+01  7.59869910E+00
  7.59869910E+00 -1.51973982E+01  7.59869910E+00  7.59869910E+00 -1.51973982E+01
  7.59869910E+00  7.59869910E+00 -1.51973982E+01  7.59869910E+00  7.59869910E+00
 -1.51973982E+01  7.59869910E+00  7.59869910E+00 -1.51973982E+01  7.59869910E+00
  7.59869910E+00 -1.51973982E+01  7.59869910E+00  7.59869910E+00 -1.51973982E+01
  7.59869910E+00  7.59869910E+00 -1.51973982E+01  7.59869910E+00  7.59869910E+00
 -1.51973982E+01  7.59869910E+00  7.59869910E+00 -1.51973982E+01  7.59869910E+00
  7.59869910E+00 -1.51973982E+01  7.59869910E+00  7.59869910E+00 -1.51973982E+01
  7.59869910E+00  7.59869910E+00 -1.51973982E+01  7.59869910E+00  7.59869910E+00
 -1.51973982E+01  7.59869910E+00  7.59869910E+00 -1.51973982E+01  7.59869910E+00
  7.59869910E+00 -1.51973982E+01  7.59869910E+00  7.59869910E+00 -1.51973982E+01
  7.59869910E+00  7.59869910E+00 -1.51973982E+01  7.59869910E+00  7.59869910E+00
 -1.51973982E+01  7.59869910E+00  7.59869910E+00 -1.51973982E+01  7.59869910E+00
  7.59869910E+00 -1.51973982E+01  7.59869910E+00  7.59869910E+00 -1.51973982E+01
  7.59869910E+00  7.59869910E+00 -1.51973982E+01  7.59869910E+00  7.59869910E+00
 -1.51973982E+01  7.59869910E+00  7.59869910E+00 -1.51973982E+01  7.59869910E+00
  7.59869910E+00 -1.51973982E+01  7.59869910E+00  7.59869910E+00 -1.51973982E+01
  7.59869910E+00  7.59869910E+00 -1.51973982E+01  7.59869910E+00  7.59869910E+00
 -1.51973982E+01  7.59869910E+00  7.59869910E+00 -1.51973982E+01  7.59869910E+00
  7.59869910E+00 -1.51973982E+01  7.59869910E+00  7.59869910E+00 -1.51973982E+01
  7.59869910E+00  7.59869910E+00 -1.51973982E+01  7.59869910E+00  7.59869910E+00
 -1.51973982E+01  7.59869910E+00  7.59869910E+00 -1.51973982E+01  7.59869910E+00
  7.59869910E+00 -1.51973982E+01  7.59869910E+00  7.59869910E+00 -1.51973982E+01
  7.59869910E+00  7.59869910E+00 -1.51973982E+01  7.59869910E+00  7.59869910E+00
 -1.51973982E+01  7.59869910E+00  7.59869910E+00 -1.51973982E+01  7.59869910E+00
  7.59869910E+00 -1.51973982E+01  7.59869910E+00  7.59869910E+00 -1.51973982E+01
  7.59869910E+00  7.59869910E+00 -1.51973982E+01  7.59869910E+00  7.59869910E+00
 -1.51973982E+01  7.59869910E+00  7.59869910E+00 -1.51973982E+01  7.59869910E+00
  7.59869910E+00 -1.51973982E+01  7.59869910E+00  7.59869910E+00 -1.51973982E+01
  7.59869910E+00  7.59869910E+00 -1.51973982E+01  7.59869910E+00  7.59869910E+00
 -1.51973982E+01  7.59869910E+00  7.59869910E+00 -1.51973982E+01  7.59869910E+00
  7.59869910E+00 -1.51973982E+01  7.59869910E+00  7.59869910E+00 -1.51973982E+01
  7.59869910E+00  7.59869910E+00 -1.51973982E+01  7.59869910E+00  7.59869910E+00
 -1.51973982E+01  7.59869910E+00  7.59869910E+00 -1.51973982E+01  7.59869910E+00
  7.59869910E+00 -1.51973982E+01  7.59869910E+00  7.59869910E+00 -1.51973982E+01
  7.59869910E+00  7.59869910E+00 -1.51973982E+01  7.59869910E+00  7.59869910E+00
 -1.51973982E+01  7.59869910E+00  7.59869910E+00 -1.51973982E+01  7.59869910E+00
  7.59869910E+00 -1.51973982E+01  7.59869910E+00  7.59869910E+00 -1.51973982E+01
  7.59869910E+00  7.59869910E+00 -1.51973982E+01  7.59869910E+00  7.59869910E+00
 -1.51973982E+01  7.59869910E+00  7.59869910E+00 -1.51973982E+01  7.59869910E+00
  7.59869910E+00 -1.51973982E+01  7.59869910E+00  7.59869910E+00 -1.51973982E+01
  7.59869910E+00  7.59869910E+00 -1.51973982E+01  7.59869910E+00  7.59869910E+00
 -1.51973982E+01  7.59869910E+00  7.59869910E+00 -1.51973982E+01  7.59869910E+00
  7.59869910E+00 -1.51973982E+01  7.59869910E+00  7.59869910E+00 -1.51973982E+01
  7.59869910E+00  7.59869910E+00 -1.51973982E+01  7.59869910E+00  7.59869910E+00
 -1.51973982E+01  7.59869910E+00  7.59869910E+00 -1.51973982E+01  7.59869910E+00
  7.59869910E+00 -1.51973982E+01  7.59869910E+00  7.59869910E+00 -1.51973982E+01
  7.59869910E+00  7.59869910E+00 -1.51973982E+01  7.59869910E+00  7.59869910E+00
 -1.51973982E+01  7.59869910E+00  7.59869910E+00 -1.51973982E+01  7.59869910E+00
  7.59869910E+00 -1.51973982E+01  7.59869910E+00  7.59869910E+00 -1.51973982E+01
  7.59869910E+00  7.59869910E+00 -1.51973982E+01  7.59869910E+00  7.59869910E+00
 -1.51973982E+01  7.59869910E+00  7.59869910E+00 -1.51973982E+01  7.59869910E+00
  7.59869910E+00 -1.51973982E+01  7.59869910E+00  7.59869910E+00 -1.51973982E+01
  7.59869910E+00  7.59869910E+00 -1.51973982E+01  7.59869910E+00  7.59869910E+00
 -1.51973982E+01  7.59869910E+00  7.59869910E+00 -1.51973982E+01  7.59869910E+00
  7.59869910E+00 -1.51973982E+01  7.59869910E+00  7.59869910E+00 -1.51973982E+01
  7.59869910E+00  7.59869910E+00 -1.51973982E+01  7.59869910E+00  7.59869910E+00
 -1.51973982E+01  7.59869910E+00  7.59869910E+00 -1.51973982E+01  7.59869910E+00
  7.59869910E+00 -1.51973982E+01  7.59869910E+00  7.59869910E+00 -1.51973982E+01
  7.59869910E+00  7.59869910E+00 -1.51973982E+01  7.59869910E+00  7.59869910E+00
 -1.51973982E+01  7.59869910E+00  7.59869910E+00 -1.51973982E+01  7.59869910E+00
  7.59869910E+00 -1.51973982E+01  7.59869910E+00  7.59869910E+00 -1.51973982E+01
  7.59869910E+00  7.59869910E+00 -1.51973982E+01  7.59869910E+00  7.59869910E+00
 -1.51973982E+01  7.59869910E+00  7.59869910E+00 -1.51973982E+01  7.59869910E+00
  7.59869910E+00 -1.51973982E+01  7.59869910E+00  7.59869910E+00 -1.51973982E+01
  7.59869910E+00  7.59869910E+00 -1.51973982E+01  7.59869910E+00  7.59869910E+00
 -1.51973982E+01  7.59869910E+00  7.59869910E+00 -1.51973982E+01  7.59869910E+00
  7.59869910E+00 -1.51973982E+01  7.59869910E+00  7.59869910E+00 -1.51973982E+01
  7.59869910E+00  7.59869910E+00 -1.51973982E+01  7.59869910E+00  7.59869910E+00
 -1.51973982E+01  7.59869910E+00  7.59869910E+00 -1.51973982E+01  7.59869910E+00
  7.59869910E+00 -1.51973982E+01  7.59869910E+00  7.59869910E+00 -1.51973982E+01
  7.59869910E+00  7.59869910E+00 -1.51973982E+01  7.59869910E+00  7.59869910E+00
 -1.51973982E+01  7.59869910E+00  7.59869910E+00 -1.51973982E+01  7.59869910E+00
  7.59869910E+00 -1.51973982E+01  7.59869910E+00  7.59869910E+00 -1.51973982E+01
  7.59869910E+00  7.59869910E+00 -1.51973982E+01  7.59869910E+00  7.59869910E+00
 -1.51973982E+01  7.59869910E+00  7.59869910E+00 -1.51973982E+01  7.59869910E+00
  7.59869910E+00 -1.51973982E+01  7.59869910E+00  7.59869910E+00 -1.51973982E+01
  7.59869910E+00  7.59869910E+00 -1.51973982E+01  7.59869910E+00  7.59869910E+00
 -1.51973982E+01  7.59869910E+00  7.59869910E+00 -1.51973982E+01  7.59869910E+00
  7.59869910E+00 -1.51973982E+01  7.59869910E+00  7.59869910E+00 -1.51973982E+01
  7.59869910E+00  7.59869910E+00 -1.51973982E+01  7.59869910E+00  7.59869910E+00
 -1.51973982E+01  7.59869910E+00  7.59869910E+00 -1.51973982E+01  7.59869910E+00
  7.59869910E+00 -1.51973982E+01  7.59869910E+00  7.59869910E+00 -1.51973982E+01
  7.59869910E+00  7.59869910E+00 -1.51973982E+01  7.59869910E+00  7.59869910E+00
 -1.51973982E+01  7.59869910E+00  7.59869910E+00 -1.51973982E+01  7.59869910E+00
  7.59869910E+00 -1.51973982E+01  7.59869910E+00  7.59869910E+00 -1.51973982E+01
  7.59869910E+00  7.59869910E+00 -1.51973982E+01  7.59869910E+00  7.59869910E+00
 -1.51973982E+01  7.59869910E+00  7.59869910E+00 -1.51973982E+01  7.59869910E+00
  7.59869910E+00 -1.51973982E+01  7.59869910E+00  7.59869910E+00 -1.51973982E+01
  7.59869910E+00  7.59869910E+00 -1.51973982E+01  7.59869910E+00  7.59869910E+00
 -1.51973982E+01  7.59869910E+00  7.59869910E+00 -1.51973982E+01  7.59869910E+00
  7.59869910E+00 -1.51973982E+01  7.59869910E+00  7.59869910E+00 -1.51973982E+01
  7.59869910E+00  7.59869910E+00 -1.51973982E+01  7.59869910E+00  7.59869910E+00
 -1.51973982E+01  7.59869910E+00  7.59869910E+00 -1.51973982E+01  7.59869910E+00
  7.59869910E+00 -1.51973982E+01  7.59869910E+00  7.59869910E+00 -1.51973982E+01
  7.59869910E+00  7.59869910E+00 -1.51973982E+01  7.59869910E+00  7.59869910E+00
 -1.51973982E+01  7.59869910E+00  7.59869910E+00 -1.51973982E+01  7.59869910E+00
  7.59869910E+00 -1.51973982E+01  7.59869910E+00  7.59869910E+00 -1.51973982E+01
  7.59869910E+00  7.59869910E+00 -1.51973982E+01  7.59869910E+00  7.59869910E+00
 -1.51973982E+01  7.59869910E+00  7.59869910E+00 -1.51973982E+01  7.59869910E+00
  7.59869910E+00 -1.51973982E+01  7.59869910E+00  7.59869910E+00 -1.51973982E+01
  7.59869910E+00  7.59869910E+00 -1.51973982E+01  7.59869910E+00  7.59869910E+00
 -1.51973982E+01  7.59869910E+00  7.59869910E+00 -1.51973982E+01  7.59869910E+00
  7.59869910E+00 -1.51973982E+01  7.59869910E+00  7.59869910E+00 -1.51973982E+01
  7.59869910E+00  7.59869910E+00 -1.51973982E+01  7.59869910E+00  7.59869910E+00
 -1.51973982E+01  7.59869910E+00  7.59869910E+00 -1.51973982E+01  7.59869910E+00
  7.59869910E+00 -1.51973982E+01  7.59869910E+00  7.59869910E+00 -1.51973982E+01
  7.59869910E+00  7.59869910E+00 -1.51973982E+01  7.59869910E+00  7.59869910E+00
 -1.51973982E+01  7.59869910E+00  7.59869910E+00 -1.51973982E+01  7.59869910E+00
  7.59869910E+00 -1.51973982E+01  7.59869910E+00  7.59869910E+00 -1.51973982E+01
  7.59869910E+00  7.59869910E+00 -1.51973982E+01  7.59869910E+00  7.59869910E+00
 -1.51973982E+01  7.59869910E+00  7.59869910E+00 -1.51973982E+01  7.59869910E+00
  7.59869910E+00 -1.51973982E+01  7.59869910E+00  7.59869910E+00 -1.51973982E+01
  7.59869910E+00  7.59869910E+00 -1.51973982E+01  7.59869910E+00  7.59869910E+00
 -1.51973982E+01  7.59869910E+00  7.59869910E+00 -1.51973982E+01  7.59869910E+00
  7.59869910E+00 -1.51973982E+01  7.59869910E+00  7.59869910E+00 -1.51973982E+01
  7.59869910E+00  7.59869910E+00 -1.51973982E+01  7.59869910E+00  7.59869910E+00
 -1.51973982E+01  7.59869910E+00  7.59869910E+00 -1.51973982E+01  7.59869910E+00
  7.59869910E+00 -1.51973982E+01  7.59869910E+00  7.59869910E+00 -1.51973982E+01
  7.59869910E+00  7.59869910E+00 -1.51973982E+01  7.59869910E+00  7.59869910E+00
 -1.51973982E+01  7.59869910E+00  7.59869910E+00 -1.51973982E+01  7.59869910E+00
  7.59869910E+00 -1.51973982E+01  7.59869910E+00  7.59869910E+00 -1.51973982E+01
  7.59869910E+00  7.59869910E+00 -1.51973982E+01  7.59869910E+00  7.59869910E+00
 -1.51973982E+01  7.59869910E+00  7.59869910E+00 -1.51973982E+01  7.59869910E+00
  7.59869910E+00 -1.51973982E+01  7.59869910E+00  7.59869910E+00 -1.51973982E+01
  7.59869910E+00  7.59869910E+00 -1.51973982E+01  7.59869910E+00  7.59869910E+00
 -1.51973982E+01  7.59869910E+00  7.59869910E+00 -1.51973982E+01  7.59869910E+00
  7.59869910E+00 -1.51973982E+01  7.59869910E+00  7.59869910E+00 -1.51973982E+01
  7.59869910E+00  7.59869910E+00 -1.51973982E+01  7.59869910E+00  7.59869910E+00
 -1.51973982E+01  7.59869910E+00  7.59869910E+00 -1.51973982E+01  7.59869910E+00
  7.59869910E+00 -1.51973982E+01  7.59869910E+00  7.59869910E+00 -1.51973982E+01
  7.59869910E+00  7.59869910E+00 -1.51973982E+01  7.59869910E+00  7.59869910E+00
 -1.51973982E+01  7.59869910E+00  7.59869910E+00 -1.51973982E+01  7.59869910E+00
  7.59869910E+00 -1.51973982E+01  7.59869910E+00  7.59869910E+00 -1.51973982E+01
  7.59869910E+00  7.59869910E+00 -1.51973982E+01  7.59869910E+00  7.59869910E+00
 -1.51973982E+01  7.59869910E+00  7.59869910E+00 -1.51973982E+01  7.59869910E+00
  7.59869910E+00 -1.51973982E+01  7.59869910E+00  7.59869910E+00 -1.51973982E+01
  7.59869910E+00  7.59869910E+00 -1.51973982E+01  7.59869910E+00  7.59869910E+00
 -1.51973982E+01  7.59869910E+00  7.59869910E+00 -1.51973982E+01  7.59869910E+00
  7.59869910E+00 -1.51973982E+01  7.59869910E+00  7.59869910E+00 -1.51973982E+01
  7.59869910E+00  7.59869910E+00 -1.51973982E+01  7.59869910E+00  7.59869910E+00
 -1.51973982E+01  7.59869910E+00  7.59869910E+00 -1.51973982E+01  7.59869910E+00
  7.59869910E+00 -1.51973982E+01  7.59869910E+00  7.59869910E+00 -1.51973982E+01
  7.59869910E+00  7.59869910E+00 -1.51973982E+01  7.59869910E+00  7.59869910E+00
 -1.51973982E+01  7.59869910E+00  7.59869910E+00 -1.51973982E+01  7.59869910E+00
  7.59869910E+00 -1.51973982E+01  7.59869910E+00  7.59869910E+00 -1.51973982E+01
  7.59869910E+00  7.59869910E+00 -1.51973982E+01  7.59869910E+00  7.59869910E+00
 -1.51973982E+01  7.59869910E+00  7.59869910E+00 -1.51973982E+01  7.59869910E+00
  7.59869910E+00 -1.51973982E+01  7.59869910E+00  7.59869910E+00 -1.51973982E+01
  7.59869910E+00  7.59869910E+00 -1.51973982E+01  7.59869910E+00  7.59869910E+00
 -1.51973982E+01  7.59869910E+00  7.59869910E+00 -1.51973982E+01  7.59869910E+00
  7.59869910E+00 -1.51973982E+01  7.59869910E+00  7.59869910E+00 -1.51973982E+01
  7.59869910E+00  7.59869910E+00 -1.51973982E+01  7.59869910E+00  7.59869910E+00
 -1.51973982E+01  7.59869910E+00  7.59869910E+00 -1.51973982E+01  7.59869910E+00
  7.59869910E+00 -1.51973982E+01  7.59869910E+00  7.59869910E+00 -1.51973982E+01
  7.59869910E+00  7.59869910E+00 -1.51973982E+01  7.59869910E+00  7.59869910E+00
 -1.51973982E+01  7.59869910E+00  7.59869910E+00 -1.51973982E+01  7.59869910E+00
  7.59869910E+00 -1.51973982E+01  7.59869910E+00  7.59869910E+00 -1.51973982E+01
  7.59869910E+00  7.59869910E+00 -1.51973982E+01  7.59869910E+00  7.59869910E+00
 -1.51973982E+01  7.59869910E+00  7.59869910E+00 -1.51973982E+01  7.59869910E+00
  7.59869910E+00 -1.51973982E+01  7.59869910E+00  7.59869910E+00 -1.51973982E+01
  7.59869910E+00  7.59869910E+00 -1.51973982E+01  7.59869910E+00  7.59869910E+00
 -1.51973982E+01  7.59869910E+00  7.59869910E+00 -1.51973982E+01  7.59869910E+00
  7.59869910E+00 -1.51973982E+01  7.59869910E+00  7.59869910E+00 -1.51973982E+01
  7.59869910E+00  7.59869910E+00 -1.51973982E+01  7.59869910E+00  7.59869910E+00
 -1.51973982E+01  7.59869910E+00  7.59869910E+00 -1.51973982E+01  7.59869910E+00
  7.59869910E+00 -1.51973982E+01  7.59869910E+00  7.59869910E+00 -1.51973982E+01
  7.59869910E+00  7.59869910E+00 -1.51973982E+01  7.59869910E+00  7.59869910E+00
 -1.51973982E+01  7.59869910E+00  7.59869910E+00 -1.51973982E+01  7.59869910E+00
  7.59869910E+00 -1.51973982E+01  7.59869910E+00  7.59869910E+00 -1.51973982E+01
  7.59869910E+00  7.59869910E+00 -1.51973982E+01  7.59869910E+00  7.59869910E+00
 -1.51973982E+01  7.59869910E+00  7.59869910E+00 -1.51973982E+01  7.59869910E+00
  7.59869910E+00 -1.51973982E+01  7.59869910E+00  7.59869910E+00 -1.51973982E+01
  7.59869910E+00  7.59869910E+00 -1.51973982E+01  7.59869910E+00  7.59869910E+00
 -1.51973982E+01  7.59869910E+00  7.59869910E+00 -1.51973982E+01  7.59869910E+00
  7.59869910E+00 -1.51973982E+01  7.59869910E+00  7.59869910E+00 -1.51973982E+01
  7.59869910E+00  7.59869910E+00 -1.51973982E+01  7.59869910E+00  7.59869910E+00
 -1.51973982E+01  7.59869910E+00  7.59869910E+00 -1.51973982E+01  7.59869910E+00
  7.59869910E+00 -1.51973982E+01  7.59869910E+00  7.59869910E+00 -1.51973982E+01
  7.59869910E+00  7.59869910E+00 -1.51973982E+01  7.59869910E+00  7.59869910E+00
 -1.51973982E+01  7.59869910E+00  7.59869910E+00 -1.51973982E+01  7.59869910E+00
  7.59869910E+00 -1.51973982E+01  7.59869910E+00  7.59869910E+00 -1.51973982E+01
  7.59869910E+00  7.59869910E+00 -1.51973982E+01  7.59869910E+00  7.59869910E+00
 -1.51973982E+01  7.59869910E+00  7.59869910E+00 -1.51973982E+01  7.59869910E+00
  7.59869910E+00 -1.51973982E+01  7.59869910E+00  7.59869910E+00 -1.51973982E+01
  7.59869910E+00  7.59869910E+00 -1.51973982E+01  7.59869910E+00  7.59869910E+00
 -1.51973982E+01  7.59869910E+00  7.59869910E+00 -1.51973982E+01  7.59869910E+00
  7.59869910E+00 -1.51973982E+01  7.59869910E+00  7.59869910E+00 -1.51973982E+01
  7.59869910E+00  7.59869910E+00 -1.51973982E+01  7.59869910E+00  7.59869910E+00
 -1.51973982E+01  7.59869910E+00  7.59869910E+00 -1.51973982E+01  7.59869910E+00
  7.59869910E+00 -1.51973982E+01  7.59869910E+00  7.59869910E+00 -1.51973982E+01
  7.59869910E+00  7.59869910E+00 -1.51973982E+01  7.59869910E+00  7.59869910E+00
 -1.51973982E+01  7.59869910E+00  7.59869910E+00 -1.51973982E+01  7.59869910E+00
  7.59869910E+00 -1.51973982E+01  7.59869910E+00  7.59869910E+00 -1.51973982E+01
  7.59869910E+00  7.59869910E+00 -1.51973982E+01  7.59869910E+00  7.59869910E+00
 -1.51973982E+01  7.59869910E+00  7.59869910E+00 -1.51973982E+01  7.59869910E+00
  7.59869910E+00 -1.51973982E+01  7.59869910E+00  7.59869910E+00 -1.51973982E+01
  7.59869910E+00  7.59869910E+00 -1.51973982E+01  7.59869910E+00  7.59869910E+00
 -1.51973982E+01  7.59869910E+00  7.59869910E+00 -1.51973982E+01  7.59869910E+00
  7.59869910E+00 -1.51973982E+01  7.59869910E+00  7.59869910E+00 -1.51973982E+01
  7.59869910E+00  7.59869910E+00 -1.51973982E+01  7.59869910E+00  7.59869910E+00
 -1.51973982E+01  7.59869910E+00  7.59869910E+00 -1.51973982E+01  7.59869910E+00
  7.59869910E+00 -1.51973982E+01  7.59869910E+00  7.59869910E+00 -1.51973982E+01
  7.59869910E+00  7.59869910E+00 -1.51973982E+01  7.59869910E+00  7.59869910E+00
 -1.51973982E+01  7.59869910E+00  7.59869910E+00 -1.51973982E+01  7.59869910E+00
  7.59869910E+00 -1.51973982E+01  7.59869910E+00  7.59869910E+00 -1.51973982E+01
  7.59869910E+00  7.59869910E+00 -1.51973982E+01  7.59869910E+00  7.59869910E+00
 -1.51973982E+01  7.59869910E+00  7.59869910E+00 -1.51973982E+01  7.59869910E+00
  7.59869910E+00 -1.51973982E+01  7.59869910E+00  7.59869910E+00 -1.51973982E+01
  7.59869910E+00  7.59869910E+00 -1.51973982E+01  7.59869910E+00  7.59869910E+00
 -1.51973982E+01  7.59869910E+00  7.59869910E+00 -1.51973982E+01  7.59869910E+00
  7.59869910E+00 -1.51973982E+01  7.59869910E+00  7.59869910E+00 -1.51973982E+01
  7.59869910E+00  7.59869910E+00 -1.51973982E+01  7.59869910E+00  7.59869910E+00
 -1.51973982E+01  7.59869910E+00  7.59869910E+00 -1.51973982E+01  7.59869910E+00
  7.59869910E+00 -1.51973982E+01  7.59869910E+00  7.59869910E+00 -1.51973982E+01
  7.59869910E+00  7.59869910E+00 -1.51973982E+01  7.59869910E+00  7.59869910E+00
 -1.51973982E+01  7.59869910E+00  7.59869910E+00 -1.51973982E+01  7.59869910E+00
  7.59869910E+00 -1.51973982E+01  7.59869910E+00  7.59869910E+00 -1.51973982E+01
  7.59869910E+00  7.59869910E+00 -1.51973982E+01  7.59869910E+00  7.59869910E+00
 -1.51973982E+01  7.59869910E+00  7.59869910E+00 -1.51973982E+01  7.59869910E+00
  7.59869910E+00 -1.51973982E+01  7.59869910E+00  7.59869910E+00 -1.51973982E+01
  7.59869910E+00  7.59869910E+00 -1.51973982E+01  7.59869910E+00  7.59869910E+00
 -1.51973982E+01  7.59869910E+00  7.59869910E+00 -1.51973982E+01  7.59869910E+00
  7.59869910E+00 -1.51973982E+01  7.59869910E+00  7.59869910E+00 -1.51973982E+01
  7.59869910E+00  7.59869910E+00 -1.51973982E+01  7.59869910E+00  7.59869910E+00
 -1.51973982E+01  7.59869910E+00  7.59869910E+00 -1.51973982E+01  7.59869910E+00
  7.59869910E+00 -1.51973982E+01  7.59869910E+00  7.59869910E+00 -1.51973982E+01
  7.59869910E+00  7.59869910E+00 -1.51973982E+01  7.59869910E+00  7.59869910E+00
 -1.51973982E+01  7.59869910E+00  7.59869910E+00 -1.51973982E+01  7.59869910E+00
  7.59869910E+00 -1.51973982E+01  7.59869910E+00  7.59869910E+00 -1.51973982E+01
  7.59869910E+00  7.59869910E+00 -1.51973982E+01  7.59869910E+00  7.59869910E+00
 -1.51973982E+01  7.59869910E+00  7.59869910E+00 -1.51973982E+01  7.59869910E+00
  7.59869910E+00 -1.51973982E+01  7.59869910E+00  7.59869910E+00 -1.51973982E+01
  7.59869910E+00  7.59869910E+00 -1.51973982E+01  7.59869910E+00  7.59869910E+00
 -1.51973982E+01  7.59869910E+00  7.59869910E+00 -1.51973982E+01  7.59869910E+00
  7.59869910E+00 -1.51973982E+01  7.59869910E+00  7.59869910E+00 -1.51973982E+01
  7.59869910E+00  7.59869910E+00 -1.51973982E+01  7.59869910E+00  7.59869910E+00
 -1.51973982E+01  7.59869910E+00  7.59869910E+00 -1.51973982E+01  7.59869910E+00
  7.59869910E+00 -1.51973982E+01  7.59869910E+00  7.59869910E+00 -1.51973982E+01
  7.59869910E+00  7.59869910E+00 -1.51973982E+01  7.59869910E+00  7.59869910E+00
 -1.51973982E+01  7.59869910E+00  7.59869910E+00 -1.51973982E+01  7.59869910E+00
  7.59869910E+00 -1.51973982E+01  7.59869910E+00  7.59869910E+00 -1.51973982E+01
  7.59869910E+00  7.59869910E+00 -1.51973982E+01  7.59869910E+00  7.59869910E+00
 -1.51973982E+01  7.59869910E+00  7.59869910E+00 -1.51973982E+01  7.59869910E+00
  7.59869910E+00 -1.51973982E+01  7.59869910E+00  7.59869910E+00 -1.51973982E+01
  7.59869910E+00  7.59869910E+00 -1.51973982E+01  7.59869910E+00  7.59869910E+00
 -1.51973982E+01  7.59869910E+00  7.59869910E+00 -1.51973982E+01  7.59869910E+00
  7.59869910E+00 -1.51973982E+01  7.59869910E+00  7.59869910E+00 -1.51973982E+01
  7.59869910E+00  7.59869910E+00 -1.51973982E+01  7.59869910E+00  7.59869910E+00
 -1.51973982E+01  7.59869910E+00  7.59869910E+00 -1.51973982E+01  7.59869910E+00
  7.59869910E+00 -1.51973982E+01  7.59869910E+00  7.59869910E+00 -1.51973982E+01
  7.59869910E+00  7.59869910E+00 -1.51973982E+01  7.59869910E+00  7.59869910E+00
 -1.51973982E+01  7.59869910E+00  7.59869910E+00 -1.51973982E+01  7.59869910E+00
  7.59869910E+00 -1.51973982E+01  7.59869910E+00  7.59869910E+00 -1.51973982E+01
  7.59869910E+00  7.59869910E+00 -1.51973982E+01  7.59869910E+00  7.59869910E+00
 -1.51973982E+01  7.59869910E+00  7.59869910E+00 -1.51973982E+01  7.59869910E+00
  7.59869910E+00 -1.51973982E+01  7.59869910E+00  7.59869910E+00 -1.51973982E+01
  7.59869910E+00  7.59869910E+00 -1.51973982E+01  7.59869910E+00  7.59869910E+00
 -1.51973982E+01  7.59869910E+00  7.59869910E+00 -1.51973982E+01  7.59869910E+00
  7.59869910E+00 -1.51973982E+01  7.59869910E+00  7.59869910E+00 -1.51973982E+01
  7.59869910E+00  7.59869910E+00 -1.51973982E+01  7.59869910E+00  7.59869910E+00
 -1.51973982E+01  7.59869910E+00  7.59869910E+00 -1.51973982E+01  7.59869910E+00
  7.59869910E+00 -1.51973982E+01  7.59869910E+00  7.59869910E+00 -1.51973982E+01
  7.59869910E+00  7.59869910E+00 -1.51973982E+01  7.59869910E+00  7.59869910E+00
 -1.51973982E+01  7.59869910E+00  7.59869910E+00 -1.51973982E+01  7.59869910E+00
  7.59869910E+00 -1.51973982E+01  7.59869910E+00  7.59869910E+00 -1.51973982E+01
  7.59869910E+00  7.59869910E+00 -1.51973982E+01  7.59869910E+00  7.59869910E+00
 -1.51973982E+01  7.59869910E+00  7.59869910E+00 -1.51973982E+01  7.59869910E+00
  7.59869910E+00 -1.51973982E+01  7.59869910E+00  7.59869910E+00 -1.51973982E+01
  7.59869910E+00  7.59869910E+00 -1.51973982E+01  7.59869910E+00  7.59869910E+00
 -1.51973982E+01  7.59869910E+00  7.59869910E+00 -1.51973982E+01  7.59869910E+00
  7.59869910E+00 -1.51973982E+01  7.59869910E+00  7.59869910E+00 -1.51973982E+01
  7.59869910E+00  7.59869910E+00 -1.51973982E+01  7.59869910E+00  7.59869910E+00
 -1.51973982E+01  7.59869910E+00  7.59869910E+00 -1.51973982E+01  7.59869910E+00
  7.59869910E+00 -1.51973982E+01  7.59869910E+00  7.59869910E+00 -1.51973982E+01
  7.59869910E+00  7.59869910E+00 -1.51973982E+01  7.59869910E+00  7.59869910E+00
 -1.51973982E+01  7.59869910E+00  7.59869910E+00 -1.51973982E+01  7.59869910E+00
  7.59869910E+00 -1.51973982E+01  7.59869910E+00  7.59869910E+00 -1.51973982E+01
  7.59869910E+00  7.59869910E+00 -1.51973982E+01  7.59869910E+00  7.59869910E+00
 -1.51973982E+01  7.59869910E+00  7.59869910E+00 -1.51973982E+01  7.59869910E+00
  7.59869910E+00 -1.51973982E+01  7.59869910E+00  7.59869910E+00 -1.51973982E+01
  7.59869910E+00  7.59869910E+00 -1.51973982E+01  7.59869910E+00  7.59869910E+00
 -1.51973982E+01  7.59869910E+00  7.59869910E+00 -1.51973982E+01  7.59869910E+00
  7.59869910E+00 -1.51973982E+01  7.59869910E+00  7.59869910E+00 -1.51973982E+01
  7.59869910E+00  7.59869910E+00 -1.51973982E+01  7.59869910E+00  7.59869910E+00
 -1.51973982E+01  7.59869910E+00  7.59869910E+00 -1.51973982E+01  7.59869910E+00
  7.59869910E+00 -1.51973982E+01  7.59869910E+00  7.59869910E+00 -1.51973982E+01
  7.59869910E+00  7.59869910E+00 -1.51973982E+01  7.59869910E+00  7.59869910E+00
 -1.51973982E+01  7.59869910E+00  7.59869910E+00 -1.51973982E+01  7.59869910E+00
  7.59869910E+00 -1.51973982E+01  7.59869910E+00  7.59869910E+00 -1.51973982E+01
  7.59869910E+00  7.59869910E+00 -1.51973982E+01  7.59869910E+00  7.59869910E+00
 -1.51973982E+01  7.59869910E+00  7.59869910E+00 -1.51973982E+01  7.59869910E+00
  7.59869910E+00 -1.51973982E+01  7.59869910E+00  7.59869910E+00 -1.51973982E+01
  7.59869910E+00  7.59869910E+00 -1.51973982E+01  7.59869910E+00  7.59869910E+00
 -1.51973982E+01  7.59869910E+00  7.59869910E+00 -1.51973982E+01  7.59869910E+00
  7.59869910E+00 -1.51973982E+01  7.59869910E+00  7.59869910E+00 -1.51973982E+01
  7.59869910E+00  7.59869910E+00 -1.51973982E+01  7.59869910E+00  7.59869910E+00
 -1.51973982E+01  7.59869910E+00  7.59869910E+00 -1.51973982E+01  7.59869910E+00
  7.59869910E+00 -1.51973982E+01  7.59869910E+00  7.59869910E+00 -1.51973982E+01
  7.59869910E+00  7.59869910E+00 -1.51973982E+01  7.59869910E+00  7.59869910E+00
 -1.51973982E+01  7.59869910E+00  7.59869910E+00 -1.51973982E+01  7.59869910E+00
  7.59869910E+00 -1.51973982E+01  7.59869910E+00  7.59869910E+00 -1.51973982E+01
  7.59869910E+00  7.59869910E+00 -1.51973982E+01  7.59869910E+00  7.59869910E+00
 -1.51973982E+01  7.59869910E+00  7.59869910E+00 -1.51973982E+01  7.59869910E+00
  7.59869910E+00 -1.51973982E+01  7.59869910E+00  7.59869910E+00 -1.51973982E+01
  7.59869910E+00  7.59869910E+00 -1.51973982E+01  7.59869910E+00  7.59869910E+00
 -1.51973982E+01  7.59869910E+00  7.59869910E+00 -1.51973982E+01  7.59869910E+00
  7.59869910E+00 -1.51973982E+01  7.59869910E+00  7.59869910E+00 -1.51973982E+01
  7.59869910E+00  7.59869910E+00 -1.51973982E+01  7.59869910E+00  7.59869910E+00
 -1.51973982E+01  7.59869910E+00  7.59869910E+00 -1.51973982E+01  7.59869910E+00
  7.59869910E+00 -1.51973982E+01  7.59869910E+00  7.59869910E+00 -1.51973982E+01
  7.59869910E+00  7.59869910E+00 -1.51973982E+01  7.59869910E+00  7.59869910E+00
 -1.51973982E+01  7.59869910E+00  7.59869910E+00 -1.51973982E+01  7.59869910E+00
  7.59869910E+00 -1.51973982E+01  7.59869910E+00  7.59869910E+00 -1.51973982E+01
  7.59869910E+00  7.59869910E+00 -1.51973982E+01  7.59869910E+00  7.59869910E+00
 -1.51973982E+01  7.59869910E+00  7.59869910E+00 -1.51973982E+01  7.59869910E+00
  7.59869910E+00 -1.51973982E+01  7.59869910E+00  7.59869910E+00 -1.51973982E+01
  7.59869910E+00  7.59869910E+00 -1.51973982E+01  7.59869910E+00  7.59869910E+00
 -1.51973982E+01  7.59869910E+00  7.59869910E+00 -1.51973982E+01  7.59869910E+00
  7.59869910E+00 -1.51973982E+01  7.59869910E+00  7.59869910E+00 -1.51973982E+01
  7.59869910E+00  7.59869910E+00 -1.51973982E+01  7.59869910E+00  7.59869910E+00
 -1.51973982E+01  7.59869910E+00  7.59869910E+00 -1.51973982E+01  7.59869910E+00
  7.59869910E+00 -1.51973982E+01  7.59869910E+00  7.59869910E+00 -1.51973982E+01
  7.59869910E+00  7.59869910E+00 -1.51973982E+01  7.59869910E+00  7.59869910E+00
 -1.51973982E+01  7.59869910E+00  7.59869910E+00 -1.51973982E+01  7.59869910E+00
  7.59869910E+00 -1.51973982E+01  7.59869910E+00  7.59869910E+00 -1.51973982E+01
  7.59869910E+00  7.59869910E+00 -1.51973982E+01  7.59869910E+00  7.59869910E+00
 -1.51973982E+01  7.59869910E+00  7.59869910E+00 -1.51973982E+01  7.59869910E+00
  7.59869910E+00 -1.51973982E+01  7.59869910E+00  7.59869910E+00 -1.51973982E+01
  7.59869910E+00  7.59869910E+00 -1.51973982E+01  7.59869910E+00  7.59869910E+00
 -1.51973982E+01  7.59869910E+00  7.59869910E+00 -1.51973982E+01  7.59869910E+00
  7.59869910E+00 -1.51973982E+01  7.59869910E+00  7.59869910E+00 -1.51973982E+01
  7.59869910E+00  7.59869910E+00 -1.51973982E+01  7.59869910E+00  7.59869910E+00
 -1.51973982E+01  7.59869910E+00  7.59869910E+00 -1.51973982E+01  7.59869910E+00
  7.59869910E+00 -1.51973982E+01  7.59869910E+00  7.59869910E+00 -1.51973982E+01
  7.59869910E+00  7.59869910E+00 -1.51973982E+01  7.59869910E+00  7.59869910E+00
 -1.51973982E+01  7.59869910E+00  7.59869910E+00 -1.51973982E+01  7.59869910E+00
  7.59869910E+00 -1.51973982E+01  7.59869910E+00  7.59869910E+00 -1.51973982E+01
  7.59869910E+00  7.59869910E+00 -1.51973982E+01  7.59869910E+00  7.59869910E+00
 -1.51973982E+01  7.59869910E+00  7.59869910E+00 -1.51973982E+01  7.59869910E+00
  7.59869910E+00 -1.51973982E+01  7.59869910E+00  7.59869910E+00 -1.51973982E+01
  7.59869910E+00  7.59869910E+00 -1.51973982E+01  7.59869910E+00  7.59869910E+00
 -1.51973982E+01  7.59869910E+00  7.59869910E+00 -1.51973982E+01  7.59869910E+00
  7.59869910E+00 -1.51973982E+01  7.59869910E+00  7.59869910E+00 -1.51973982E+01
  7.59869910E+00  7.59869910E+00 -1.51973982E+01  7.59869910E+00  7.59869910E+00
 -1.51973982E+01  7.59869910E+00  7.59869910E+00 -1.51973982E+01  7.59869910E+00
  7.59869910E+00 -1.51973982E+01  7.59869910E+00  7.59869910E+00 -1.51973982E+01
  7.59869910E+00  7.59869910E+00 -1.51973982E+01  7.59869910E+00  7.59869910E+00
 -1.51973982E+01  7.59869910E+00  7.59869910E+00 -1.51973982E+01  7.59869910E+00
  7.59869910E+00 -1.51973982E+01  7.59869910E+00  7.59869910E+00 -1.51973982E+01
  7.59869910E+00  7.59869910E+00 -1.51973982E+01  7.59869910E+00  7.59869910E+00
 -1.51973982E+01  7.59869910E+00  7.59869910E+00 -1.51973982E+01  7.59869910E+00
  7.59869910E+00 -1.51973982E+01  7.59869910E+00  7.59869910E+00 -1.51973982E+01
  7.59869910E+00  7.59869910E+00 -1.51973982E+01  7.59869910E+00  7.59869910E+00
 -1.51973982E+01  7.59869910E+00  7.59869910E+00 -1.51973982E+01  7.59869910E+00
  7.59869910E+00 -1.51973982E+01  7.59869910E+00  7.59869910E+00 -1.51973982E+01
  7.59869910E+00  7.59869910E+00 -1.51973982E+01  7.59869910E+00  7.59869910E+00
 -1.51973982E+01  7.59869910E+00  7.59869910E+00 -1.51973982E+01  7.59869910E+00
  7.59869910E+00 -1.51973982E+01  7.59869910E+00  7.59869910E+00 -1.51973982E+01
  7.59869910E+00  7.59869910E+00 -1.51973982E+01  7.59869910E+00  7.59869910E+00
 -1.51973982E+01  7.59869910E+00  7.59869910E+00 -1.51973982E+01  7.59869910E+00
  7.59869910E+00 -1.51973982E+01  7.59869910E+00  7.59869910E+00 -1.51973982E+01
  7.59869910E+00  7.59869910E+00 -1.51973982E+01  7.59869910E+00  7.59869910E+00
 -1.51973982E+01  7.59869910E+00  7.59869910E+00 -1.51973982E+01  7.59869910E+00
  7.59869910E+00 -1.51973982E+01  7.59869910E+00  7.59869910E+00 -1.51973982E+01
  7.59869910E+00  7.59869910E+00 -1.51973982E+01  7.59869910E+00  7.59869910E+00
 -1.51973982E+01  7.59869910E+00  7.59869910E+00 -1.51973982E+01  7.59869910E+00
  7.59869910E+00 -1.51973982E+01  7.59869910E+00  7.59869910E+00 -1.51973982E+01
  7.59869910E+00  7.59869910E+00 -1.51973982E+01  7.59869910E+00  7.59869910E+00
 -1.51973982E+01  7.59869910E+00  7.59869910E+00 -1.51973982E+01  7.59869910E+00
  7.59869910E+00 -1.51973982E+01  7.59869910E+00  7.59869910E+00 -1.51973982E+01
  7.59869910E+00  7.59869910E+00 -1.51973982E+01  7.59869910E+00  7.59869910E+00
 -1.51973982E+01  7.59869910E+00  7.59869910E+00 -1.51973982E+01  7.59869910E+00
  7.59869910E+00 -1.51973982E+01  7.59869910E+00  7.59869910E+00 -1.51973982E+01
  7.59869910E+00  7.59869910E+00 -1.51973982E+01  7.59869910E+00  7.59869910E+00
 -1.51973982E+01  7.59869910E+00  7.59869910E+00 -1.51973982E+01  7.59869910E+00
  7.59869910E+00 -1.51973982E+01  7.59869910E+00  7.59869910E+00 -1.51973982E+01
  7.59869910E+00  7.59869910E+00 -1.51973982E+01  7.59869910E+00  7.59869910E+00
 -1.51973982E+01  7.59869910E+00  7.59869910E+00 -1.51973982E+01  7.59869910E+00
  7.59869910E+00 -1.51973982E+01  7.59869910E+00  7.59869910E+00 -1.51973982E+01
  7.59869910E+00  7.59869910E+00 -1.51973982E+01  7.59869910E+00  7.59869910E+00
 -1.51973982E+01  7.59869910E+00  7.59869910E+00 -1.51973982E+01  7.59869910E+00
  7.59869910E+00 -1.51973982E+01  7.59869910E+00  7.59869910E+00 -1.51973982E+01
  7.59869910E+00  7.59869910E+00 -1.51973982E+01  7.59869910E+00  7.59869910E+00
 -1.51973982E+01  7.59869910E+00  7.59869910E+00 -1.51973982E+01  7.59869910E+00
  7.59869910E+00 -1.51973982E+01  7.59869910E+00  7.59869910E+00 -1.51973982E+01
  7.59869910E+00  7.59869910E+00 -1.51973982E+01  7.59869910E+00  7.59869910E+00
 -1.51973982E+01  7.59869910E+00  7.59869910E+00 -1.51973982E+01  7.59869910E+00
  7.59869910E+00 -1.51973982E+01  7.59869910E+00  7.59869910E+00 -1.51973982E+01
  7.59869910E+00  7.59869910E+00 -1.51973982E+01  7.59869910E+00  7.59869910E+00
 -1.51973982E+01  7.59869910E+00  7.59869910E+00 -1.51973982E+01  7.59869910E+00
  7.59869910E+00 -1.51973982E+01  7.59869910E+00  7.59869910E+00 -1.51973982E+01
  7.59869910E+00  7.59869910E+00 -1.51973982E+01  7.59869910E+00  7.59869910E+00
 -1.51973982E+01  7.59869910E+00  7.59869910E+00 -1.51973982E+01  7.59869910E+00
  7.59869910E+00 -1.51973982E+01  7.59869910E+00  7.59869910E+00 -1.51973982E+01
  7.59869910E+00  7.59869910E+00 -1.51973982E+01  7.59869910E+00  7.59869910E+00
 -1.51973982E+01  7.59869910E+00  7.59869910E+00 -1.51973982E+01  7.59869910E+00
  7.59869910E+00 -1.51973982E+01  7.59869910E+00  7.59869910E+00 -1.51973982E+01
  7.59869910E+00  7.59869910E+00 -1.51973982E+01  7.59869910E+00  7.59869910E+00
 -1.51973982E+01  7.59869910E+00  7.59869910E+00 -1.51973982E+01  7.59869910E+00
  7.59869910E+00 -1.51973982E+01  7.59869910E+00  7.59869910E+00 -1.51973982E+01
  7.59869910E+00  7.59869910E+00 -1.51973982E+01  7.59869910E+00  7.59869910E+00
 -1.51973982E+01  7.59869910E+00  7.59869910E+00 -1.51973982E+01  7.59869910E+00
  7.59869910E+00 -1.51973982E+01  7.59869910E+00  7.59869910E+00 -1.51973982E+01
  7.59869910E+00  7.59869910E+00 -1.51973982E+01  7.59869910E+00  7.59869910E+00
 -1.51973982E+01  7.59869910E+00  7.59869910E+00 -1.51973982E+01  7.59869910E+00
  7.59869910E+00 -1.51973982E+01  7.59869910E+00  7.59869910E+00 -1.51973982E+01
  7.59869910E+00  7.59869910E+00 -1.51973982E+01  7.59869910E+00  7.59869910E+00
 -1.51973982E+01  7.59869910E+00  7.59869910E+00 -1.51973982E+01  7.59869910E+00
  7.59869910E+00 -1.51973982E+01  7.59869910E+00  7.59869910E+00 -1.51973982E+01
  7.59869910E+00  7.59869910E+00 -1.51973982E+01  7.59869910E+00  7.59869910E+00
 -1.51973982E+01  7.59869910E+00  7.59869910E+00 -1.51973982E+01  7.59869910E+00
  7.59869910E+00 -1.51973982E+01  7.59869910E+00  7.59869910E+00 -1.51973982E+01
  7.59869910E+00  7.59869910E+00 -1.51973982E+01  7.59869910E+00  7.59869910E+00
 -1.51973982E+01  7.59869910E+00  7.59869910E+00 -1.51973982E+01  7.59869910E+00
  7.59869910E+00 -1.51973982E+01  7.59869910E+00  7.59869910E+00 -1.51973982E+01
  7.59869910E+00  7.59869910E+00 -1.51973982E+01  7.59869910E+00  7.59869910E+00
 -1.51973982E+01  7.59869910E+00  7.59869910E+00 -1.51973982E+01  7.59869910E+00
  7.59869910E+00 -1.51973982E+01  7.59869910E+00  7.59869910E+00 -1.51973982E+01
  7.59869910E+00  7.59869910E+00 -1.51973982E+01  7.59869910E+00  7.59869910E+00
 -1.51973982E+01  7.59869910E+00  7.59869910E+00 -1.51973982E+01  7.59869910E+00
  7.59869910E+00 -1.51973982E+01  7.59869910E+00  7.59869910E+00 -1.51973982E+01
  7.59869910E+00  7.59869910E+00 -1.51973982E+01  7.59869910E+00  7.59869910E+00
 -1.51973982E+01  7.59869910E+00  7.59869910E+00 -1.51973982E+01  7.59869910E+00
  7.59869910E+00 -1.51973982E+01  7.59869910E+00  7.59869910E+00 -1.51973982E+01
  7.59869910E+00  7.59869910E+00 -1.51973982E+01  7.59869910E+00  7.59869910E+00
 -1.51973982E+01  7.59869910E+00  7.59869910E+00 -1.51973982E+01  7.59869910E+00
  7.59869910E+00 -1.51973982E+01  7.59869910E+00  7.59869910E+00 -1.51973982E+01
  7.59869910E+00  7.59869910E+00 -1.51973982E+01  7.59869910E+00  7.59869910E+00
 -1.51973982E+01  7.59869910E+00  7.59869910E+00 -1.51973982E+01  7.59869910E+00
  7.59869910E+00 -1.51973982E+01  7.59869910E+00  7.59869910E+00 -1.51973982E+01
  7.59869910E+00  7.59869910E+00 -1.51973982E+01  7.59869910E+00  7.59869910E+00
 -1.51973982E+01  7.59869910E+00  7.59869910E+00 -1.51973982E+01  7.59869910E+00
  7.59869910E+00 -1.51973982E+01  7.59869910E+00  7.59869910E+00 -1.51973982E+01
  7.59869910E+00  7.59869910E+00 -1.51973982E+01  7.59869910E+00  7.59869910E+00
 -1.51973982E+01  7.59869910E+00  7.59869910E+00 -1.51973982E+01  7.59869910E+00
  7.59869910E+00 -1.51973982E+01  7.59869910E+00  7.59869910E+00 -1.51973982E+01
  7.59869910E+00  7.59869910E+00 -1.51973982E+01  7.59869910E+00  7.59869910E+00
 -1.51973982E+01  7.59869910E+00  7.59869910E+00 -1.51973982E+01  7.59869910E+00
  7.59869910E+00 -1.51973982E+01  7.59869910E+00  7.59869910E+00 -1.51973982E+01
  7.59869910E+00  7.59869910E+00 -1.51973982E+01  7.59869910E+00  7.59869910E+00
 -1.51973982E+01  7.59869910E+00  7.59869910E+00 -1.51973982E+01  7.59869910E+00
  7.59869910E+00 -1.51973982E+01  7.59869910E+00  7.59869910E+00 -1.51973982E+01
  7.59869910E+00  7.59869910E+00 -1.51973982E+01  7.59869910E+00  7.59869910E+00
 -1.51973982E+01  7.59869910E+00  7.59869910E+00 -1.51973982E+01  7.59869910E+00
  7.59869910E+00 -1.51973982E+01  7.59869910E+00  7.59869910E+00 -1.51973982E+01
  7.59869910E+00  7.59869910E+00 -1.51973982E+01  7.59869910E+00  7.59869910E+00
 -1.51973982E+01  7.59869910E+00  7.59869910E+00 -1.51973982E+01  7.59869910E+00
  7.59869910E+00 -1.51973982E+01  7.59869910E+00  7.59869910E+00 -1.51973982E+01
  7.59869910E+00  7.59869910E+00 -1.51973982E+01  7.59869910E+00  7.59869910E+00
 -1.51973982E+01  7.59869910E+00  7.59869910E+00 -1.51973982E+01  7.59869910E+00
  7.59869910E+00 -1.51973982E+01  7.59869910E+00  7.59869910E+00 -1.51973982E+01
  7.59869910E+00  7.59869910E+00 -1.51973982E+01  7.59869910E+00  7.59869910E+00
 -1.51973982E+01  7.59869910E+00  7.59869910E+00 -1.51973982E+01  7.59869910E+00
  7.59869910E+00 -1.51973982E+01  7.59869910E+00  7.59869910E+00 -1.51973982E+01
  7.59869910E+00  7.59869910E+00 -1.51973982E+01  7.59869910E+00  7.59869910E+00
 -1.51973982E+01  7.59869910E+00  7.59869910E+00 -1.51973982E+01  7.59869910E+00
  7.59869910E+00 -1.51973982E+01  7.59869910E+00  7.59869910E+00 -1.51973982E+01
  7.59869910E+00  7.59869910E+00 -1.51973982E+01  7.59869910E+00  7.59869910E+00
 -1.51973982E+01  7.59869910E+00  7.59869910E+00 -1.51973982E+01  7.59869910E+00
  7.59869910E+00 -1.51973982E+01  7.59869910E+00  7.59869910E+00 -1.51973982E+01
  7.59869910E+00  7.59869910E+00 -1.51973982E+01  7.59869910E+00  7.59869910E+00
 -1.51973982E+01  7.59869910E+00  7.59869910E+00 -1.51973982E+01  7.59869910E+00
  7.59869910E+00 -1.51973982E+01  7.59869910E+00  7.59869910E+00 -1.51973982E+01
  7.59869910E+00  7.59869910E+00 -1.51973982E+01  7.59869910E+00  7.59869910E+00
 -1.51973982E+01  7.59869910E+00  7.59869910E+00 -1.51973982E+01  7.59869910E+00
  7.59869910E+00 -1.51973982E+01  7.59869910E+00  7.59869910E+00 -1.51973982E+01
  7.59869910E+00  7.59869910E+00 -1.51973982E+01  7.59869910E+00  7.59869910E+00
 -1.51973982E+01  7.59869910E+00  7.59869910E+00 -1.51973982E+01  7.59869910E+00
  7.59869910E+00 -1.51973982E+01  7.59869910E+00  7.59869910E+00 -1.51973982E+01
  7.59869910E+00  7.59869910E+00 -1.51973982E+01  7.59869910E+00  7.59869910E+00
 -1.51973982E+01  7.59869910E+00  7.59869910E+00 -1.51973982E+01  7.59869910E+00
  7.59869910E+00 -1.51973982E+01  7.59869910E+00  7.59869910E+00 -1.51973982E+01
  7.59869910E+00  7.59869910E+00 -1.51973982E+01  7.59869910E+00  7.59869910E+00
 -1.51973982E+01  7.59869910E+00  7.59869910E+00 -1.51973982E+01  7.59869910E+00
  7.59869910E+00 -1.51973982E+01  7.59869910E+00  7.59869910E+00 -1.51973982E+01
  7.59869910E+00  7.59869910E+00 -1.51973982E+01  7.59869910E+00  7.59869910E+00
 -1.51973982E+01  7.59869910E+00  7.59869910E+00 -1.51973982E+01  7.59869910E+00
  7.59869910E+00 -1.51973982E+01  7.59869910E+00  7.59869910E+00 -1.51973982E+01
  7.59869910E+00  7.59869910E+00 -1.51973982E+01  7.59869910E+00  7.59869910E+00
 -1.51973982E+01  7.59869910E+00  7.59869910E+00 -1.51973982E+01  7.59869910E+00
  7.59869910E+00 -1.51973982E+01  7.59869910E+00  7.59869910E+00 -1.51973982E+01
  7.59869910E+00  7.59869910E+00 -1.51973982E+01  7.59869910E+00  7.59869910E+00
 -1.51973982E+01  7.59869910E+00  7.59869910E+00 -1.51973982E+01  7.59869910E+00
  7.59869910E+00 -1.51973982E+01  7.59869910E+00  7.59869910E+00 -1.51973982E+01
  7.59869910E+00  7.59869910E+00 -1.51973982E+01  7.59869910E+00  7.59869910E+00
 -1.51973982E+01  7.59869910E+00  7.59869910E+00 -1.51973982E+01  7.59869910E+00
  7.59869910E+00 -1.51973982E+01  7.59869910E+00  7.59869910E+00 -1.51973982E+01
  7.59869910E+00  7.59869910E+00 -1.51973982E+01  7.59869910E+00  7.59869910E+00
 -1.51973982E+01  7.59869910E+00  7.59869910E+00 -1.51973982E+01  7.59869910E+00
  7.59869910E+00 -1.51973982E+01  7.59869910E+00  7.59869910E+00 -1.51973982E+01
  7.59869910E+00  7.59869910E+00 -1.51973982E+01  7.59869910E+00  7.59869910E+00
 -1.51973982E+01  7.59869910E+00  7.59869910E+00 -1.51973982E+01  7.59869910E+00
  7.59869910E+00 -1.51973982E+01  7.59869910E+00  7.59869910E+00 -1.51973982E+01
  7.59869910E+00  7.59869910E+00 -1.51973982E+01  7.59869910E+00  7.59869910E+00
 -1.51973982E+01  7.59869910E+00  7.59869910E+00 -1.51973982E+01  7.59869910E+00
  7.59869910E+00 -1.51973982E+01  7.59869910E+00  7.59869910E+00 -1.51973982E+01
  7.59869910E+00  7.59869910E+00 -1.51973982E+01  7.59869910E+00  7.59869910E+00
 -1.51973982E+01  7.59869910E+00  7.59869910E+00 -1.51973982E+01  7.59869910E+00
  7.59869910E+00 -1.51973982E+01  7.59869910E+00  7.59869910E+00 -1.51973982E+01
  7.59869910E+00  7.59869910E+00 -1.51973982E+01  7.59869910E+00  7.59869910E+00
 -1.51973982E+01  7.59869910E+00  7.59869910E+00 -1.51973982E+01  7.59869910E+00
  7.59869910E+00 -1.51973982E+01  7.59869910E+00  7.59869910E+00 -1.51973982E+01
  7.59869910E+00  7.59869910E+00 -1.51973982E+01  7.59869910E+00  7.59869910E+00
 -1.51973982E+01  7.59869910E+00  7.59869910E+00 -1.51973982E+01  7.59869910E+00
  7.59869910E+00 -1.51973982E+01  7.59869910E+00  7.59869910E+00 -1.51973982E+01
  7.59869910E+00  7.59869910E+00 -1.51973982E+01  7.59869910E+00  7.59869910E+00
 -1.51973982E+01  7.59869910E+00  7.59869910E+00 -1.51973982E+01  7.59869910E+00
  7.59869910E+00 -1.51973982E+01  7.59869910E+00  7.59869910E+00 -1.51973982E+01
  7.59869910E+00  7.59869910E+00 -1.51973982E+01  7.59869910E+00  7.59869910E+00
 -1.51973982E+01  7.59869910E+00  7.59869910E+00 -1.51973982E+01  7.59869910E+00
  7.59869910E+00 -1.51973982E+01  7.59869910E+00  7.59869910E+00 -1.51973982E+01
  7.59869910E+00  7.59869910E+00 -1.51973982E+01  7.59869910E+00  7.59869910E+00
 -1.51973982E+01  7.59869910E+00  7.59869910E+00 -1.51973982E+01  7.59869910E+00
  7.59869910E+00 -1.51973982E+01  7.59869910E+00  7.59869910E+00 -1.51973982E+01
  7.59869910E+00  7.59869910E+00 -1.51973982E+01  7.59869910E+00  7.59869910E+00
 -1.51973982E+01  7.59869910E+00  7.59869910E+00 -1.51973982E+01  7.59869910E+00
  7.59869910E+00 -1.51973982E+01  7.59869910E+00  7.59869910E+00 -1.51973982E+01
  7.59869910E+00  7.59869910E+00 -1.51973982E+01  7.59869910E+00  7.59869910E+00
 -1.51973982E+01  7.59869910E+00  7.59869910E+00 -1.51973982E+01  7.59869910E+00
  7.59869910E+00 -1.51973982E+01  7.59869910E+00  7.59869910E+00 -1.51973982E+01
  7.59869910E+00  7.59869910E+00 -1.51973982E+01  7.59869910E+00  7.59869910E+00
 -1.51973982E+01  7.59869910E+00  7.59869910E+00 -1.51973982E+01  7.59869910E+00
  7.59869910E+00 -1.51973982E+01  7.59869910E+00  7.59869910E+00 -1.51973982E+01
  7.59869910E+00  7.59869910E+00 -1.51973982E+01  7.59869910E+00  7.59869910E+00
 -1.51973982E+01  7.59869910E+00  7.59869910E+00 -1.51973982E+01  7.59869910E+00
  7.59869910E+00 -1.51973982E+01  7.59869910E+00  7.59869910E+00 -1.51973982E+01
  7.59869910E+00  7.59869910E+00 -1.51973982E+01  7.59869910E+00  7.59869910E+00
 -1.51973982E+01  7.59869910E+00  7.59869910E+00 -1.51973982E+01  7.59869910E+00
  7.59869910E+00 -1.51973982E+01  7.59869910E+00  7.59869910E+00 -1.51973982E+01
  7.59869910E+00  7.59869910E+00 -1.51973982E+01  7.59869910E+00  7.59869910E+00
 -1.51973982E+01  7.59869910E+00  7.59869910E+00 -1.51973982E+01  7.59869910E+00
  7.59869910E+00 -1.51973982E+01  7.59869910E+00  7.59869910E+00 -1.51973982E+01
  7.59869910E+00  7.59869910E+00 -1.51973982E+01  7.59869910E+00  7.59869910E+00
 -1.51973982E+01  7.59869910E+00  7.59869910E+00 -1.51973982E+01  7.59869910E+00
  7.59869910E+00 -1.51973982E+01  7.59869910E+00  7.59869910E+00 -1.51973982E+01
  7.59869910E+00  7.59869910E+00 -1.51973982E+01  7.59869910E+00  7.59869910E+00
 -1.51973982E+01  7.59869910E+00  7.59869910E+00 -1.51973982E+01  7.59869910E+00
  7.59869910E+00 -1.51973982E+01  7.59869910E+00  7.59869910E+00 -1.51973982E+01
  7.59869910E+00  7.59869910E+00 -1.51973982E+01  7.59869910E+00  7.59869910E+00
 -1.51973982E+01  7.59869910E+00  7.59869910E+00 -1.51973982E+01  7.59869910E+00
  7.59869910E+00 -1.51973982E+01  7.59869910E+00  7.59869910E+00 -1.51973982E+01
  7.59869910E+00  7.59869910E+00 -1.51973982E+01  7.59869910E+00  7.59869910E+00
 -1.51973982E+01  7.59869910E+00  7.59869910E+00 -1.51973982E+01  7.59869910E+00
  7.59869910E+00 -1.51973982E+01  7.59869910E+00  7.59869910E+00 -1.51973982E+01
  7.59869910E+00  7.59869910E+00 -1.51973982E+01  7.59869910E+00  7.59869910E+00
 -1.51973982E+01  7.59869910E+00  7.59869910E+00 -1.51973982E+01  7.59869910E+00
  7.59869910E+00 -1.51973982E+01  7.59869910E+00  7.59869910E+00 -1.51973982E+01
  7.59869910E+00  7.59869910E+00 -1.51973982E+01  7.59869910E+00  7.59869910E+00
 -1.51973982E+01  7.59869910E+00  7.59869910E+00 -1.51973982E+01  7.59869910E+00
  7.59869910E+00 -1.51973982E+01  7.59869910E+00  7.59869910E+00 -1.51973982E+01
  7.59869910E+00  7.59869910E+00 -1.51973982E+01  7.59869910E+00  7.59869910E+00
 -1.51973982E+01  7.59869910E+00  7.59869910E+00 -1.51973982E+01  7.59869910E+00
  7.59869910E+00 -1.51973982E+01  7.59869910E+00  7.59869910E+00 -1.51973982E+01
  7.59869910E+00  7.59869910E+00 -1.51973982E+01  7.59869910E+00  7.59869910E+00
 -1.51973982E+01  7.59869910E+00  7.59869910E+00 -1.51973982E+01  7.59869910E+00
  7.59869910E+00 -1.51973982E+01  7.59869910E+00  7.59869910E+00 -1.51973982E+01
  7.59869910E+00  7.59869910E+00 -1.51973982E+01  7.59869910E+00  7.59869910E+00
 -1.51973982E+01  7.59869910E+00  7.59869910E+00 -1.51973982E+01  7.59869910E+00
  7.59869910E+00 -1.51973982E+01  7.59869910E+00  7.59869910E+00 -1.51973982E+01
  7.59869910E+00  7.59869910E+00 -1.51973982E+01  7.59869910E+00  7.59869910E+00
 -1.51973982E+01  7.59869910E+00  7.59869910E+00 -1.51973982E+01  7.59869910E+00
  7.59869910E+00 -1.51973982E+01  7.59869910E+00  7.59869910E+00 -1.51973982E+01
  7.59869910E+00  7.59869910E+00 -1.51973982E+01  7.59869910E+00  7.59869910E+00
 -1.51973982E+01  7.59869910E+00  7.59869910E+00 -1.51973982E+01  7.59869910E+00
  7.59869910E+00 -1.51973982E+01  7.59869910E+00  7.59869910E+00 -1.51973982E+01
  7.59869910E+00  7.59869910E+00 -1.51973982E+01  7.59869910E+00  7.59869910E+00
 -1.51973982E+01  7.59869910E+00  7.59869910E+00 -1.51973982E+01  7.59869910E+00
  7.59869910E+00 -1.51973982E+01  7.59869910E+00  7.59869910E+00 -1.51973982E+01
  7.59869910E+00  7.59869910E+00 -1.51973982E+01  7.59869910E+00  7.59869910E+00
 -1.51973982E+01  7.59869910E+00  7.59869910E+00 -1.51973982E+01  7.59869910E+00
  7.59869910E+00 -1.51973982E+01  7.59869910E+00  7.59869910E+00 -1.51973982E+01
  7.59869910E+00  7.59869910E+00 -1.51973982E+01  7.59869910E+00  7.59869910E+00
 -1.51973982E+01  7.59869910E+00  7.59869910E+00 -1.51973982E+01  7.59869910E+00
  7.59869910E+00 -1.51973982E+01  7.59869910E+00  7.59869910E+00 -1.51973982E+01
  7.59869910E+00  7.59869910E+00 -1.51973982E+01  7.59869910E+00  7.59869910E+00
 -1.51973982E+01  7.59869910E+00  7.59869910E+00 -1.51973982E+01  7.59869910E+00
  7.59869910E+00 -1.51973982E+01  7.59869910E+00  7.59869910E+00 -1.51973982E+01
  7.59869910E+00  7.59869910E+00 -1.51973982E+01  7.59869910E+00  7.59869910E+00
 -1.51973982E+01  7.59869910E+00  7.59869910E+00 -1.51973982E+01  7.59869910E+00
  7.59869910E+00 -1.51973982E+01  7.59869910E+00  7.59869910E+00 -1.51973982E+01
  7.59869910E+00  7.59869910E+00 -1.51973982E+01  7.59869910E+00  7.59869910E+00
 -1.51973982E+01  7.59869910E+00  7.59869910E+00 -1.51973982E+01  7.59869910E+00
  7.59869910E+00 -1.51973982E+01  7.59869910E+00  7.59869910E+00 -1.51973982E+01
  7.59869910E+00  7.59869910E+00 -1.51973982E+01  7.59869910E+00  7.59869910E+00
 -1.51973982E+01  7.59869910E+00  7.59869910E+00 -1.51973982E+01  7.59869910E+00
  7.59869910E+00 -1.51973982E+01  7.59869910E+00  7.59869910E+00 -1.51973982E+01
  7.59869910E+00  7.59869910E+00 -1.51973982E+01  7.59869910E+00  7.59869910E+00
 -1.51973982E+01  7.59869910E+00  7.59869910E+00 -1.51973982E+01  7.59869910E+00
  7.59869910E+00 -1.51973982E+01  7.59869910E+00  7.59869910E+00 -1.51973982E+01
  7.59869910E+00  7.59869910E+00 -1.51973982E+01  7.59869910E+00  7.59869910E+00
 -1.51973982E+01  7.59869910E+00  7.59869910E+00 -1.51973982E+01  7.59869910E+00
  7.59869910E+00 -1.51973982E+01  7.59869910E+00  7.59869910E+00 -1.51973982E+01
  7.59869910E+00  7.59869910E+00 -1.51973982E+01  7.59869910E+00  7.59869910E+00
 -1.51973982E+01  7.59869910E+00  7.59869910E+00 -1.51973982E+01  7.59869910E+00
  7.59869910E+00 -1.51973982E+01  7.59869910E+00  7.59869910E+00 -1.51973982E+01
  7.59869910E+00  7.59869910E+00 -1.51973982E+01  7.59869910E+00  7.59869910E+00
 -1.51973982E+01  7.59869910E+00  7.59869910E+00 -1.51973982E+01  7.59869910E+00
  7.59869910E+00 -1.51973982E+01  7.59869910E+00  7.59869910E+00 -1.51973982E+01
  7.59869910E+00  7.59869910E+00 -1.51973982E+01  7.59869910E+00  7.59869910E+00
 -1.51973982E+01  7.59869910E+00  7.59869910E+00 -1.51973982E+01  7.59869910E+00
  7.59869910E+00 -1.51973982E+01  7.59869910E+00  7.59869910E+00 -1.51973982E+01
  7.59869910E+00  7.59869910E+00 -1.51973982E+01  7.59869910E+00  7.59869910E+00
 -1.51973982E+01  7.59869910E+00  7.59869910E+00 -1.51973982E+01  7.59869910E+00
  7.59869910E+00 -1.51973982E+01  7.59869910E+00  7.59869910E+00 -1.51973982E+01
  7.59869910E+00  7.59869910E+00 -1.51973982E+01  7.59869910E+00  7.59869910E+00
 -1.51973982E+01  7.59869910E+00  7.59869910E+00 -1.51973982E+01  7.59869910E+00
  7.59869910E+00 -1.51973982E+01  7.59869910E+00  7.59869910E+00 -1.51973982E+01
  7.59869910E+00  7.59869910E+00 -1.51973982E+01  7.59869910E+00  7.59869910E+00
 -1.51973982E+01  7.59869910E+00  7.59869910E+00 -1.51973982E+01  7.59869910E+00
  7.59869910E+00 -1.51973982E+01  7.59869910E+00  7.59869910E+00 -1.51973982E+01
  7.59869910E+00  7.59869910E+00 -1.51973982E+01  7.59869910E+00  7.59869910E+00
 -1.51973982E+01  7.59869910E+00  7.59869910E+00 -1.51973982E+01  7.59869910E+00
  7.59869910E+00 -1.51973982E+01  7.59869910E+00  7.59869910E+00 -1.51973982E+01
  7.59869910E+00  7.59869910E+00 -1.51973982E+01  7.59869910E+00  7.59869910E+00
 -1.51973982E+01  7.59869910E+00  7.59869910E+00 -1.51973982E+01  7.59869910E+00
  7.59869910E+00 -1.51973982E+01  7.59869910E+00  7.59869910E+00 -1.51973982E+01
  7.59869910E+00  7.59869910E+00 -1.51973982E+01  7.59869910E+00  7.59869910E+00
 -1.51973982E+01  7.59869910E+00  7.59869910E+00 -1.51973982E+01  7.59869910E+00
  7.59869910E+00 -1.51973982E+01  7.59869910E+00  7.59869910E+00 -1.51973982E+01
  7.59869910E+00  7.59869910E+00 -1.51973982E+01  7.59869910E+00  7.59869910E+00
 -1.51973982E+01  7.59869910E+00  7.59869910E+00 -1.51973982E+01  7.59869910E+00
  7.59869910E+00 -1.51973982E+01  7.59869910E+00  7.59869910E+00 -1.51973982E+01
  7.59869910E+00  7.59869910E+00 -1.51973982E+01  7.59869910E+00  7.59869910E+00
 -1.51973982E+01  7.59869910E+00  7.59869910E+00 -1.51973982E+01  7.59869910E+00
  7.59869910E+00 -1.51973982E+01  7.59869910E+00  7.59869910E+00 -1.51973982E+01
  7.59869910E+00  7.59869910E+00 -1.51973982E+01  7.59869910E+00  7.59869910E+00
 -1.51973982E+01  7.59869910E+00  7.59869910E+00 -1.51973982E+01  7.59869910E+00
  7.59869910E+00 -1.51973982E+01  7.59869910E+00  7.59869910E+00 -1.51973982E+01
  7.59869910E+00  7.59869910E+00 -1.51973982E+01  7.59869910E+00  7.59869910E+00
 -1.51973982E+01  7.59869910E+00  7.59869910E+00 -1.51973982E+01  7.59869910E+00
  7.59869910E+00 -1.51973982E+01  7.59869910E+00  7.59869910E+00 -1.51973982E+01
  7.59869910E+00  7.59869910E+00 -1.51973982E+01  7.59869910E+00  7.59869910E+00
 -1.51973982E+01  7.59869910E+00  7.59869910E+00 -1.51973982E+01  7.59869910E+00
  7.59869910E+00 -1.51973982E+01  7.59869910E+00  7.59869910E+00 -1.51973982E+01
  7.59869910E+00  7.59869910E+00 -1.51973982E+01  7.59869910E+00  7.59869910E+00
 -1.51973982E+01  7.59869910E+00  7.59869910E+00 -1.51973982E+01  7.59869910E+00
  7.59869910E+00 -1.51973982E+01  7.59869910E+00  7.59869910E+00 -1.51973982E+01
  7.59869910E+00  7.59869910E+00 -1.51973982E+01  7.59869910E+00  7.59869910E+00
 -1.51973982E+01  7.59869910E+00  7.59869910E+00 -1.51973982E+01  7.59869910E+00
  7.59869910E+00 -1.51973982E+01  7.59869910E+00  7.59869910E+00 -1.51973982E+01
  7.59869910E+00  7.59869910E+00 -1.51973982E+01  7.59869910E+00  7.59869910E+00
 -1.51973982E+01  7.59869910E+00  7.59869910E+00 -1.51973982E+01  7.59869910E+00
  7.59869910E+00 -1.51973982E+01  7.59869910E+00  7.59869910E+00 -1.51973982E+01
  7.59869910E+00  7.59869910E+00 -1.51973982E+01  7.59869910E+00  7.59869910E+00
 -1.51973982E+01  7.59869910E+00  7.59869910E+00 -1.51973982E+01  7.59869910E+00
  7.59869910E+00 -1.51973982E+01  7.59869910E+00  7.59869910E+00 -1.51973982E+01
  7.59869910E+00  7.59869910E+00 -1.51973982E+01  7.59869910E+00  7.59869910E+00
 -1.51973982E+01  7.59869910E+00  7.59869910E+00 -1.51973982E+01  7.59869910E+00
  7.59869910E+00 -1.51973982E+01  7.59869910E+00  7.59869910E+00 -1.51973982E+01
  7.59869910E+00  7.59869910E+00 -1.51973982E+01  7.59869910E+00  7.59869910E+00
 -1.51973982E+01  7.59869910E+00  7.59869910E+00 -1.51973982E+01  7.59869910E+00
  7.59869910E+00 -1.51973982E+01  7.59869910E+00  7.59869910E+00 -1.51973982E+01
  7.59869910E+00  7.59869910E+00 -1.51973982E+01  7.59869910E+00  7.59869910E+00
 -1.51973982E+01  7.59869910E+00  7.59869910E+00 -1.51973982E+01  7.59869910E+00
  7.59869910E+00 -1.51973982E+01  7.59869910E+00  7.59869910E+00 -1.51973982E+01
  7.59869910E+00  7.59869910E+00 -1.51973982E+01  7.59869910E+00  7.59869910E+00
 -1.51973982E+01  7.59869910E+00  7.59869910E+00 -1.51973982E+01  7.59869910E+00
  7.59869910E+00 -1.51973982E+01  7.59869910E+00  7.59869910E+00 -1.51973982E+01
  7.59869910E+00  7.59869910E+00 -1.51973982E+01  7.59869910E+00  7.59869910E+00
 -1.51973982E+01  7.59869910E+00  7.59869910E+00 -1.51973982E+01  7.59869910E+00
  7.59869910E+00 -1.51973982E+01  7.59869910E+00  7.59869910E+00 -1.51973982E+01
  7.59869910E+00  7.59869910E+00 -1.51973982E+01  7.59869910E+00  7.59869910E+00
 -1.51973982E+01  7.59869910E+00  7.59869910E+00 -1.51973982E+01  7.59869910E+00
  7.59869910E+00 -1.51973982E+01  7.59869910E+00  7.59869910E+00 -1.51973982E+01
  7.59869910E+00  7.59869910E+00 -1.51973982E+01  7.59869910E+00  7.59869910E+00
 -1.51973982E+01  7.59869910E+00  7.59869910E+00 -1.51973982E+01  7.59869910E+00
  7.59869910E+00 -1.51973982E+01  7.59869910E+00  7.59869910E+00 -1.51973982E+01
  7.59869910E+00  7.59869910E+00 -1.51973982E+01  7.59869910E+00  7.59869910E+00
 -1.51973982E+01  7.59869910E+00  7.59869910E+00 -1.51973982E+01  7.59869910E+00
  7.59869910E+00 -1.51973982E+01  7.59869910E+00  7.59869910E+00 -1.51973982E+01
  7.59869910E+00  7.59869910E+00 -1.51973982E+01  7.59869910E+00  7.59869910E+00
 -1.51973982E+01  7.59869910E+00  7.59869910E+00 -1.51973982E+01  7.59869910E+00
  7.59869910E+00 -1.51973982E+01  7.59869910E+00  7.59869910E+00 -1.51973982E+01
  7.59869910E+00  7.59869910E+00 -1.51973982E+01  7.59869910E+00  7.59869910E+00
 -1.51973982E+01  7.59869910E+00  7.59869910E+00 -1.51973982E+01  7.59869910E+00
  7.59869910E+00 -1.51973982E+01  7.59869910E+00  7.59869910E+00 -1.51973982E+01
  7.59869910E+00  7.59869910E+00 -1.51973982E+01  7.59869910E+00  7.59869910E+00
 -1.51973982E+01  7.59869910E+00  7.59869910E+00 -1.51973982E+01  7.59869910E+00
  7.59869910E+00 -1.51973982E+01  7.59869910E+00  7.59869910E+00 -1.51973982E+01
  7.59869910E+00  7.59869910E+00 -1.51973982E+01  7.59869910E+00  7.59869910E+00
 -1.51973982E+01  7.59869910E+00  7.59869910E+00 -1.51973982E+01  7.59869910E+00
  7.59869910E+00 -1.51973982E+01  7.59869910E+00  7.59869910E+00 -1.51973982E+01
  7.59869910E+00  7.59869910E+00 -1.51973982E+01  7.59869910E+00  7.59869910E+00
 -1.51973982E+01  7.59869910E+00  7.59869910E+00 -1.51973982E+01  7.59869910E+00
  7.59869910E+00 -1.51973982E+01  7.59869910E+00  7.59869910E+00 -1.51973982E+01
  7.59869910E+00  7.59869910E+00 -1.51973982E+01  7.59869910E+00  7.59869910E+00
 -1.51973982E+01  7.59869910E+00  7.59869910E+00 -1.51973982E+01  7.59869910E+00
  7.59869910E+00 -1.51973982E+01  7.59869910E+00  7.59869910E+00 -1.51973982E+01
  7.59869910E+00  7.59869910E+00 -1.51973982E+01  7.59869910E+00  7.59869910E+00
 -1.51973982E+01  7.59869910E+00  7.59869910E+00 -1.51973982E+01  7.59869910E+00
  7.59869910E+00 -1.51973982E+01  7.59869910E+00  7.59869910E+00 -1.51973982E+01
  7.59869910E+00  7.59869910E+00 -1.51973982E+01  7.59869910E+00  7.59869910E+00
 -1.51973982E+01  7.59869910E+00  7.59869910E+00 -1.51973982E+01  7.59869910E+00
  7.59869910E+00 -1.51973982E+01  7.59869910E+00  7.59869910E+00 -1.51973982E+01
  7.59869910E+00  7.59869910E+00 -1.51973982E+01  7.59869910E+00  7.59869910E+00
 -1.51973982E+01  7.59869910E+00  7.59869910E+00 -1.51973982E+01  7.59869910E+00
  7.59869910E+00 -1.51973982E+01  7.59869910E+00  7.59869910E+00 -1.51973982E+01
  7.59869910E+00  7.59869910E+00 -1.51973982E+01  7.59869910E+00  7.59869910E+00
 -1.51973982E+01  7.59869910E+00  7.59869910E+00 -1.51973982E+01  7.59869910E+00
  7.59869910E+00 -1.51973982E+01  7.59869910E+00  7.59869910E+00 -1.51973982E+01
  7.59869910E+00  7.59869910E+00 -1.51973982E+01  7.59869910E+00  7.59869910E+00
 -1.51973982E+01  7.59869910E+00  7.59869910E+00 -1.51973982E+01  7.59869910E+00
  7.59869910E+00 -1.51973982E+01  7.59869910E+00  7.59869910E+00 -1.51973982E+01
  7.59869910E+00  7.59869910E+00 -1.51973982E+01  7.59869910E+00  7.59869910E+00
 -1.51973982E+01  7.59869910E+00  7.59869910E+00 -1.51973982E+01  7.59869910E+00
  7.59869910E+00 -1.51973982E+01  7.59869910E+00  7.59869910E+00 -1.51973982E+01
  7.59869910E+00  7.59869910E+00 -1.51973982E+01  7.59869910E+00  7.59869910E+00
 -1.51973982E+01  7.59869910E+00  7.59869910E+00 -1.51973982E+01  7.59869910E+00
  7.59869910E+00 -1.51973982E+01  7.59869910E+00  7.59869910E+00 -1.51973982E+01
  7.59869910E+00  7.59869910E+00 -1.51973982E+01  7.59869910E+00  7.59869910E+00
 -1.51973982E+01  7.59869910E+00  7.59869910E+00 -1.51973982E+01  7.59869910E+00
  7.59869910E+00 -1.51973982E+01  7.59869910E+00  7.59869910E+00 -1.51973982E+01
  7.59869910E+00  7.59869910E+00 -1.51973982E+01  7.59869910E+00  7.59869910E+00
 -1.51973982E+01  7.59869910E+00  7.59869910E+00 -1.51973982E+01  7.59869910E+00
  7.59869910E+00 -1.51973982E+01  7.59869910E+00  7.59869910E+00 -1.51973982E+01
  7.59869910E+00  7.59869910E+00 -1.51973982E+01  7.59869910E+00  7.59869910E+00
 -1.51973982E+01  7.59869910E+00  7.59869910E+00 -1.51973982E+01  7.59869910E+00
  7.59869910E+00 -1.51973982E+01  7.59869910E+00  7.59869910E+00 -1.51973982E+01
  7.59869910E+00  7.59869910E+00 -1.51973982E+01  7.59869910E+00  7.59869910E+00
 -1.51973982E+01  7.59869910E+00  7.59869910E+00 -1.51973982E+01  7.59869910E+00
  7.59869910E+00 -1.51973982E+01  7.59869910E+00  7.59869910E+00 -1.51973982E+01
  7.59869910E+00  7.59869910E+00 -1.51973982E+01  7.59869910E+00  7.59869910E+00
 -1.51973982E+01  7.59869910E+00  7.59869910E+00 -1.51973982E+01  7.59869910E+00
  7.59869910E+00 -1.51973982E+01  7.59869910E+00  7.59869910E+00 -1.51973982E+01
  7.59869910E+00  7.59869910E+00 -1.51973982E+01  7.59869910E+00  7.59869910E+00
 -1.51973982E+01  7.59869910E+00  7.59869910E+00 -1.51973982E+01  7.59869910E+00
  7.59869910E+00 -1.51973982E+01  7.59869910E+00  7.59869910E+00 -1.51973982E+01
  7.59869910E+00  7.59869910E+00 -1.51973982E+01  7.59869910E+00  7.59869910E+00
 -1.51973982E+01  7.59869910E+00  7.59869910E+00 -1.51973982E+01  7.59869910E+00
  7.59869910E+00 -1.51973982E+01  7.59869910E+00  7.59869910E+00 -1.51973982E+01
  7.59869910E+00  7.59869910E+00 -1.51973982E+01  7.59869910E+00  7.59869910E+00
 -1.51973982E+01  7.59869910E+00  7.59869910E+00 -1.51973982E+01  7.59869910E+00
  7.59869910E+00 -1.51973982E+01  7.59869910E+00  7.59869910E+00 -1.51973982E+01
  7.59869910E+00  7.59869910E+00 -1.51973982E+01  7.59869910E+00  7.59869910E+00
 -1.51973982E+01  7.59869910E+00  7.59869910E+00 -1.51973982E+01  7.59869910E+00
  7.59869910E+00 -1.51973982E+01  7.59869910E+00  7.59869910E+00 -1.51973982E+01
  7.59869910E+00  7.59869910E+00 -1.51973982E+01  7.59869910E+00  7.59869910E+00
 -1.51973982E+01  7.59869910E+00  7.59869910E+00 -1.51973982E+01  7.59869910E+00
  7.59869910E+00 -1.51973982E+01  7.59869910E+00  7.59869910E+00 -1.51973982E+01
  7.59869910E+00  7.59869910E+00 -1.51973982E+01  7.59869910E+00  7.59869910E+00
 -1.51973982E+01  7.59869910E+00  7.59869910E+00 -1.51973982E+01  7.59869910E+00
  7.59869910E+00 -1.51973982E+01  7.59869910E+00  7.59869910E+00 -1.51973982E+01
  7.59869910E+00  7.59869910E+00 -1.51973982E+01  7.59869910E+00  7.59869910E+00
 -1.51973982E+01  7.59869910E+00  7.59869910E+00 -1.51973982E+01  7.59869910E+00
  7.59869910E+00 -1.51973982E+01  7.59869910E+00  7.59869910E+00 -1.51973982E+01
  7.59869910E+00  7.59869910E+00 -1.51973982E+01  7.59869910E+00  7.59869910E+00
 -1.51973982E+01  7.59869910E+00  7.59869910E+00 -1.51973982E+01  7.59869910E+00
  7.59869910E+00 -1.51973982E+01  7.59869910E+00  7.59869910E+00 -1.51973982E+01
  7.59869910E+00  7.59869910E+00 -1.51973982E+01  7.59869910E+00  7.59869910E+00
 -1.51973982E+01  7.59869910E+00  7.59869910E+00 -1.51973982E+01  7.59869910E+00
  7.59869910E+00 -1.51973982E+01  7.59869910E+00  7.59869910E+00 -1.51973982E+01
  7.59869910E+00  7.59869910E+00 -1.51973982E+01  7.59869910E+00  7.59869910E+00
 -1.51973982E+01  7.59869910E+00  7.59869910E+00 -1.51973982E+01  7.59869910E+00
  7.59869910E+00 -1.51973982E+01  7.59869910E+00  7.59869910E+00 -1.51973982E+01
  7.59869910E+00  7.59869910E+00 -1.51973982E+01  7.59869910E+00  7.59869910E+00
 -1.51973982E+01  7.59869910E+00  7.59869910E+00 -1.51973982E+01  7.59869910E+00
  7.59869910E+00 -1.51973982E+01  7.59869910E+00  7.59869910E+00 -1.51973982E+01
  7.59869910E+00  7.59869910E+00 -1.51973982E+01  7.59869910E+00  7.59869910E+00
 -1.51973982E+01  7.59869910E+00  7.59869910E+00 -1.51973982E+01  7.59869910E+00
  7.59869910E+00 -1.51973982E+01  7.59869910E+00  7.59869910E+00 -1.51973982E+01
  7.59869910E+00  7.59869910E+00 -1.51973982E+01  7.59869910E+00  7.59869910E+00
 -1.51973982E+01  7.59869910E+00  7.59869910E+00 -1.51973982E+01  7.59869910E+00
  7.59869910E+00 -1.51973982E+01  7.59869910E+00  7.59869910E+00 -1.51973982E+01
  7.59869910E+00  7.59869910E+00 -1.51973982E+01  7.59869910E+00  7.59869910E+00
 -1.51973982E+01  7.59869910E+00  7.59869910E+00 -1.51973982E+01  7.59869910E+00
  7.59869910E+00 -1.51973982E+01  7.59869910E+00  7.59869910E+00 -1.51973982E+01
  7.59869910E+00  7.59869910E+00 -1.51973982E+01  7.59869910E+00  7.59869910E+00
 -1.51973982E+01  7.59869910E+00  7.59869910E+00 -1.51973982E+01  7.59869910E+00
  7.59869910E+00 -1.51973982E+01  7.59869910E+00  7.59869910E+00 -1.51973982E+01
  7.59869910E+00  7.59869910E+00 -1.51973982E+01  7.59869910E+00  7.59869910E+00
 -1.51973982E+01  7.59869910E+00  7.59869910E+00 -1.51973982E+01  7.59869910E+00
  7.59869910E+00 -1.51973982E+01  7.59869910E+00  7.59869910E+00 -1.51973982E+01
  7.59869910E+00  7.59869910E+00 -1.51973982E+01  7.59869910E+00  7.59869910E+00
 -1.51973982E+01  7.59869910E+00  7.59869910E+00 -1.51973982E+01  7.59869910E+00
  7.59869910E+00 -1.51973982E+01  7.59869910E+00  7.59869910E+00 -1.51973982E+01
  7.59869910E+00  7.59869910E+00 -1.51973982E+01  7.59869910E+00  7.59869910E+00
 -1.51973982E+01  7.59869910E+00  7.59869910E+00 -1.51973982E+01  7.59869910E+00
  7.59869910E+00 -1.51973982E+01  7.59869910E+00  7.59869910E+00 -1.51973982E+01
  7.59869910E+00  7.59869910E+00 -1.51973982E+01  7.59869910E+00  7.59869910E+00
 -1.51973982E+01  7.59869910E+00  7.59869910E+00 -1.51973982E+01  7.59869910E+00
  7.59869910E+00 -1.51973982E+01  7.59869910E+00  7.59869910E+00 -1.51973982E+01
  7.59869910E+00  7.59869910E+00 -1.51973982E+01  7.59869910E+00  7.59869910E+00
 -1.51973982E+01  7.59869910E+00  7.59869910E+00 -1.51973982E+01  7.59869910E+00
  7.59869910E+00 -1.51973982E+01  7.59869910E+00  7.59869910E+00 -1.51973982E+01
  7.59869910E+00  7.59869910E+00 -1.51973982E+01  7.59869910E+00  7.59869910E+00
 -1.51973982E+01  7.59869910E+00  7.59869910E+00 -1.51973982E+01  7.59869910E+00
  7.59869910E+00 -1.51973982E+01  7.59869910E+00  7.59869910E+00 -1.51973982E+01
  7.59869910E+00  7.59869910E+00 -1.51973982E+01  7.59869910E+00  7.59869910E+00
 -1.51973982E+01  7.59869910E+00  7.59869910E+00 -1.51973982E+01  7.59869910E+00
  7.59869910E+00 -1.51973982E+01  7.59869910E+00  7.59869910E+00 -1.51973982E+01
  7.59869910E+00  7.59869910E+00 -1.51973982E+01  7.59869910E+00  7.59869910E+00
 -1.51973982E+01  7.59869910E+00  7.59869910E+00 -1.51973982E+01  7.59869910E+00
  7.59869910E+00 -1.51973982E+01  7.59869910E+00  7.59869910E+00 -1.51973982E+01
  7.59869910E+00  7.59869910E+00 -1.51973982E+01  7.59869910E+00  7.59869910E+00
 -1.51973982E+01  7.59869910E+00  7.59869910E+00 -1.51973982E+01  7.59869910E+00
  7.59869910E+00 -1.51973982E+01  7.59869910E+00  7.59869910E+00 -1.51973982E+01
  7.59869910E+00  7.59869910E+00 -1.51973982E+01  7.59869910E+00  7.59869910E+00
 -1.51973982E+01  7.59869910E+00  7.59869910E+00 -1.51973982E+01  7.59869910E+00
  7.59869910E+00 -1.51973982E+01  7.59869910E+00  7.59869910E+00 -1.51973982E+01
  7.59869910E+00  7.59869910E+00 -1.51973982E+01  7.59869910E+00  7.59869910E+00
 -1.51973982E+01  7.59869910E+00  7.59869910E+00 -1.51973982E+01  7.59869910E+00
  7.59869910E+00 -1.51973982E+01  7.59869910E+00  7.59869910E+00 -1.51973982E+01
  7.59869910E+00  7.59869910E+00 -1.51973982E+01  7.59869910E+00  7.59869910E+00
 -1.51973982E+01  7.59869910E+00  7.59869910E+00 -1.51973982E+01  7.59869910E+00
  7.59869910E+00 -1.51973982E+01  7.59869910E+00  7.59869910E+00 -1.51973982E+01
  7.59869910E+00  7.59869910E+00 -1.51973982E+01  7.59869910E+00  7.59869910E+00
 -1.51973982E+01  7.59869910E+00  7.59869910E+00 -1.51973982E+01  7.59869910E+00
  7.59869910E+00 -1.51973982E+01  7.59869910E+00  7.59869910E+00 -1.51973982E+01
  7.59869910E+00  7.59869910E+00 -1.51973982E+01  7.59869910E+00  7.59869910E+00
 -1.51973982E+01  7.59869910E+00  7.59869910E+00 -1.51973982E+01  7.59869910E+00
  7.59869910E+00 -1.51973982E+01  7.59869910E+00  7.59869910E+00 -1.51973982E+01
  7.59869910E+00  7.59869910E+00 -1.51973982E+01  7.59869910E+00  7.59869910E+00
 -1.51973982E+01  7.59869910E+00  7.59869910E+00 -1.51973982E+01  7.59869910E+00
  7.59869910E+00 -1.51973982E+01  7.59869910E+00  7.59869910E+00 -1.51973982E+01
  7.59869910E+00  7.59869910E+00 -1.51973982E+01  7.59869910E+00  7.59869910E+00
 -1.51973982E+01  7.59869910E+00  7.59869910E+00 -1.51973982E+01  7.59869910E+00
  7.59869910E+00 -1.51973982E+01  7.59869910E+00  7.59869910E+00 -1.51973982E+01
  7.59869910E+00  7.59869910E+00 -1.51973982E+01  7.59869910E+00  7.59869910E+00
 -1.51973982E+01  7.59869910E+00  7.59869910E+00 -1.51973982E+01  7.59869910E+00
  7.59869910E+00 -1.51973982E+01  7.59869910E+00  7.59869910E+00 -1.51973982E+01
  7.59869910E+00  7.59869910E+00 -1.51973982E+01  7.59869910E+00  7.59869910E+00
 -1.51973982E+01  7.59869910E+00  7.59869910E+00 -1.51973982E+01  7.59869910E+00
  7.59869910E+00 -1.51973982E+01  7.59869910E+00  7.59869910E+00 -1.51973982E+01
  7.59869910E+00  7.59869910E+00 -1.51973982E+01  7.59869910E+00  7.59869910E+00
 -1.51973982E+01  7.59869910E+00  7.59869910E+00 -1.51973982E+01  7.59869910E+00
  7.59869910E+00 -1.51973982E+01  7.59869910E+00  7.59869910E+00 -1.51973982E+01
  7.59869910E+00  7.59869910E+00 -1.51973982E+01  7.59869910E+00  7.59869910E+00
 -1.51973982E+01  7.59869910E+00  7.59869910E+00 -1.51973982E+01  7.59869910E+00
  7.59869910E+00 -1.51973982E+01  7.59869910E+00  7.59869910E+00 -1.51973982E+01
  7.59869910E+00  7.59869910E+00 -1.51973982E+01  7.59869910E+00  7.59869910E+00
 -1.51973982E+01  7.59869910E+00  7.59869910E+00 -1.51973982E+01  7.59869910E+00
  7.59869910E+00 -1.51973982E+01  7.59869910E+00  7.59869910E+00 -1.51973982E+01
  7.59869910E+00  7.59869910E+00 -1.51973982E+01  7.59869910E+00  7.59869910E+00
 -1.51973982E+01  7.59869910E+00  7.59869910E+00 -1.51973982E+01  7.59869910E+00
  7.59869910E+00 -1.51973982E+01  7.59869910E+00  7.59869910E+00 -1.51973982E+01
  7.59869910E+00  7.59869910E+00 -1.51973982E+01  7.59869910E+00  7.59869910E+00
 -1.51973982E+01  7.59869910E+00  7.59869910E+00 -1.51973982E+01  7.59869910E+00
  7.59869910E+00 -1.51973982E+01  7.59869910E+00  7.59869910E+00 -1.51973982E+01
  7.59869910E+00  7.59869910E+00 -1.51973982E+01  7.59869910E+00  7.59869910E+00
 -1.51973982E+01  7.59869910E+00  7.59869910E+00 -1.51973982E+01  7.59869910E+00
  7.59869910E+00 -1.51973982E+01  7.59869910E+00  7.59869910E+00 -1.51973982E+01
  7.59869910E+00  7.59869910E+00 -1.51973982E+01  7.59869910E+00  7.59869910E+00
 -1.51973982E+01  7.59869910E+00  7.59869910E+00 -1.51973982E+01  7.59869910E+00
  7.59869910E+00 -1.51973982E+01  7.59869910E+00  7.59869910E+00 -1.51973982E+01
  7.59869910E+00  7.59869910E+00 -1.51973982E+01  7.59869910E+00  7.59869910E+00
 -1.51973982E+01  7.59869910E+00  7.59869910E+00 -1.51973982E+01  7.59869910E+00
  7.59869910E+00 -1.51973982E+01  7.59869910E+00  7.59869910E+00 -1.51973982E+01
  7.59869910E+00  7.59869910E+00 -1.51973982E+01  7.59869910E+00  7.59869910E+00
 -1.51973982E+01  7.59869910E+00  7.59869910E+00 -1.51973982E+01  7.59869910E+00
  7.59869910E+00 -1.51973982E+01  7.59869910E+00  7.59869910E+00 -1.51973982E+01
  7.59869910E+00  7.59869910E+00 -1.51973982E+01  7.59869910E+00  7.59869910E+00
 -1.51973982E+01  7.59869910E+00  7.59869910E+00 -1.51973982E+01  7.59869910E+00
  7.59869910E+00 -1.51973982E+01  7.59869910E+00  7.59869910E+00 -1.51973982E+01
  7.59869910E+00  7.59869910E+00 -1.51973982E+01  7.59869910E+00  7.59869910E+00
 -1.51973982E+01  7.59869910E+00  7.59869910E+00 -1.51973982E+01  7.59869910E+00
  7.59869910E+00 -1.51973982E+01  7.59869910E+00  7.59869910E+00 -1.51973982E+01
  7.59869910E+00  7.59869910E+00 -1.51973982E+01  7.59869910E+00  7.59869910E+00
 -1.51973982E+01  7.59869910E+00  7.59869910E+00 -1.51973982E+01  7.59869910E+00
  7.59869910E+00 -1.51973982E+01  7.59869910E+00  7.59869910E+00 -1.51973982E+01
  7.59869910E+00  7.59869910E+00 -1.51973982E+01  7.59869910E+00  7.59869910E+00
 -1.51973982E+01  7.59869910E+00  7.59869910E+00 -1.51973982E+01  7.59869910E+00
  7.59869910E+00 -1.51973982E+01  7.59869910E+00  7.59869910E+00 -1.51973982E+01
  7.59869910E+00  7.59869910E+00 -1.51973982E+01  7.59869910E+00  7.59869910E+00
 -1.51973982E+01  7.59869910E+00  7.59869910E+00 -1.51973982E+01  7.59869910E+00
  7.59869910E+00 -1.51973982E+01  7.59869910E+00  7.59869910E+00 -1.51973982E+01
  7.59869910E+00  7.59869910E+00 -1.51973982E+01  7.59869910E+00  7.59869910E+00
 -1.51973982E+01  7.59869910E+00  7.59869910E+00 -1.51973982E+01  7.59869910E+00
  7.59869910E+00 -1.51973982E+01  7.59869910E+00  7.59869910E+00 -1.51973982E+01
  7.59869910E+00  7.59869910E+00 -1.51973982E+01  7.59869910E+00  7.59869910E+00
 -1.51973982E+01  7.59869910E+00  7.59869910E+00 -1.51973982E+01  7.59869910E+00
  7.59869910E+00 -1.51973982E+01  7.59869910E+00  7.59869910E+00 -1.51973982E+01
  7.59869910E+00  7.59869910E+00 -1.51973982E+01  7.59869910E+00  7.59869910E+00
 -1.51973982E+01  7.59869910E+00  7.59869910E+00 -1.51973982E+01  7.59869910E+00
  7.59869910E+00 -1.51973982E+01  7.59869910E+00  7.59869910E+00 -1.51973982E+01
  7.59869910E+00  7.59869910E+00 -1.51973982E+01  7.59869910E+00  7.59869910E+00
 -1.51973982E+01  7.59869910E+00  7.59869910E+00 -1.51973982E+01  7.59869910E+00
  7.59869910E+00 -1.51973982E+01  7.59869910E+00  7.59869910E+00 -1.51973982E+01
  7.59869910E+00  7.59869910E+00 -1.51973982E+01  7.59869910E+00  7.59869910E+00
 -1.51973982E+01  7.59869910E+00  7.59869910E+00 -1.51973982E+01  7.59869910E+00
  7.59869910E+00 -1.51973982E+01  7.59869910E+00  7.59869910E+00 -1.51973982E+01
  7.59869910E+00  7.59869910E+00 -1.51973982E+01  7.59869910E+00  7.59869910E+00
 -1.51973982E+01  7.59869910E+00  7.59869910E+00 -1.51973982E+01  7.59869910E+00
  7.59869910E+00 -1.51973982E+01  7.59869910E+00  7.59869910E+00 -1.51973982E+01
  7.59869910E+00  7.59869910E+00 -1.51973982E+01  7.59869910E+00  7.59869910E+00
 -1.51973982E+01  7.59869910E+00  7.59869910E+00 -1.51973982E+01  7.59869910E+00
  7.59869910E+00 -1.51973982E+01  7.59869910E+00  7.59869910E+00 -1.51973982E+01
  7.59869910E+00  7.59869910E+00 -1.51973982E+01  7.59869910E+00  7.59869910E+00
 -1.51973982E+01  7.59869910E+00  7.59869910E+00 -1.51973982E+01  7.59869910E+00
  7.59869910E+00 -1.51973982E+01  7.59869910E+00  7.59869910E+00 -1.51973982E+01
  7.59869910E+00  7.59869910E+00 -1.51973982E+01  7.59869910E+00  7.59869910E+00
 -1.51973982E+01  7.59869910E+00  7.59869910E+00 -1.51973982E+01  7.59869910E+00
  7.59869910E+00 -1.51973982E+01  7.59869910E+00  7.59869910E+00 -1.51973982E+01
  7.59869910E+00  7.59869910E+00 -1.51973982E+01  7.59869910E+00  7.59869910E+00
 -1.51973982E+01  7.59869910E+00  7.59869910E+00 -1.51973982E+01  7.59869910E+00
  7.59869910E+00 -1.51973982E+01  7.59869910E+00  7.59869910E+00 -1.51973982E+01
  7.59869910E+00  7.59869910E+00 -1.51973982E+01  7.59869910E+00  7.59869910E+00
 -1.51973982E+01  7.59869910E+00  7.59869910E+00 -1.51973982E+01  7.59869910E+00
  7.59869910E+00 -1.51973982E+01  7.59869910E+00  7.59869910E+00 -1.51973982E+01
  7.59869910E+00  7.59869910E+00 -1.51973982E+01  7.59869910E+00  7.59869910E+00
 -1.51973982E+01  7.59869910E+00  7.59869910E+00 -1.51973982E+01  7.59869910E+00
  7.59869910E+00 -1.51973982E+01  7.59869910E+00  7.59869910E+00 -1.51973982E+01
  7.59869910E+00  7.59869910E+00 -1.51973982E+01  7.59869910E+00  7.59869910E+00
 -1.51973982E+01  7.59869910E+00  7.59869910E+00 -1.51973982E+01  7.59869910E+00
  7.59869910E+00 -1.51973982E+01  7.59869910E+00  7.59869910E+00 -1.51973982E+01
  7.59869910E+00  7.59869910E+00 -1.51973982E+01  7.59869910E+00  7.59869910E+00
 -1.51973982E+01  7.59869910E+00  7.59869910E+00 -1.51973982E+01  7.59869910E+00
  7.59869910E+00 -1.51973982E+01  7.59869910E+00  7.59869910E+00 -1.51973982E+01
  7.59869910E+00  7.59869910E+00 -1.51973982E+01  7.59869910E+00  7.59869910E+00
 -1.51973982E+01  7.59869910E+00  7.59869910E+00 -1.51973982E+01  7.59869910E+00
  7.59869910E+00 -1.51973982E+01  7.59869910E+00  7.59869910E+00 -1.51973982E+01
  7.59869910E+00  7.59869910E+00 -1.51973982E+01  7.59869910E+00  7.59869910E+00
 -1.51973982E+01  7.59869910E+00  7.59869910E+00 -1.51973982E+01  7.59869910E+00
  7.59869910E+00 -1.51973982E+01  7.59869910E+00  7.59869910E+00 -1.51973982E+01
  7.59869910E+00  7.59869910E+00 -1.51973982E+01  7.59869910E+00  7.59869910E+00
 -1.51973982E+01  7.59869910E+00  7.59869910E+00 -1.51973982E+01  7.59869910E+00
  7.59869910E+00 -1.51973982E+01  7.59869910E+00  7.59869910E+00 -1.51973982E+01
  7.59869910E+00  7.59869910E+00 -1.51973982E+01  7.59869910E+00  7.59869910E+00
 -1.51973982E+01  7.59869910E+00  7.59869910E+00 -1.51973982E+01  7.59869910E+00
  7.59869910E+00 -1.51973982E+01  7.59869910E+00  7.59869910E+00 -1.51973982E+01
  7.59869910E+00  7.59869910E+00 -1.51973982E+01  7.59869910E+00  7.59869910E+00
 -1.51973982E+01  7.59869910E+00  7.59869910E+00 -1.51973982E+01  7.59869910E+00
  7.59869910E+00 -1.51973982E+01  7.59869910E+00  7.59869910E+00 -1.51973982E+01
  7.59869910E+00  7.59869910E+00 -1.51973982E+01  7.59869910E+00  7.59869910E+00
 -1.51973982E+01  7.59869910E+00  7.59869910E+00 -1.51973982E+01  7.59869910E+00
  7.59869910E+00 -1.51973982E+01  7.59869910E+00  7.59869910E+00 -1.51973982E+01
  7.59869910E+00  7.59869910E+00 -1.51973982E+01  7.59869910E+00  7.59869910E+00
 -1.51973982E+01  7.59869910E+00  7.59869910E+00 -1.51973982E+01  7.59869910E+00
  7.59869910E+00 -1.51973982E+01  7.59869910E+00  7.59869910E+00 -1.51973982E+01
  7.59869910E+00  7.59869910E+00 -1.51973982E+01  7.59869910E+00  7.59869910E+00
 -1.51973982E+01  7.59869910E+00  7.59869910E+00 -1.51973982E+01  7.59869910E+00
  7.59869910E+00 -1.51973982E+01  7.59869910E+00  7.59869910E+00 -1.51973982E+01
  7.59869910E+00  7.59869910E+00 -1.51973982E+01  7.59869910E+00  7.59869910E+00
 -1.51973982E+01  7.59869910E+00  7.59869910E+00 -1.51973982E+01  7.59869910E+00
  7.59869910E+00 -1.51973982E+01  7.59869910E+00  7.59869910E+00 -1.51973982E+01
  7.59869910E+00  7.59869910E+00 -1.51973982E+01  7.59869910E+00  7.59869910E+00
 -1.51973982E+01  7.59869910E+00  7.59869910E+00 -1.51973982E+01  7.59869910E+00
  7.59869910E+00 -1.51973982E+01  7.59869910E+00  7.59869910E+00 -1.51973982E+01
  7.59869910E+00  7.59869910E+00 -1.51973982E+01  7.59869910E+00  7.59869910E+00
 -1.51973982E+01  7.59869910E+00  7.59869910E+00 -1.51973982E+01  7.59869910E+00
  7.59869910E+00 -1.51973982E+01  7.59869910E+00  7.59869910E+00 -1.51973982E+01
  7.59869910E+00  7.59869910E+00 -1.51973982E+01  7.59869910E+00  7.59869910E+00
 -1.51973982E+01  7.59869910E+00  7.59869910E+00 -1.51973982E+01  7.59869910E+00
  7.59869910E+00 -1.51973982E+01  7.59869910E+00  7.59869910E+00 -1.51973982E+01
  7.59869910E+00  7.59869910E+00 -1.51973982E+01  7.59869910E+00  7.59869910E+00
 -1.51973982E+01  7.59869910E+00  7.59869910E+00 -1.51973982E+01  7.59869910E+00
  7.59869910E+00 -1.51973982E+01  7.59869910E+00  7.59869910E+00 -1.51973982E+01
  7.59869910E+00  7.59869910E+00 -1.51973982E+01  7.59869910E+00  7.59869910E+00
 -1.51973982E+01  7.59869910E+00  7.59869910E+00 -1.51973982E+01  7.59869910E+00
  7.59869910E+00 -1.51973982E+01  7.59869910E+00  7.59869910E+00 -1.51973982E+01
  7.59869910E+00  7.59869910E+00 -1.51973982E+01  7.59869910E+00  7.59869910E+00
 -1.51973982E+01  7.59869910E+00  7.59869910E+00 -1.51973982E+01  7.59869910E+00
  7.59869910E+00 -1.51973982E+01  7.59869910E+00  7.59869910E+00 -1.51973982E+01
  7.59869910E+00  7.59869910E+00 -1.51973982E+01  7.59869910E+00  7.59869910E+00
 -1.51973982E+01  7.59869910E+00  7.59869910E+00 -1.51973982E+01  7.59869910E+00
  7.59869910E+00 -1.51973982E+01  7.59869910E+00  7.59869910E+00 -1.51973982E+01
  7.59869910E+00  7.59869910E+00 -1.51973982E+01  7.59869910E+00  7.59869910E+00
 -1.51973982E+01  7.59869910E+00  7.59869910E+00 -1.51973982E+01  7.59869910E+00
  7.59869910E+00 -1.51973982E+01  7.59869910E+00  7.59869910E+00 -1.51973982E+01
  7.59869910E+00  7.59869910E+00 -1.51973982E+01  7.59869910E+00  7.59869910E+00
 -1.51973982E+01  7.59869910E+00  7.59869910E+00 -1.51973982E+01  7.59869910E+00
  7.59869910E+00 -1.51973982E+01  7.59869910E+00  7.59869910E+00 -1.51973982E+01
  7.59869910E+00  7.59869910E+00 -1.51973982E+01  7.59869910E+00  7.59869910E+00
 -1.51973982E+01  7.59869910E+00  7.59869910E+00 -1.51973982E+01  7.59869910E+00
  7.59869910E+00 -1.51973982E+01  7.59869910E+00  7.59869910E+00 -1.51973982E+01
  7.59869910E+00  7.59869910E+00 -1.51973982E+01  7.59869910E+00  7.59869910E+00
 -1.51973982E+01  7.59869910E+00  7.59869910E+00 -1.51973982E+01  7.59869910E+00
  7.59869910E+00 -1.51973982E+01  7.59869910E+00  7.59869910E+00 -1.51973982E+01
  7.59869910E+00  7.59869910E+00 -1.51973982E+01  7.59869910E+00  7.59869910E+00
 -1.51973982E+01  7.59869910E+00  7.59869910E+00 -1.51973982E+01  7.59869910E+00
  7.59869910E+00 -1.51973982E+01  7.59869910E+00  7.59869910E+00 -1.51973982E+01
  7.59869910E+00  7.59869910E+00 -1.51973982E+01  7.59869910E+00  7.59869910E+00
 -1.51973982E+01  7.59869910E+00  7.59869910E+00 -1.51973982E+01  7.59869910E+00
  7.59869910E+00 -1.51973982E+01  7.59869910E+00  7.59869910E+00 -1.51973982E+01
  7.59869910E+00  7.59869910E+00 -1.51973982E+01  7.59869910E+00  7.59869910E+00
 -1.51973982E+01  7.59869910E+00  7.59869910E+00 -1.51973982E+01  7.59869910E+00
  7.59869910E+00 -1.51973982E+01  7.59869910E+00  7.59869910E+00 -1.51973982E+01
  7.59869910E+00  7.59869910E+00 -1.51973982E+01  7.59869910E+00  7.59869910E+00
 -1.51973982E+01  7.59869910E+00  7.59869910E+00 -1.51973982E+01  7.59869910E+00
  7.59869910E+00 -1.51973982E+01  7.59869910E+00  7.59869910E+00 -1.51973982E+01
  7.59869910E+00  7.59869910E+00 -1.51973982E+01  7.59869910E+00  7.59869910E+00
 -1.51973982E+01  7.59869910E+00  7.59869910E+00 -1.51973982E+01  7.59869910E+00
  7.59869910E+00 -1.51973982E+01  7.59869910E+00  7.59869910E+00 -1.51973982E+01
  7.59869910E+00  7.59869910E+00 -1.51973982E+01  7.59869910E+00  7.59869910E+00
 -1.51973982E+01  7.59869910E+00  7.59869910E+00 -1.51973982E+01  7.59869910E+00
  7.59869910E+00 -1.51973982E+01  7.59869910E+00  7.59869910E+00 -1.51973982E+01
  7.59869910E+00  7.59869910E+00 -1.51973982E+01  7.59869910E+00  7.59869910E+00
 -1.51973982E+01  7.59869910E+00  7.59869910E+00 -1.51973982E+01  7.59869910E+00
  7.59869910E+00 -1.51973982E+01  7.59869910E+00  7.59869910E+00 -1.51973982E+01
  7.59869910E+00  7.59869910E+00 -1.51973982E+01  7.59869910E+00  7.59869910E+00
 -1.51973982E+01  7.59869910E+00  7.59869910E+00 -1.51973982E+01  7.59869910E+00
  7.59869910E+00 -1.51973982E+01  7.59869910E+00  7.59869910E+00 -1.51973982E+01
  7.59869910E+00  7.59869910E+00 -1.51973982E+01  7.59869910E+00  7.59869910E+00
 -1.51973982E+01  7.59869910E+00  7.59869910E+00 -1.51973982E+01  7.59869910E+00
  7.59869910E+00 -1.51973982E+01  7.59869910E+00  7.59869910E+00 -1.51973982E+01
  7.59869910E+00  7.59869910E+00 -1.51973982E+01  7.59869910E+00  7.59869910E+00
 -1.51973982E+01  7.59869910E+00  7.59869910E+00 -1.51973982E+01  7.59869910E+00
  7.59869910E+00 -1.51973982E+01  7.59869910E+00  7.59869910E+00 -1.51973982E+01
  7.59869910E+00  7.59869910E+00 -1.51973982E+01  7.59869910E+00  7.59869910E+00
 -1.51973982E+01  7.59869910E+00  7.59869910E+00 -1.51973982E+01  7.59869910E+00
  7.59869910E+00 -1.51973982E+01  7.59869910E+00  7.59869910E+00 -1.51973982E+01
  7.59869910E+00  7.59869910E+00 -1.51973982E+01  7.59869910E+00  7.59869910E+00
 -1.51973982E+01  7.59869910E+00  7.59869910E+00 -1.51973982E+01  7.59869910E+00
  7.59869910E+00 -1.51973982E+01  7.59869910E+00  7.59869910E+00 -1.51973982E+01
  7.59869910E+00  7.59869910E+00 -1.51973982E+01  7.59869910E+00  7.59869910E+00
 -1.51973982E+01  7.59869910E+00  7.59869910E+00 -1.51973982E+01  7.59869910E+00
  7.59869910E+00 -1.51973982E+01  7.59869910E+00  7.59869910E+00 -1.51973982E+01
  7.59869910E+00  7.59869910E+00 -1.51973982E+01  7.59869910E+00  7.59869910E+00
 -1.51973982E+01  7.59869910E+00  7.59869910E+00 -1.51973982E+01  7.59869910E+00
  7.59869910E+00 -1.51973982E+01  7.59869910E+00  7.59869910E+00 -1.51973982E+01
  7.59869910E+00  7.59869910E+00 -1.51973982E+01  7.59869910E+00  7.59869910E+00
 -1.51973982E+01  7.59869910E+00  7.59869910E+00 -1.51973982E+01  7.59869910E+00
  7.59869910E+00 -1.51973982E+01  7.59869910E+00  7.59869910E+00 -1.51973982E+01
  7.59869910E+00  7.59869910E+00 -1.51973982E+01  7.59869910E+00  7.59869910E+00
 -1.51973982E+01  7.59869910E+00  7.59869910E+00 -1.51973982E+01  7.59869910E+00
  7.59869910E+00 -1.51973982E+01  7.59869910E+00  7.59869910E+00 -1.51973982E+01
  7.59869910E+00  7.59869910E+00 -1.51973982E+01  7.59869910E+00  7.59869910E+00
 -1.51973982E+01  7.59869910E+00  7.59869910E+00 -1.51973982E+01  7.59869910E+00
  7.59869910E+00 -1.51973982E+01  7.59869910E+00  7.59869910E+00 -1.51973982E+01
  7.59869910E+00  7.59869910E+00 -1.51973982E+01  7.59869910E+00  7.59869910E+00
 -1.51973982E+01  7.59869910E+00  7.59869910E+00 -1.51973982E+01  7.59869910E+00
  7.59869910E+00 -1.51973982E+01  7.59869910E+00  7.59869910E+00 -1.51973982E+01
  7.59869910E+00  7.59869910E+00 -1.51973982E+01  7.59869910E+00  7.59869910E+00
 -1.51973982E+01  7.59869910E+00  7.59869910E+00 -1.51973982E+01  7.59869910E+00
  7.59869910E+00 -1.51973982E+01  7.59869910E+00  7.59869910E+00 -1.51973982E+01
  7.59869910E+00  7.59869910E+00 -1.51973982E+01  7.59869910E+00  7.59869910E+00
 -1.51973982E+01  7.59869910E+00  7.59869910E+00 -1.51973982E+01  7.59869910E+00
  7.59869910E+00 -1.51973982E+01  7.59869910E+00  7.59869910E+00 -1.51973982E+01
  7.59869910E+00  7.59869910E+00 -1.51973982E+01  7.59869910E+00  7.59869910E+00
 -1.51973982E+01  7.59869910E+00  7.59869910E+00 -1.51973982E+01  7.59869910E+00
  7.59869910E+00 -1.51973982E+01  7.59869910E+00  7.59869910E+00 -1.51973982E+01
  7.59869910E+00  7.59869910E+00 -1.51973982E+01  7.59869910E+00  7.59869910E+00
 -1.51973982E+01  7.59869910E+00  7.59869910E+00 -1.51973982E+01  7.59869910E+00
  7.59869910E+00 -1.51973982E+01  7.59869910E+00  7.59869910E+00 -1.51973982E+01
  7.59869910E+00  7.59869910E+00 -1.51973982E+01  7.59869910E+00  7.59869910E+00
 -1.51973982E+01  7.59869910E+00  7.59869910E+00 -1.51973982E+01  7.59869910E+00
  7.59869910E+00 -1.51973982E+01  7.59869910E+00  7.59869910E+00 -1.51973982E+01
  7.59869910E+00  7.59869910E+00 -1.51973982E+01  7.59869910E+00  7.59869910E+00
 -1.51973982E+01  7.59869910E+00  7.59869910E+00 -1.51973982E+01  7.59869910E+00
  7.59869910E+00 -1.51973982E+01  7.59869910E+00  7.59869910E+00 -1.51973982E+01
  7.59869910E+00  7.59869910E+00 -1.51973982E+01  7.59869910E+00  7.59869910E+00
 -1.51973982E+01  7.59869910E+00  7.59869910E+00 -1.51973982E+01  7.59869910E+00
  7.59869910E+00 -1.51973982E+01  7.59869910E+00  7.59869910E+00 -1.51973982E+01
  7.59869910E+00  7.59869910E+00 -1.51973982E+01  7.59869910E+00  7.59869910E+00
 -1.51973982E+01  7.59869910E+00  7.59869910E+00 -1.51973982E+01  7.59869910E+00
  7.59869910E+00 -1.51973982E+01  7.59869910E+00  7.59869910E+00 -1.51973982E+01
  7.59869910E+00  7.59869910E+00 -1.51973982E+01  7.59869910E+00  7.59869910E+00
 -1.51973982E+01  7.59869910E+00  7.59869910E+00 -1.51973982E+01  7.59869910E+00
  7.59869910E+00 -1.51973982E+01  7.59869910E+00  7.59869910E+00 -1.51973982E+01
  7.59869910E+00  7.59869910E+00 -1.51973982E+01  7.59869910E+00  7.59869910E+00
 -1.51973982E+01  7.59869910E+00  7.59869910E+00 -1.51973982E+01  7.59869910E+00
  7.59869910E+00 -1.51973982E+01  7.59869910E+00  7.59869910E+00 -1.51973982E+01
  7.59869910E+00  7.59869910E+00 -1.51973982E+01  7.59869910E+00  7.59869910E+00
 -1.51973982E+01  7.59869910E+00  7.59869910E+00 -1.51973982E+01  7.59869910E+00
  7.59869910E+00 -1.51973982E+01  7.59869910E+00  7.59869910E+00 -1.51973982E+01
  7.59869910E+00  7.59869910E+00 -1.51973982E+01  7.59869910E+00  7.59869910E+00
 -1.51973982E+01  7.59869910E+00  7.59869910E+00 -1.51973982E+01  7.59869910E+00
  7.59869910E+00 -1.51973982E+01  7.59869910E+00  7.59869910E+00 -1.51973982E+01
  7.59869910E+00  7.59869910E+00 -1.51973982E+01  7.59869910E+00  7.59869910E+00
 -1.51973982E+01  7.59869910E+00  7.59869910E+00 -1.51973982E+01  7.59869910E+00
  7.59869910E+00 -1.51973982E+01  7.59869910E+00  7.59869910E+00 -1.51973982E+01
  7.59869910E+00  7.59869910E+00 -1.51973982E+01  7.59869910E+00  7.59869910E+00
 -1.51973982E+01  7.59869910E+00  7.59869910E+00 -1.51973982E+01  7.59869910E+00
  7.59869910E+00 -1.51973982E+01  7.59869910E+00  7.59869910E+00 -1.51973982E+01
  7.59869910E+00  7.59869910E+00 -1.51973982E+01  7.59869910E+00  7.59869910E+00
 -1.51973982E+01  7.59869910E+00  7.59869910E+00 -1.51973982E+01  7.59869910E+00
  7.59869910E+00 -1.51973982E+01  7.59869910E+00  7.59869910E+00 -1.51973982E+01
  7.59869910E+00  7.59869910E+00 -1.51973982E+01  7.59869910E+00  7.59869910E+00
 -1.51973982E+01  7.59869910E+00  7.59869910E+00 -1.51973982E+01  7.59869910E+00
  7.59869910E+00 -1.51973982E+01  7.59869910E+00  7.59869910E+00 -1.51973982E+01
  7.59869910E+00  7.59869910E+00 -1.51973982E+01  7.59869910E+00  7.59869910E+00
 -1.51973982E+01  7.59869910E+00  7.59869910E+00 -1.51973982E+01  7.59869910E+00
  7.59869910E+00 -1.51973982E+01  7.59869910E+00  7.59869910E+00 -1.51973982E+01
  7.59869910E+00  7.59869910E+00 -1.51973982E+01  7.59869910E+00  7.59869910E+00
 -1.51973982E+01  7.59869910E+00  7.59869910E+00 -1.51973982E+01  7.59869910E+00
  7.59869910E+00 -1.51973982E+01  7.59869910E+00  7.59869910E+00 -1.51973982E+01
  7.59869910E+00  7.59869910E+00 -1.51973982E+01  7.59869910E+00  7.59869910E+00
 -1.51973982E+01  7.59869910E+00  7.59869910E+00 -1.51973982E+01  7.59869910E+00
  7.59869910E+00 -1.51973982E+01  7.59869910E+00  7.59869910E+00 -1.51973982E+01
  7.59869910E+00  7.59869910E+00 -1.51973982E+01  7.59869910E+00  7.59869910E+00
 -1.51973982E+01  7.59869910E+00  7.59869910E+00 -1.51973982E+01  7.59869910E+00
  7.59869910E+00 -1.51973982E+01  7.59869910E+00  7.59869910E+00 -1.51973982E+01
  7.59869910E+00  7.59869910E+00 -1.51973982E+01  7.59869910E+00  7.59869910E+00
 -1.51973982E+01  7.59869910E+00  7.59869910E+00 -1.51973982E+01  7.59869910E+00
  7.59869910E+00 -1.51973982E+01  7.59869910E+00  7.59869910E+00 -1.51973982E+01
  7.59869910E+00  7.59869910E+00 -1.51973982E+01  7.59869910E+00  7.59869910E+00
 -1.51973982E+01  7.59869910E+00  7.59869910E+00 -1.51973982E+01  7.59869910E+00
  7.59869910E+00 -1.51973982E+01  7.59869910E+00  7.59869910E+00 -1.51973982E+01
  7.59869910E+00  7.59869910E+00 -1.51973982E+01  7.59869910E+00  7.59869910E+00
 -1.51973982E+01  7.59869910E+00  7.59869910E+00 -1.51973982E+01  7.59869910E+00
  7.59869910E+00 -1.51973982E+01  7.59869910E+00  7.59869910E+00 -1.51973982E+01
  7.59869910E+00  7.59869910E+00 -1.51973982E+01  7.59869910E+00  7.59869910E+00
 -1.51973982E+01  7.59869910E+00  7.59869910E+00 -1.51973982E+01  7.59869910E+00
  7.59869910E+00 -1.51973982E+01  7.59869910E+00  7.59869910E+00 -1.51973982E+01
  7.59869910E+00  7.59869910E+00 -1.51973982E+01  7.59869910E+00  7.59869910E+00
 -1.51973982E+01  7.59869910E+00  7.59869910E+00 -1.51973982E+01  7.59869910E+00
  7.59869910E+00 -1.51973982E+01  7.59869910E+00  7.59869910E+00 -1.51973982E+01
  7.59869910E+00  7.59869910E+00 -1.51973982E+01  7.59869910E+00  7.59869910E+00
 -1.51973982E+01  7.59869910E+00  7.59869910E+00 -1.51973982E+01  7.59869910E+00
  7.59869910E+00 -1.51973982E+01  7.59869910E+00  7.59869910E+00 -1.51973982E+01
  7.59869910E+00  7.59869910E+00 -1.51973982E+01  7.59869910E+00  7.59869910E+00
 -1.51973982E+01  7.59869910E+00  7.59869910E+00 -1.51973982E+01  7.59869910E+00
  7.59869910E+00 -1.51973982E+01  7.59869910E+00  7.59869910E+00 -1.51973982E+01
  7.59869910E+00  7.59869910E+00 -1.51973982E+01  7.59869910E+00  7.59869910E+00
 -1.51973982E+01  7.59869910E+00  7.59869910E+00 -1.51973982E+01  7.59869910E+00
  7.59869910E+00 -1.51973982E+01  7.59869910E+00  7.59869910E+00 -1.51973982E+01
  7.59869910E+00  7.59869910E+00 -1.51973982E+01  7.59869910E+00  7.59869910E+00
 -1.51973982E+01  7.59869910E+00  7.59869910E+00 -1.51973982E+01  7.59869910E+00
  7.59869910E+00 -1.51973982E+01  7.59869910E+00  7.59869910E+00 -1.51973982E+01
  7.59869910E+00  7.59869910E+00 -1.51973982E+01  7.59869910E+00  7.59869910E+00
 -1.51973982E+01  7.59869910E+00  7.59869910E+00 -1.51973982E+01  7.59869910E+00
  7.59869910E+00 -1.51973982E+01  7.59869910E+00  7.59869910E+00 -1.51973982E+01
  7.59869910E+00  7.59869910E+00 -1.51973982E+01  7.59869910E+00  7.59869910E+00
 -1.51973982E+01  7.59869910E+00  7.59869910E+00 -1.51973982E+01  7.59869910E+00
  7.59869910E+00 -1.51973982E+01  7.59869910E+00  7.59869910E+00 -1.51973982E+01
  7.59869910E+00  7.59869910E+00 -1.51973982E+01  7.59869910E+00  7.59869910E+00
 -1.51973982E+01  7.59869910E+00  7.59869910E+00 -1.51973982E+01  7.59869910E+00
  7.59869910E+00 -1.51973982E+01  7.59869910E+00  7.59869910E+00 -1.51973982E+01
  7.59869910E+00  7.59869910E+00 -1.51973982E+01  7.59869910E+00  7.59869910E+00
 -1.51973982E+01  7.59869910E+00  7.59869910E+00 -1.51973982E+01  7.59869910E+00
  7.59869910E+00 -1.51973982E+01  7.59869910E+00  7.59869910E+00 -1.51973982E+01
  7.59869910E+00  7.59869910E+00 -1.51973982E+01  7.59869910E+00  7.59869910E+00
 -1.51973982E+01  7.59869910E+00  7.59869910E+00 -1.51973982E+01  7.59869910E+00
  7.59869910E+00 -1.51973982E+01  7.59869910E+00  7.59869910E+00 -1.51973982E+01
  7.59869910E+00  7.59869910E+00 -1.51973982E+01  7.59869910E+00  7.59869910E+00
 -1.51973982E+01  7.59869910E+00  7.59869910E+00 -1.51973982E+01  7.59869910E+00
  7.59869910E+00 -1.51973982E+01  7.59869910E+00  7.59869910E+00 -1.51973982E+01
  7.59869910E+00  7.59869910E+00 -1.51973982E+01  7.59869910E+00  7.59869910E+00
 -1.51973982E+01  7.59869910E+00  7.59869910E+00 -1.51973982E+01  7.59869910E+00
  7.59869910E+00 -1.51973982E+01  7.59869910E+00  7.59869910E+00 -1.51973982E+01
  7.59869910E+00  7.59869910E+00 -1.51973982E+01  7.59869910E+00  7.59869910E+00
 -1.51973982E+01  7.59869910E+00  7.59869910E+00 -1.51973982E+01  7.59869910E+00
  7.59869910E+00 -1.51973982E+01  7.59869910E+00  7.59869910E+00 -1.51973982E+01
  7.59869910E+00  7.59869910E+00 -1.51973982E+01  7.59869910E+00  7.59869910E+00
 -1.51973982E+01  7.59869910E+00  7.59869910E+00 -1.51973982E+01  7.59869910E+00
  7.59869910E+00 -1.51973982E+01  7.59869910E+00  7.59869910E+00 -1.51973982E+01
  7.59869910E+00  7.59869910E+00 -1.51973982E+01  7.59869910E+00  7.59869910E+00
 -1.51973982E+01  7.59869910E+00  7.59869910E+00 -1.51973982E+01  7.59869910E+00
  7.59869910E+00 -1.51973982E+01  7.59869910E+00  7.59869910E+00 -1.51973982E+01
  7.59869910E+00  7.59869910E+00 -1.51973982E+01  7.59869910E+00  7.59869910E+00
 -1.51973982E+01  7.59869910E+00  7.59869910E+00 -1.51973982E+01  7.59869910E+00
  7.59869910E+00 -1.51973982E+01  7.59869910E+00  7.59869910E+00 -1.51973982E+01
  7.59869910E+00  7.59869910E+00 -1.51973982E+01  7.59869910E+00  7.59869910E+00
 -1.51973982E+01  7.59869910E+00  7.59869910E+00 -1.51973982E+01  7.59869910E+00
  7.59869910E+00 -1.51973982E+01  7.59869910E+00  7.59869910E+00 -1.51973982E+01
  7.59869910E+00  7.59869910E+00 -1.51973982E+01  7.59869910E+00  7.59869910E+00
 -1.51973982E+01  7.59869910E+00  7.59869910E+00 -1.51973982E+01  7.59869910E+00
  7.59869910E+00 -1.51973982E+01  7.59869910E+00  7.59869910E+00 -1.51973982E+01
  7.59869910E+00  7.59869910E+00 -1.51973982E+01  7.59869910E+00  7.59869910E+00
 -1.51973982E+01  7.59869910E+00  7.59869910E+00 -1.51973982E+01  7.59869910E+00
  7.59869910E+00 -1.51973982E+01  7.59869910E+00  7.59869910E+00 -1.51973982E+01
  7.59869910E+00  7.59869910E+00 -1.51973982E+01  7.59869910E+00  7.59869910E+00
 -1.51973982E+01  7.59869910E+00  7.59869910E+00 -1.51973982E+01  7.59869910E+00
  7.59869910E+00 -1.51973982E+01  7.59869910E+00  7.59869910E+00 -1.51973982E+01
  7.59869910E+00  7.59869910E+00 -1.51973982E+01  7.59869910E+00  7.59869910E+00
 -1.51973982E+01  7.59869910E+00  7.59869910E+00 -1.51973982E+01  7.59869910E+00
  7.59869910E+00 -1.51973982E+01  7.59869910E+00  7.59869910E+00 -1.51973982E+01
  7.59869910E+00  7.59869910E+00 -1.51973982E+01  7.59869910E+00  7.59869910E+00
 -1.51973982E+01  7.59869910E+00  7.59869910E+00 -1.51973982E+01  7.59869910E+00
  7.59869910E+00 -1.51973982E+01  7.59869910E+00  7.59869910E+00 -1.51973982E+01
  7.59869910E+00  7.59869910E+00 -1.51973982E+01  7.59869910E+00  7.59869910E+00
 -1.51973982E+01  7.59869910E+00  7.59869910E+00 -1.51973982E+01  7.59869910E+00
  7.59869910E+00 -1.51973982E+01  7.59869910E+00  7.59869910E+00 -1.51973982E+01
  7.59869910E+00  7.59869910E+00 -1.51973982E+01  7.59869910E+00  7.59869910E+00
 -1.51973982E+01  7.59869910E+00  7.59869910E+00 -1.51973982E+01  7.59869910E+00
  7.59869910E+00 -1.51973982E+01  7.59869910E+00  7.59869910E+00 -1.51973982E+01
  7.59869910E+00  7.59869910E+00 -1.51973982E+01  7.59869910E+00  7.59869910E+00
 -1.51973982E+01  7.59869910E+00  7.59869910E+00 -1.51973982E+01  7.59869910E+00
  7.59869910E+00 -1.51973982E+01  7.59869910E+00  7.59869910E+00 -1.51973982E+01
  7.59869910E+00  7.59869910E+00 -1.51973982E+01  7.59869910E+00  7.59869910E+00
 -1.51973982E+01  7.59869910E+00  7.59869910E+00 -1.51973982E+01  7.59869910E+00
  7.59869910E+00 -1.51973982E+01  7.59869910E+00  7.59869910E+00 -1.51973982E+01
  7.59869910E+00  7.59869910E+00 -1.51973982E+01  7.59869910E+00  7.59869910E+00
 -1.51973982E+01  7.59869910E+00  7.59869910E+00 -1.51973982E+01  7.59869910E+00
  7.59869910E+00 -1.51973982E+01  7.59869910E+00  7.59869910E+00 -1.51973982E+01
  7.59869910E+00  7.59869910E+00 -1.51973982E+01  7.59869910E+00  7.59869910E+00
 -1.51973982E+01  7.59869910E+00  7.59869910E+00 -1.51973982E+01  7.59869910E+00
  7.59869910E+00 -1.51973982E+01  7.59869910E+00  7.59869910E+00 -1.51973982E+01
  7.59869910E+00  7.59869910E+00 -1.51973982E+01  7.59869910E+00  7.59869910E+00
 -1.51973982E+01  7.59869910E+00  7.59869910E+00 -1.51973982E+01  7.59869910E+00
  7.59869910E+00 -1.51973982E+01  7.59869910E+00  7.59869910E+00 -1.51973982E+01
  7.59869910E+00  7.59869910E+00 -1.51973982E+01  7.59869910E+00  7.59869910E+00
 -1.51973982E+01  7.59869910E+00  7.59869910E+00 -1.51973982E+01  7.59869910E+00
  7.59869910E+00 -1.51973982E+01  7.59869910E+00  7.59869910E+00 -1.51973982E+01
  7.59869910E+00  7.59869910E+00 -1.51973982E+01  7.59869910E+00  7.59869910E+00
 -1.51973982E+01  7.59869910E+00  7.59869910E+00 -1.51973982E+01  7.59869910E+00
  7.59869910E+00 -1.51973982E+01  7.59869910E+00  7.59869910E+00 -1.51973982E+01
  7.59869910E+00  7.59869910E+00 -1.51973982E+01  7.59869910E+00  7.59869910E+00
 -1.51973982E+01  7.59869910E+00  7.59869910E+00 -1.51973982E+01  7.59869910E+00
  7.59869910E+00 -1.51973982E+01  7.59869910E+00  7.59869910E+00 -1.51973982E+01
  7.59869910E+00  7.59869910E+00 -1.51973982E+01  7.59869910E+00  7.59869910E+00
 -1.51973982E+01  7.59869910E+00  7.59869910E+00 -1.51973982E+01  7.59869910E+00
  7.59869910E+00 -1.51973982E+01  7.59869910E+00  7.59869910E+00 -1.51973982E+01
  7.59869910E+00  7.59869910E+00 -1.51973982E+01  7.59869910E+00  7.59869910E+00
 -1.51973982E+01  7.59869910E+00  7.59869910E+00 -1.51973982E+01  7.59869910E+00
  7.59869910E+00 -1.51973982E+01  7.59869910E+00  7.59869910E+00 -1.51973982E+01
  7.59869910E+00  7.59869910E+00 -1.51973982E+01  7.59869910E+00  7.59869910E+00
 -1.51973982E+01  7.59869910E+00  7.59869910E+00 -1.51973982E+01  7.59869910E+00
  7.59869910E+00 -1.51973982E+01  7.59869910E+00  7.59869910E+00 -1.51973982E+01
  7.59869910E+00  7.59869910E+00 -1.51973982E+01  7.59869910E+00  7.59869910E+00
 -1.51973982E+01  7.59869910E+00  7.59869910E+00 -1.51973982E+01  7.59869910E+00
  7.59869910E+00 -1.51973982E+01  7.59869910E+00  7.59869910E+00 -1.51973982E+01
  7.59869910E+00  7.59869910E+00 -1.51973982E+01  7.59869910E+00  7.59869910E+00
 -1.51973982E+01  7.59869910E+00  7.59869910E+00 -1.51973982E+01  7.59869910E+00
  7.59869910E+00 -1.51973982E+01  7.59869910E+00  7.59869910E+00 -1.51973982E+01
  7.59869910E+00  7.59869910E+00 -1.51973982E+01  7.59869910E+00  7.59869910E+00
 -1.51973982E+01  7.59869910E+00  7.59869910E+00 -1.51973982E+01  7.59869910E+00
  7.59869910E+00 -1.51973982E+01  7.59869910E+00  7.59869910E+00 -1.51973982E+01
  7.59869910E+00  7.59869910E+00 -1.51973982E+01  7.59869910E+00  7.59869910E+00
 -1.51973982E+01  7.59869910E+00  7.59869910E+00 -1.51973982E+01  7.59869910E+00
  7.59869910E+00 -1.51973982E+01  7.59869910E+00  7.59869910E+00 -1.51973982E+01
  7.59869910E+00  7.59869910E+00 -1.51973982E+01  7.59869910E+00  7.59869910E+00
 -1.51973982E+01  7.59869910E+00  7.59869910E+00 -1.51973982E+01  7.59869910E+00
  7.59869910E+00 -1.51973982E+01  7.59869910E+00  7.59869910E+00 -1.51973982E+01
  7.59869910E+00  7.59869910E+00 -1.51973982E+01  7.59869910E+00  7.59869910E+00
 -1.51973982E+01  7.59869910E+00  7.59869910E+00 -1.51973982E+01  7.59869910E+00
  7.59869910E+00 -1.51973982E+01  7.59869910E+00  7.59869910E+00 -1.51973982E+01
  7.59869910E+00  7.59869910E+00 -1.51973982E+01  7.59869910E+00  7.59869910E+00
 -1.51973982E+01  7.59869910E+00  7.59869910E+00 -1.51973982E+01  7.59869910E+00
  7.59869910E+00 -1.51973982E+01  7.59869910E+00  7.59869910E+00 -1.51973982E+01
  7.59869910E+00  7.59869910E+00 -1.51973982E+01  7.59869910E+00  7.59869910E+00
 -1.51973982E+01  7.59869910E+00  7.59869910E+00 -1.51973982E+01  7.59869910E+00
  7.59869910E+00 -1.51973982E+01  7.59869910E+00  7.59869910E+00 -1.51973982E+01
  7.59869910E+00  7.59869910E+00 -1.51973982E+01  7.59869910E+00  7.59869910E+00
 -1.51973982E+01  7.59869910E+00  7.59869910E+00 -1.51973982E+01  7.59869910E+00
  7.59869910E+00 -1.51973982E+01  7.59869910E+00  7.59869910E+00 -1.51973982E+01
  7.59869910E+00  7.59869910E+00 -1.51973982E+01  7.59869910E+00  7.59869910E+00
 -1.51973982E+01  7.59869910E+00  7.59869910E+00 -1.51973982E+01  7.59869910E+00
  7.59869910E+00 -1.51973982E+01  7.59869910E+00  7.59869910E+00 -1.51973982E+01
  7.59869910E+00  7.59869910E+00 -1.51973982E+01  7.59869910E+00  7.59869910E+00
 -1.51973982E+01  7.59869910E+00  7.59869910E+00 -1.51973982E+01  7.59869910E+00
  7.59869910E+00 -1.51973982E+01  7.59869910E+00  7.59869910E+00 -1.51973982E+01
  7.59869910E+00  7.59869910E+00 -1.51973982E+01  7.59869910E+00  7.59869910E+00
 -1.51973982E+01  7.59869910E+00  7.59869910E+00 -1.51973982E+01  7.59869910E+00
  7.59869910E+00 -1.51973982E+01  7.59869910E+00  7.59869910E+00 -1.51973982E+01
  7.59869910E+00  7.59869910E+00 -1.51973982E+01  7.59869910E+00  7.59869910E+00
 -1.51973982E+01  7.59869910E+00  7.59869910E+00 -1.51973982E+01  7.59869910E+00
  7.59869910E+00 -1.51973982E+01  7.59869910E+00  7.59869910E+00 -1.51973982E+01
  7.59869910E+00  7.59869910E+00 -1.51973982E+01  7.59869910E+00  7.59869910E+00
 -1.51973982E+01  7.59869910E+00  7.59869910E+00 -1.51973982E+01  7.59869910E+00
  7.59869910E+00 -1.51973982E+01  7.59869910E+00  7.59869910E+00 -1.51973982E+01
  7.59869910E+00  7.59869910E+00 -1.51973982E+01  7.59869910E+00  7.59869910E+00
 -1.51973982E+01  7.59869910E+00  7.59869910E+00 -1.51973982E+01  7.59869910E+00
  7.59869910E+00 -1.51973982E+01  7.59869910E+00  7.59869910E+00 -1.51973982E+01
  7.59869910E+00  7.59869910E+00 -1.51973982E+01  7.59869910E+00  7.59869910E+00
 -1.51973982E+01  7.59869910E+00  7.59869910E+00 -1.51973982E+01  7.59869910E+00
  7.59869910E+00 -1.51973982E+01  7.59869910E+00  7.59869910E+00 -1.51973982E+01
  7.59869910E+00  7.59869910E+00 -1.51973982E+01  7.59869910E+00  7.59869910E+00
 -1.51973982E+01  7.59869910E+00  7.59869910E+00 -1.51973982E+01  7.59869910E+00
  7.59869910E+00 -1.51973982E+01  7.59869910E+00  7.59869910E+00 -1.51973982E+01
  7.59869910E+00  7.59869910E+00 -1.51973982E+01  7.59869910E+00  7.59869910E+00
 -1.51973982E+01  7.59869910E+00  7.59869910E+00 -1.51973982E+01  7.59869910E+00
  7.59869910E+00 -1.51973982E+01  7.59869910E+00  7.59869910E+00 -1.51973982E+01
  7.59869910E+00  7.59869910E+00 -1.51973982E+01  7.59869910E+00  7.59869910E+00
 -1.51973982E+01  7.59869910E+00  7.59869910E+00 -1.51973982E+01  7.59869910E+00
  7.59869910E+00 -1.51973982E+01  7.59869910E+00  7.59869910E+00 -1.51973982E+01
  7.59869910E+00  7.59869910E+00 -1.51973982E+01  7.59869910E+00  7.59869910E+00
 -1.51973982E+01  7.59869910E+00  7.59869910E+00 -1.51973982E+01  7.59869910E+00
  7.59869910E+00 -1.51973982E+01  7.59869910E+00  7.59869910E+00 -1.51973982E+01
  7.59869910E+00  7.59869910E+00 -1.51973982E+01  7.59869910E+00  7.59869910E+00
 -1.51973982E+01  7.59869910E+00  7.59869910E+00 -1.51973982E+01  7.59869910E+00
  7.59869910E+00 -1.51973982E+01  7.59869910E+00  7.59869910E+00 -1.51973982E+01
  7.59869910E+00  7.59869910E+00 -1.51973982E+01  7.59869910E+00  7.59869910E+00
 -1.51973982E+01  7.59869910E+00  7.59869910E+00 -1.51973982E+01  7.59869910E+00
  7.59869910E+00 -1.51973982E+01  7.59869910E+00  7.59869910E+00 -1.51973982E+01
  7.59869910E+00  7.59869910E+00 -1.51973982E+01  7.59869910E+00  7.59869910E+00
 -1.51973982E+01  7.59869910E+00  7.59869910E+00 -1.51973982E+01  7.59869910E+00
  7.59869910E+00 -1.51973982E+01  7.59869910E+00  7.59869910E+00 -1.51973982E+01
  7.59869910E+00  7.59869910E+00 -1.51973982E+01  7.59869910E+00  7.59869910E+00
 -1.51973982E+01  7.59869910E+00  7.59869910E+00 -1.51973982E+01  7.59869910E+00
  7.59869910E+00 -1.51973982E+01  7.59869910E+00  7.59869910E+00 -1.51973982E+01
  7.59869910E+00  7.59869910E+00 -1.51973982E+01  7.59869910E+00  7.59869910E+00
 -1.51973982E+01  7.59869910E+00  7.59869910E+00 -1.51973982E+01  7.59869910E+00
  7.59869910E+00 -1.51973982E+01  7.59869910E+00  7.59869910E+00 -1.51973982E+01
  7.59869910E+00  7.59869910E+00 -1.51973982E+01  7.59869910E+00  7.59869910E+00
 -1.51973982E+01  7.59869910E+00  7.59869910E+00 -1.51973982E+01  7.59869910E+00
  7.59869910E+00 -1.51973982E+01  7.59869910E+00  7.59869910E+00 -1.51973982E+01
  7.59869910E+00  7.59869910E+00 -1.51973982E+01  7.59869910E+00  7.59869910E+00
 -1.51973982E+01  7.59869910E+00  7.59869910E+00 -1.51973982E+01  7.59869910E+00
  7.59869910E+00 -1.51973982E+01  7.59869910E+00  7.59869910E+00 -1.51973982E+01
  7.59869910E+00  7.59869910E+00 -1.51973982E+01  7.59869910E+00  7.59869910E+00
 -1.51973982E+01  7.59869910E+00  7.59869910E+00 -1.51973982E+01  7.59869910E+00
  7.59869910E+00 -1.51973982E+01  7.59869910E+00  7.59869910E+00 -1.51973982E+01
  7.59869910E+00  7.59869910E+00 -1.51973982E+01  7.59869910E+00  7.59869910E+00
 -1.51973982E+01  7.59869910E+00  7.59869910E+00 -1.51973982E+01  7.59869910E+00
  7.59869910E+00 -1.51973982E+01  7.59869910E+00  7.59869910E+00 -1.51973982E+01
  7.59869910E+00  7.59869910E+00 -1.51973982E+01  7.59869910E+00  7.59869910E+00
 -1.51973982E+01  7.59869910E+00  7.59869910E+00 -1.51973982E+01  7.59869910E+00
  7.59869910E+00 -1.51973982E+01  7.59869910E+00  7.59869910E+00 -1.51973982E+01
  7.59869910E+00  7.59869910E+00 -1.51973982E+01  7.59869910E+00  7.59869910E+00
 -1.51973982E+01  7.59869910E+00  7.59869910E+00 -1.51973982E+01  7.59869910E+00
  7.59869910E+00 -1.51973982E+01  7.59869910E+00  7.59869910E+00 -1.51973982E+01
  7.59869910E+00  7.59869910E+00 -1.51973982E+01  7.59869910E+00  7.59869910E+00
 -1.51973982E+01  7.59869910E+00  7.59869910E+00 -1.51973982E+01  7.59869910E+00
  7.59869910E+00 -1.51973982E+01  7.59869910E+00  7.59869910E+00 -1.51973982E+01
  7.59869910E+00  7.59869910E+00 -1.51973982E+01  7.59869910E+00  7.59869910E+00
 -1.51973982E+01  7.59869910E+00  7.59869910E+00 -1.51973982E+01  7.59869910E+00
  7.59869910E+00 -1.51973982E+01  7.59869910E+00  7.59869910E+00 -1.51973982E+01
  7.59869910E+00  7.59869910E+00 -1.51973982E+01  7.59869910E+00  7.59869910E+00
 -1.51973982E+01  7.59869910E+00  7.59869910E+00 -1.51973982E+01  7.59869910E+00
  7.59869910E+00 -1.51973982E+01  7.59869910E+00  7.59869910E+00 -1.51973982E+01
  7.59869910E+00  7.59869910E+00 -1.51973982E+01  7.59869910E+00  7.59869910E+00
 -1.51973982E+01  7.59869910E+00  7.59869910E+00 -1.51973982E+01  7.59869910E+00
  7.59869910E+00 -1.51973982E+01  7.59869910E+00  7.59869910E+00 -1.51973982E+01
  7.59869910E+00  7.59869910E+00 -1.51973982E+01  7.59869910E+00  7.59869910E+00
 -1.51973982E+01  7.59869910E+00  7.59869910E+00 -1.51973982E+01  7.59869910E+00
  7.59869910E+00 -1.51973982E+01  7.59869910E+00  7.59869910E+00 -1.51973982E+01
  7.59869910E+00  7.59869910E+00 -1.51973982E+01  7.59869910E+00  7.59869910E+00
 -1.51973982E+01  7.59869910E+00  7.59869910E+00 -1.51973982E+01  7.59869910E+00
  7.59869910E+00 -1.51973982E+01  7.59869910E+00  7.59869910E+00 -1.51973982E+01
  7.59869910E+00  7.59869910E+00 -1.51973982E+01  7.59869910E+00  7.59869910E+00
 -1.51973982E+01  7.59869910E+00  7.59869910E+00 -1.51973982E+01  7.59869910E+00
  7.59869910E+00 -1.51973982E+01  7.59869910E+00  7.59869910E+00 -1.51973982E+01
  7.59869910E+00  7.59869910E+00 -1.51973982E+01  7.59869910E+00  7.59869910E+00
 -1.51973982E+01  7.59869910E+00  7.59869910E+00 -1.51973982E+01  7.59869910E+00
  7.59869910E+00 -1.51973982E+01  7.59869910E+00  7.59869910E+00 -1.51973982E+01
  7.59869910E+00  7.59869910E+00 -1.51973982E+01  7.59869910E+00  7.59869910E+00
 -1.51973982E+01  7.59869910E+00  7.59869910E+00 -1.51973982E+01  7.59869910E+00
  7.59869910E+00 -1.51973982E+01  7.59869910E+00  7.59869910E+00 -1.51973982E+01
  7.59869910E+00  7.59869910E+00 -1.51973982E+01  7.59869910E+00  7.59869910E+00
 -1.51973982E+01  7.59869910E+00  7.59869910E+00 -1.51973982E+01  7.59869910E+00
  7.59869910E+00 -1.51973982E+01  7.59869910E+00  7.59869910E+00 -1.51973982E+01
  7.59869910E+00  7.59869910E+00 -1.51973982E+01  7.59869910E+00  7.59869910E+00
 -1.51973982E+01  7.59869910E+00  7.59869910E+00 -1.51973982E+01  7.59869910E+00
  7.59869910E+00 -1.51973982E+01  7.59869910E+00  7.59869910E+00 -1.51973982E+01
  7.59869910E+00  7.59869910E+00 -1.51973982E+01  7.59869910E+00  7.59869910E+00
 -1.51973982E+01  7.59869910E+00  7.59869910E+00 -1.51973982E+01  7.59869910E+00
  7.59869910E+00 -1.51973982E+01  7.59869910E+00  7.59869910E+00 -1.51973982E+01
  7.59869910E+00  7.59869910E+00 -1.51973982E+01  7.59869910E+00  7.59869910E+00
 -1.51973982E+01  7.59869910E+00  7.59869910E+00 -1.51973982E+01  7.59869910E+00
  7.59869910E+00 -1.51973982E+01  7.59869910E+00  7.59869910E+00 -1.51973982E+01
  7.59869910E+00  7.59869910E+00 -1.51973982E+01  7.59869910E+00  7.59869910E+00
 -1.51973982E+01  7.59869910E+00  7.59869910E+00 -1.51973982E+01  7.59869910E+00
  7.59869910E+00 -1.51973982E+01  7.59869910E+00  7.59869910E+00 -1.51973982E+01
  7.59869910E+00  7.59869910E+00 -1.51973982E+01  7.59869910E+00  7.59869910E+00
 -1.51973982E+01  7.59869910E+00  7.59869910E+00 -1.51973982E+01  7.59869910E+00
  7.59869910E+00 -1.51973982E+01  7.59869910E+00  7.59869910E+00 -1.51973982E+01
  7.59869910E+00  7.59869910E+00 -1.51973982E+01  7.59869910E+00  7.59869910E+00
 -1.51973982E+01  7.59869910E+00  7.59869910E+00 -1.51973982E+01  7.59869910E+00
  7.59869910E+00 -1.51973982E+01  7.59869910E+00  7.59869910E+00 -1.51973982E+01
  7.59869910E+00  7.59869910E+00 -1.51973982E+01  7.59869910E+00  7.59869910E+00
 -1.51973982E+01  7.59869910E+00  7.59869910E+00 -1.51973982E+01  7.59869910E+00
  7.59869910E+00 -1.51973982E+01  7.59869910E+00  7.59869910E+00 -1.51973982E+01
  7.59869910E+00  7.59869910E+00 -1.51973982E+01  7.59869910E+00  7.59869910E+00
 -1.51973982E+01  7.59869910E+00  7.59869910E+00 -1.51973982E+01  7.59869910E+00
  7.59869910E+00 -1.51973982E+01  7.59869910E+00  7.59869910E+00 -1.51973982E+01
  7.59869910E+00  7.59869910E+00 -1.51973982E+01  7.59869910E+00  7.59869910E+00
 -1.51973982E+01  7.59869910E+00  7.59869910E+00 -1.51973982E+01  7.59869910E+00
  7.59869910E+00 -1.51973982E+01  7.59869910E+00  7.59869910E+00 -1.51973982E+01
  7.59869910E+00  7.59869910E+00 -1.51973982E+01  7.59869910E+00  7.59869910E+00
 -1.51973982E+01  7.59869910E+00  7.59869910E+00 -1.51973982E+01  7.59869910E+00
  7.59869910E+00 -1.51973982E+01  7.59869910E+00  7.59869910E+00 -1.51973982E+01
  7.59869910E+00  7.59869910E+00 -1.51973982E+01  7.59869910E+00  7.59869910E+00
 -1.51973982E+01  7.59869910E+00  7.59869910E+00 -1.51973982E+01  7.59869910E+00
  7.59869910E+00 -1.51973982E+01  7.59869910E+00  7.59869910E+00 -1.51973982E+01
  7.59869910E+00  7.59869910E+00 -1.51973982E+01  7.59869910E+00  7.59869910E+00
 -1.51973982E+01  7.59869910E+00  7.59869910E+00 -1.51973982E+01  7.59869910E+00
  7.59869910E+00 -1.51973982E+01  7.59869910E+00  7.59869910E+00 -1.51973982E+01
  7.59869910E+00  7.59869910E+00 -1.51973982E+01  7.59869910E+00  7.59869910E+00
 -1.51973982E+01  7.59869910E+00  7.59869910E+00 -1.51973982E+01  7.59869910E+00
  7.59869910E+00 -1.51973982E+01  7.59869910E+00  7.59869910E+00 -1.51973982E+01
  7.59869910E+00  7.59869910E+00 -1.51973982E+01  7.59869910E+00  7.59869910E+00
 -1.51973982E+01  7.59869910E+00  7.59869910E+00 -1.51973982E+01  7.59869910E+00
  7.59869910E+00 -1.51973982E+01  7.59869910E+00  7.59869910E+00 -1.51973982E+01
  7.59869910E+00  7.59869910E+00 -1.51973982E+01  7.59869910E+00  7.59869910E+00
 -1.51973982E+01  7.59869910E+00  7.59869910E+00 -1.51973982E+01  7.59869910E+00
  7.59869910E+00 -1.51973982E+01  7.59869910E+00  7.59869910E+00 -1.51973982E+01
  7.59869910E+00  7.59869910E+00 -1.51973982E+01  7.59869910E+00  7.59869910E+00
 -1.51973982E+01  7.59869910E+00  7.59869910E+00 -1.51973982E+01  7.59869910E+00
  7.59869910E+00 -1.51973982E+01  7.59869910E+00  7.59869910E+00 -1.51973982E+01
  7.59869910E+00  7.59869910E+00 -1.51973982E+01  7.59869910E+00  7.59869910E+00
 -1.51973982E+01  7.59869910E+00  7.59869910E+00 -1.51973982E+01  7.59869910E+00
  7.59869910E+00 -1.51973982E+01  7.59869910E+00  7.59869910E+00 -1.51973982E+01
  7.59869910E+00  7.59869910E+00 -1.51973982E+01  7.59869910E+00  7.59869910E+00
 -1.51973982E+01  7.59869910E+00  7.59869910E+00 -1.51973982E+01  7.59869910E+00
  7.59869910E+00 -1.51973982E+01  7.59869910E+00  7.59869910E+00 -1.51973982E+01
  7.59869910E+00  7.59869910E+00 -1.51973982E+01  7.59869910E+00  7.59869910E+00
 -1.51973982E+01  7.59869910E+00  7.59869910E+00 -1.51973982E+01  7.59869910E+00
  7.59869910E+00 -1.51973982E+01  7.59869910E+00  7.59869910E+00 -1.51973982E+01
  7.59869910E+00  7.59869910E+00 -1.51973982E+01  7.59869910E+00  7.59869910E+00
 -1.51973982E+01  7.59869910E+00  7.59869910E+00 -1.51973982E+01  7.59869910E+00
  7.59869910E+00 -1.51973982E+01  7.59869910E+00  7.59869910E+00 -1.51973982E+01
  7.59869910E+00  7.59869910E+00 -1.51973982E+01  7.59869910E+00  7.59869910E+00
 -1.51973982E+01  7.59869910E+00  7.59869910E+00 -1.51973982E+01  7.59869910E+00
  7.59869910E+00 -1.51973982E+01  7.59869910E+00  7.59869910E+00 -1.51973982E+01
  7.59869910E+00  7.59869910E+00 -1.51973982E+01  7.59869910E+00  7.59869910E+00
 -1.51973982E+01  7.59869910E+00  7.59869910E+00 -1.51973982E+01  7.59869910E+00
  7.59869910E+00 -1.51973982E+01  7.59869910E+00  7.59869910E+00 -1.51973982E+01
  7.59869910E+00  7.59869910E+00 -1.51973982E+01  7.59869910E+00  7.59869910E+00
 -1.51973982E+01  7.59869910E+00  7.59869910E+00 -1.51973982E+01  7.59869910E+00
  7.59869910E+00 -1.51973982E+01  7.59869910E+00  7.59869910E+00 -1.51973982E+01
  7.59869910E+00  7.59869910E+00 -1.51973982E+01  7.59869910E+00  7.59869910E+00
 -1.51973982E+01  7.59869910E+00  7.59869910E+00 -1.51973982E+01  7.59869910E+00
  7.59869910E+00 -1.51973982E+01  7.59869910E+00  7.59869910E+00 -1.51973982E+01
  7.59869910E+00  7.59869910E+00 -1.51973982E+01  7.59869910E+00  7.59869910E+00
 -1.51973982E+01  7.59869910E+00  7.59869910E+00 -1.51973982E+01  7.59869910E+00
  7.59869910E+00 -1.51973982E+01  7.59869910E+00  7.59869910E+00 -1.51973982E+01
  7.59869910E+00  7.59869910E+00 -1.51973982E+01  7.59869910E+00  7.59869910E+00
 -1.51973982E+01  7.59869910E+00  7.59869910E+00 -1.51973982E+01  7.59869910E+00
  7.59869910E+00 -1.51973982E+01  7.59869910E+00  7.59869910E+00 -1.51973982E+01
  7.59869910E+00  7.59869910E+00 -1.51973982E+01  7.59869910E+00  7.59869910E+00
 -1.51973982E+01  7.59869910E+00  7.59869910E+00 -1.51973982E+01  7.59869910E+00
  7.59869910E+00 -1.51973982E+01  7.59869910E+00  7.59869910E+00 -1.51973982E+01
  7.59869910E+00  7.59869910E+00 -1.51973982E+01  7.59869910E+00  7.59869910E+00
 -1.51973982E+01  7.59869910E+00  7.59869910E+00 -1.51973982E+01  7.59869910E+00
  7.59869910E+00 -1.51973982E+01  7.59869910E+00  7.59869910E+00 -1.51973982E+01
  7.59869910E+00  7.59869910E+00 -1.51973982E+01  7.59869910E+00  7.59869910E+00
 -1.51973982E+01  7.59869910E+00  7.59869910E+00 -1.51973982E+01  7.59869910E+00
  7.59869910E+00 -1.51973982E+01  7.59869910E+00  7.59869910E+00 -1.51973982E+01
  7.59869910E+00  7.59869910E+00 -1.51973982E+01  7.59869910E+00  7.59869910E+00
 -1.51973982E+01  7.59869910E+00  7.59869910E+00 -1.51973982E+01  7.59869910E+00
  7.59869910E+00 -1.51973982E+01  7.59869910E+00  7.59869910E+00 -1.51973982E+01
  7.59869910E+00  7.59869910E+00 -1.51973982E+01  7.59869910E+00  7.59869910E+00
 -1.51973982E+01  7.59869910E+00  7.59869910E+00 -1.51973982E+01  7.59869910E+00
  7.59869910E+00 -1.51973982E+01  7.59869910E+00  7.59869910E+00 -1.51973982E+01
  7.59869910E+00  7.59869910E+00 -1.51973982E+01  7.59869910E+00  7.59869910E+00
 -1.51973982E+01  7.59869910E+00  7.59869910E+00 -1.51973982E+01  7.59869910E+00
  7.59869910E+00 -1.51973982E+01  7.59869910E+00  7.59869910E+00 -1.51973982E+01
  7.59869910E+00  7.59869910E+00 -1.51973982E+01  7.59869910E+00  7.59869910E+00
 -1.51973982E+01  7.59869910E+00  7.59869910E+00 -1.51973982E+01  7.59869910E+00
  7.59869910E+00 -1.51973982E+01  7.59869910E+00  7.59869910E+00 -1.51973982E+01
  7.59869910E+00  7.59869910E+00 -1.51973982E+01  7.59869910E+00  7.59869910E+00
 -1.51973982E+01  7.59869910E+00  7.59869910E+00 -1.51973982E+01  7.59869910E+00
  7.59869910E+00 -1.51973982E+01  7.59869910E+00  7.59869910E+00 -1.51973982E+01
  7.59869910E+00  7.59869910E+00 -1.51973982E+01  7.59869910E+00  7.59869910E+00
 -1.51973982E+01  7.59869910E+00  7.59869910E+00 -1.51973982E+01  7.59869910E+00
  7.59869910E+00 -1.51973982E+01  7.59869910E+00  7.59869910E+00 -1.51973982E+01
  7.59869910E+00  7.59869910E+00 -1.51973982E+01  7.59869910E+00  7.59869910E+00
 -1.51973982E+01  7.59869910E+00  7.59869910E+00 -1.51973982E+01  7.59869910E+00
  7.59869910E+00 -1.51973982E+01  7.59869910E+00  7.59869910E+00 -1.51973982E+01
  7.59869910E+00  7.59869910E+00 -1.51973982E+01  7.59869910E+00  7.59869910E+00
 -1.51973982E+01  7.59869910E+00  7.59869910E+00 -1.51973982E+01  7.59869910E+00
  7.59869910E+00 -1.51973982E+01  7.59869910E+00  7.59869910E+00 -1.51973982E+01
  7.59869910E+00  7.59869910E+00 -1.51973982E+01  7.59869910E+00  7.59869910E+00
 -1.51973982E+01  7.59869910E+00  7.59869910E+00 -1.51973982E+01  7.59869910E+00
  7.59869910E+00 -1.51973982E+01  7.59869910E+00  7.59869910E+00 -1.51973982E+01
  7.59869910E+00  7.59869910E+00 -1.51973982E+01  7.59869910E+00  7.59869910E+00
 -1.51973982E+01  7.59869910E+00  7.59869910E+00 -1.51973982E+01  7.59869910E+00
  7.59869910E+00 -1.51973982E+01  7.59869910E+00  7.59869910E+00 -1.51973982E+01
  7.59869910E+00  7.59869910E+00 -1.51973982E+01  7.59869910E+00  7.59869910E+00
 -1.51973982E+01  7.59869910E+00  7.59869910E+00 -1.51973982E+01  7.59869910E+00
  7.59869910E+00 -1.51973982E+01  7.59869910E+00  7.59869910E+00 -1.51973982E+01
  7.59869910E+00  7.59869910E+00 -1.51973982E+01  7.59869910E+00  7.59869910E+00
 -1.51973982E+01  7.59869910E+00  7.59869910E+00 -1.51973982E+01  7.59869910E+00
  7.59869910E+00 -1.51973982E+01  7.59869910E+00  7.59869910E+00 -1.51973982E+01
  7.59869910E+00  7.59869910E+00 -1.51973982E+01  7.59869910E+00  7.59869910E+00
 -1.51973982E+01  7.59869910E+00  7.59869910E+00 -1.51973982E+01  7.59869910E+00
  7.59869910E+00 -1.51973982E+01  7.59869910E+00  7.59869910E+00 -1.51973982E+01
  7.59869910E+00  7.59869910E+00 -1.51973982E+01  7.59869910E+00  7.59869910E+00
 -1.51973982E+01  7.59869910E+00  7.59869910E+00 -1.51973982E+01  7.59869910E+00
  7.59869910E+00 -1.51973982E+01  7.59869910E+00  7.59869910E+00 -1.51973982E+01
  7.59869910E+00  7.59869910E+00 -1.51973982E+01  7.59869910E+00  7.59869910E+00
 -1.51973982E+01  7.59869910E+00  7.59869910E+00 -1.51973982E+01  7.59869910E+00
  7.59869910E+00 -1.51973982E+01  7.59869910E+00  7.59869910E+00 -1.51973982E+01
  7.59869910E+00  7.59869910E+00 -1.51973982E+01  7.59869910E+00  7.59869910E+00
 -1.51973982E+01  7.59869910E+00  7.59869910E+00 -1.51973982E+01  7.59869910E+00
  7.59869910E+00 -1.51973982E+01  7.59869910E+00  7.59869910E+00 -1.51973982E+01
  7.59869910E+00  7.59869910E+00 -1.51973982E+01  7.59869910E+00  7.59869910E+00
 -1.51973982E+01  7.59869910E+00  7.59869910E+00 -1.51973982E+01  7.59869910E+00
  7.59869910E+00 -1.51973982E+01  7.59869910E+00  7.59869910E+00 -1.51973982E+01
  7.59869910E+00  7.59869910E+00 -1.51973982E+01  7.59869910E+00  7.59869910E+00
 -1.51973982E+01  7.59869910E+00  7.59869910E+00 -1.51973982E+01  7.59869910E+00
  7.59869910E+00 -1.51973982E+01  7.59869910E+00  7.59869910E+00 -1.51973982E+01
  7.59869910E+00  7.59869910E+00 -1.51973982E+01  7.59869910E+00  7.59869910E+00
 -1.51973982E+01  7.59869910E+00  7.59869910E+00 -1.51973982E+01  7.59869910E+00
  7.59869910E+00 -1.51973982E+01  7.59869910E+00  7.59869910E+00 -1.51973982E+01
  7.59869910E+00  7.59869910E+00 -1.51973982E+01  7.59869910E+00  7.59869910E+00
 -1.51973982E+01  7.59869910E+00  7.59869910E+00 -1.51973982E+01  7.59869910E+00
  7.59869910E+00 -1.51973982E+01  7.59869910E+00  7.59869910E+00 -1.51973982E+01
  7.59869910E+00  7.59869910E+00 -1.51973982E+01  7.59869910E+00  7.59869910E+00
 -1.51973982E+01  7.59869910E+00  7.59869910E+00 -1.51973982E+01  7.59869910E+00
  7.59869910E+00 -1.51973982E+01  7.59869910E+00  7.59869910E+00 -1.51973982E+01
  7.59869910E+00  7.59869910E+00 -1.51973982E+01  7.59869910E+00  7.59869910E+00
 -1.51973982E+01  7.59869910E+00  7.59869910E+00 -1.51973982E+01  7.59869910E+00
  7.59869910E+00 -1.51973982E+01  7.59869910E+00  7.59869910E+00 -1.51973982E+01
  7.59869910E+00  7.59869910E+00 -1.51973982E+01  7.59869910E+00  7.59869910E+00
 -1.51973982E+01  7.59869910E+00  7.59869910E+00 -1.51973982E+01  7.59869910E+00
  7.59869910E+00 -1.51973982E+01  7.59869910E+00  7.59869910E+00 -1.51973982E+01
  7.59869910E+00  7.59869910E+00 -1.51973982E+01  7.59869910E+00  7.59869910E+00
 -1.51973982E+01  7.59869910E+00  7.59869910E+00 -1.51973982E+01  7.59869910E+00
  7.59869910E+00 -1.51973982E+01  7.59869910E+00  7.59869910E+00 -1.51973982E+01
  7.59869910E+00  7.59869910E+00 -1.51973982E+01  7.59869910E+00  7.59869910E+00
 -1.51973982E+01  7.59869910E+00  7.59869910E+00 -1.51973982E+01  7.59869910E+00
  7.59869910E+00 -1.51973982E+01  7.59869910E+00  7.59869910E+00 -1.51973982E+01
  7.59869910E+00  7.59869910E+00 -1.51973982E+01  7.59869910E+00  7.59869910E+00
 -1.51973982E+01  7.59869910E+00  7.59869910E+00 -1.51973982E+01  7.59869910E+00
  7.59869910E+00 -1.51973982E+01  7.59869910E+00  7.59869910E+00 -1.51973982E+01
  7.59869910E+00  7.59869910E+00 -1.51973982E+01  7.59869910E+00  7.59869910E+00
 -1.51973982E+01  7.59869910E+00  7.59869910E+00 -1.51973982E+01  7.59869910E+00
  7.59869910E+00 -1.51973982E+01  7.59869910E+00  7.59869910E+00 -1.51973982E+01
  7.59869910E+00  7.59869910E+00 -1.51973982E+01  7.59869910E+00  7.59869910E+00
 -1.51973982E+01  7.59869910E+00  7.59869910E+00 -1.51973982E+01  7.59869910E+00
  7.59869910E+00 -1.51973982E+01  7.59869910E+00  7.59869910E+00 -1.51973982E+01
  7.59869910E+00  7.59869910E+00 -1.51973982E+01  7.59869910E+00  7.59869910E+00
 -1.51973982E+01  7.59869910E+00  7.59869910E+00 -1.51973982E+01  7.59869910E+00
  7.59869910E+00 -1.51973982E+01  7.59869910E+00  7.59869910E+00 -1.51973982E+01
  7.59869910E+00  7.59869910E+00 -1.51973982E+01  7.59869910E+00  7.59869910E+00
 -1.51973982E+01  7.59869910E+00  7.59869910E+00 -1.51973982E+01  7.59869910E+00
  7.59869910E+00 -1.51973982E+01  7.59869910E+00  7.59869910E+00 -1.51973982E+01
  7.59869910E+00  7.59869910E+00 -1.51973982E+01  7.59869910E+00  7.59869910E+00
 -1.51973982E+01  7.59869910E+00  7.59869910E+00 -1.51973982E+01  7.59869910E+00
  7.59869910E+00 -1.51973982E+01  7.59869910E+00  7.59869910E+00 -1.51973982E+01
  7.59869910E+00  7.59869910E+00 -1.51973982E+01  7.59869910E+00  7.59869910E+00
 -1.51973982E+01  7.59869910E+00  7.59869910E+00 -1.51973982E+01  7.59869910E+00
  7.59869910E+00 -1.51973982E+01  7.59869910E+00  7.59869910E+00 -1.51973982E+01
  7.59869910E+00  7.59869910E+00 -1.51973982E+01  7.59869910E+00  7.59869910E+00
 -1.51973982E+01  7.59869910E+00  7.59869910E+00 -1.51973982E+01  7.59869910E+00
  7.59869910E+00 -1.51973982E+01  7.59869910E+00  7.59869910E+00 -1.51973982E+01
  7.59869910E+00  7.59869910E+00 -1.51973982E+01  7.59869910E+00  7.59869910E+00
 -1.51973982E+01  7.59869910E+00  7.59869910E+00 -1.51973982E+01  7.59869910E+00
  7.59869910E+00 -1.51973982E+01  7.59869910E+00  7.59869910E+00 -1.51973982E+01
  7.59869910E+00  7.59869910E+00 -1.51973982E+01  7.59869910E+00  7.59869910E+00
 -1.51973982E+01  7.59869910E+00  7.59869910E+00 -1.51973982E+01  7.59869910E+00
  7.59869910E+00 -1.51973982E+01  7.59869910E+00  7.59869910E+00 -1.51973982E+01
  7.59869910E+00  7.59869910E+00 -1.51973982E+01  7.59869910E+00  7.59869910E+00
 -1.51973982E+01  7.59869910E+00  7.59869910E+00 -1.51973982E+01  7.59869910E+00
  7.59869910E+00 -1.51973982E+01  7.59869910E+00  7.59869910E+00 -1.51973982E+01
  7.59869910E+00  7.59869910E+00 -1.51973982E+01  7.59869910E+00  7.59869910E+00
 -1.51973982E+01  7.59869910E+00  7.59869910E+00 -1.51973982E+01  7.59869910E+00
  7.59869910E+00 -1.51973982E+01  7.59869910E+00  7.59869910E+00 -1.51973982E+01
  7.59869910E+00  7.59869910E+00 -1.51973982E+01  7.59869910E+00  7.59869910E+00
 -1.51973982E+01  7.59869910E+00  7.59869910E+00 -1.51973982E+01  7.59869910E+00
  7.59869910E+00 -1.51973982E+01  7.59869910E+00  7.59869910E+00 -1.51973982E+01
  7.59869910E+00  7.59869910E+00 -1.51973982E+01  7.59869910E+00  7.59869910E+00
 -1.51973982E+01  7.59869910E+00  7.59869910E+00 -1.51973982E+01  7.59869910E+00
  7.59869910E+00 -1.51973982E+01  7.59869910E+00  7.59869910E+00 -1.51973982E+01
  7.59869910E+00  7.59869910E+00 -1.51973982E+01  7.59869910E+00  7.59869910E+00
 -1.51973982E+01  7.59869910E+00  7.59869910E+00 -1.51973982E+01  7.59869910E+00
  7.59869910E+00 -1.51973982E+01  7.59869910E+00  7.59869910E+00 -1.51973982E+01
  7.59869910E+00  7.59869910E+00 -1.51973982E+01  7.59869910E+00  7.59869910E+00
 -1.51973982E+01  7.59869910E+00  7.59869910E+00 -1.51973982E+01  7.59869910E+00
  7.59869910E+00 -1.51973982E+01  7.59869910E+00  7.59869910E+00 -1.51973982E+01
  7.59869910E+00  7.59869910E+00 -1.51973982E+01  7.59869910E+00  7.59869910E+00
 -1.51973982E+01  7.59869910E+00  7.59869910E+00 -1.51973982E+01  7.59869910E+00
  7.59869910E+00 -1.51973982E+01  7.59869910E+00  7.59869910E+00 -1.51973982E+01
  7.59869910E+00  7.59869910E+00 -1.51973982E+01  7.59869910E+00  7.59869910E+00
 -1.51973982E+01  7.59869910E+00  7.59869910E+00 -1.51973982E+01  7.59869910E+00
  7.59869910E+00 -1.51973982E+01  7.59869910E+00  7.59869910E+00 -1.51973982E+01
  7.59869910E+00  7.59869910E+00 -1.51973982E+01  7.59869910E+00  7.59869910E+00
 -1.51973982E+01  7.59869910E+00  7.59869910E+00 -1.51973982E+01  7.59869910E+00
  7.59869910E+00 -1.51973982E+01  7.59869910E+00  7.59869910E+00 -1.51973982E+01
  7.59869910E+00  7.59869910E+00 -1.51973982E+01  7.59869910E+00  7.59869910E+00
 -1.51973982E+01  7.59869910E+00  7.59869910E+00 -1.51973982E+01  7.59869910E+00
  7.59869910E+00 -1.51973982E+01  7.59869910E+00  7.59869910E+00 -1.51973982E+01
  7.59869910E+00  7.59869910E+00 -1.51973982E+01  7.59869910E+00  7.59869910E+00
 -1.51973982E+01  7.59869910E+00  7.59869910E+00 -1.51973982E+01  7.59869910E+00
  7.59869910E+00 -1.51973982E+01  7.59869910E+00  7.59869910E+00 -1.51973982E+01
  7.59869910E+00  7.59869910E+00 -1.51973982E+01  7.59869910E+00  7.59869910E+00
 -1.51973982E+01  7.59869910E+00  7.59869910E+00 -1.51973982E+01  7.59869910E+00
  7.59869910E+00 -1.51973982E+01  7.59869910E+00  7.59869910E+00 -1.51973982E+01
  7.59869910E+00  7.59869910E+00 -1.51973982E+01  7.59869910E+00  7.59869910E+00
 -1.51973982E+01  7.59869910E+00  7.59869910E+00 -1.51973982E+01  7.59869910E+00
  7.59869910E+00 -1.51973982E+01  7.59869910E+00  7.59869910E+00 -1.51973982E+01
  7.59869910E+00  7.59869910E+00 -1.51973982E+01  7.59869910E+00  7.59869910E+00
 -1.51973982E+01  7.59869910E+00  7.59869910E+00 -1.51973982E+01  7.59869910E+00
  7.59869910E+00 -1.51973982E+01  7.59869910E+00  7.59869910E+00 -1.51973982E+01
  7.59869910E+00  7.59869910E+00 -1.51973982E+01  7.59869910E+00  7.59869910E+00
 -1.51973982E+01  7.59869910E+00  7.59869910E+00 -1.51973982E+01  7.59869910E+00
  7.59869910E+00 -1.51973982E+01  7.59869910E+00  7.59869910E+00 -1.51973982E+01
  7.59869910E+00  7.59869910E+00 -1.51973982E+01  7.59869910E+00  7.59869910E+00
 -1.51973982E+01  7.59869910E+00  7.59869910E+00 -1.51973982E+01  7.59869910E+00
  7.59869910E+00 -1.51973982E+01  7.59869910E+00  7.59869910E+00 -1.51973982E+01
  7.59869910E+00  7.59869910E+00 -1.51973982E+01  7.59869910E+00  7.59869910E+00
 -1.51973982E+01  7.59869910E+00  7.59869910E+00 -1.51973982E+01  7.59869910E+00
  7.59869910E+00 -1.51973982E+01  7.59869910E+00  7.59869910E+00 -1.51973982E+01
  7.59869910E+00  7.59869910E+00 -1.51973982E+01  7.59869910E+00  7.59869910E+00
 -1.51973982E+01  7.59869910E+00  7.59869910E+00 -1.51973982E+01  7.59869910E+00
  7.59869910E+00 -1.51973982E+01  7.59869910E+00  7.59869910E+00 -1.51973982E+01
  7.59869910E+00  7.59869910E+00 -1.51973982E+01  7.59869910E+00  7.59869910E+00
 -1.51973982E+01  7.59869910E+00  7.59869910E+00 -1.51973982E+01  7.59869910E+00
  7.59869910E+00 -1.51973982E+01  7.59869910E+00  7.59869910E+00 -1.51973982E+01
  7.59869910E+00  7.59869910E+00 -1.51973982E+01  7.59869910E+00  7.59869910E+00
 -1.51973982E+01  7.59869910E+00  7.59869910E+00 -1.51973982E+01  7.59869910E+00
  7.59869910E+00 -1.51973982E+01  7.59869910E+00  7.59869910E+00 -1.51973982E+01
  7.59869910E+00  7.59869910E+00 -1.51973982E+01  7.59869910E+00  7.59869910E+00
 -1.51973982E+01  7.59869910E+00  7.59869910E+00 -1.51973982E+01  7.59869910E+00
  7.59869910E+00 -1.51973982E+01  7.59869910E+00  7.59869910E+00 -1.51973982E+01
  7.59869910E+00  7.59869910E+00 -1.51973982E+01  7.59869910E+00  7.59869910E+00
 -1.51973982E+01  7.59869910E+00  7.59869910E+00 -1.51973982E+01  7.59869910E+00
  7.59869910E+00 -1.51973982E+01  7.59869910E+00  7.59869910E+00 -1.51973982E+01
  7.59869910E+00  7.59869910E+00 -1.51973982E+01  7.59869910E+00  7.59869910E+00
 -1.51973982E+01  7.59869910E+00  7.59869910E+00 -1.51973982E+01  7.59869910E+00
  7.59869910E+00 -1.51973982E+01  7.59869910E+00  7.59869910E+00 -1.51973982E+01
  7.59869910E+00  7.59869910E+00 -1.51973982E+01  7.59869910E+00  7.59869910E+00
 -1.51973982E+01  7.59869910E+00  7.59869910E+00 -1.51973982E+01  7.59869910E+00
  7.59869910E+00 -1.51973982E+01  7.59869910E+00  7.59869910E+00 -1.51973982E+01
  7.59869910E+00  7.59869910E+00 -1.51973982E+01  7.59869910E+00  7.59869910E+00
 -1.51973982E+01  7.59869910E+00  7.59869910E+00 -1.51973982E+01  7.59869910E+00
  7.59869910E+00 -1.51973982E+01  7.59869910E+00  7.59869910E+00 -1.51973982E+01
  7.59869910E+00  7.59869910E+00 -1.51973982E+01  7.59869910E+00  7.59869910E+00
 -1.51973982E+01  7.59869910E+00  7.59869910E+00 -1.51973982E+01  7.59869910E+00
  7.59869910E+00 -1.51973982E+01  7.59869910E+00  7.59869910E+00 -1.51973982E+01
  7.59869910E+00  7.59869910E+00 -1.51973982E+01  7.59869910E+00  7.59869910E+00
 -1.51973982E+01  7.59869910E+00  7.59869910E+00 -1.51973982E+01  7.59869910E+00
  7.59869910E+00 -1.51973982E+01  7.59869910E+00  7.59869910E+00 -1.51973982E+01
  7.59869910E+00  7.59869910E+00 -1.51973982E+01  7.59869910E+00  7.59869910E+00
 -1.51973982E+01  7.59869910E+00  7.59869910E+00 -1.51973982E+01  7.59869910E+00
  7.59869910E+00 -1.51973982E+01  7.59869910E+00  7.59869910E+00 -1.51973982E+01
  7.59869910E+00  7.59869910E+00 -1.51973982E+01  7.59869910E+00  7.59869910E+00
 -1.51973982E+01  7.59869910E+00  7.59869910E+00 -1.51973982E+01  7.59869910E+00
  7.59869910E+00 -1.51973982E+01  7.59869910E+00  7.59869910E+00 -1.51973982E+01
  7.59869910E+00  7.59869910E+00 -1.51973982E+01  7.59869910E+00  7.59869910E+00
 -1.51973982E+01  7.59869910E+00  7.59869910E+00 -1.51973982E+01  7.59869910E+00
  7.59869910E+00 -1.51973982E+01  7.59869910E+00  7.59869910E+00 -1.51973982E+01
  7.59869910E+00  7.59869910E+00 -1.51973982E+01  7.59869910E+00  7.59869910E+00
 -1.51973982E+01  7.59869910E+00  7.59869910E+00 -1.51973982E+01  7.59869910E+00
  7.59869910E+00 -1.51973982E+01  7.59869910E+00  7.59869910E+00 -1.51973982E+01
  7.59869910E+00  7.59869910E+00 -1.51973982E+01  7.59869910E+00  7.59869910E+00
 -1.51973982E+01  7.59869910E+00  7.59869910E+00 -1.51973982E+01  7.59869910E+00
  7.59869910E+00 -1.51973982E+01  7.59869910E+00  7.59869910E+00 -1.51973982E+01
  7.59869910E+00  7.59869910E+00 -1.51973982E+01  7.59869910E+00  7.59869910E+00
 -1.51973982E+01  7.59869910E+00  7.59869910E+00 -1.51973982E+01  7.59869910E+00
  7.59869910E+00 -1.51973982E+01  7.59869910E+00  7.59869910E+00 -1.51973982E+01
  7.59869910E+00  7.59869910E+00 -1.51973982E+01  7.59869910E+00  7.59869910E+00
 -1.51973982E+01  7.59869910E+00  7.59869910E+00 -1.51973982E+01  7.59869910E+00
  7.59869910E+00 -1.51973982E+01  7.59869910E+00  7.59869910E+00 -1.51973982E+01
  7.59869910E+00  7.59869910E+00 -1.51973982E+01  7.59869910E+00  7.59869910E+00
 -1.51973982E+01  7.59869910E+00  7.59869910E+00 -1.51973982E+01  7.59869910E+00
  7.59869910E+00 -1.51973982E+01  7.59869910E+00  7.59869910E+00 -1.51973982E+01
  7.59869910E+00  7.59869910E+00 -1.51973982E+01  7.59869910E+00  7.59869910E+00
 -1.51973982E+01  7.59869910E+00  7.59869910E+00 -1.51973982E+01  7.59869910E+00
  7.59869910E+00 -1.51973982E+01  7.59869910E+00  7.59869910E+00 -1.51973982E+01
  7.59869910E+00  7.59869910E+00 -1.51973982E+01  7.59869910E+00  7.59869910E+00
 -1.51973982E+01  7.59869910E+00  7.59869910E+00 -1.51973982E+01  7.59869910E+00
  7.59869910E+00 -1.51973982E+01  7.59869910E+00  7.59869910E+00 -1.51973982E+01
  7.59869910E+00  7.59869910E+00 -1.51973982E+01  7.59869910E+00  7.59869910E+00
 -1.51973982E+01  7.59869910E+00  7.59869910E+00 -1.51973982E+01  7.59869910E+00
  7.59869910E+00 -1.51973982E+01  7.59869910E+00  7.59869910E+00 -1.51973982E+01
  7.59869910E+00  7.59869910E+00 -1.51973982E+01  7.59869910E+00  7.59869910E+00
 -1.51973982E+01  7.59869910E+00  7.59869910E+00 -1.51973982E+01  7.59869910E+00
  7.59869910E+00 -1.51973982E+01  7.59869910E+00  7.59869910E+00 -1.51973982E+01
  7.59869910E+00  7.59869910E+00 -1.51973982E+01  7.59869910E+00  7.59869910E+00
 -1.51973982E+01  7.59869910E+00  7.59869910E+00 -1.51973982E+01  7.59869910E+00
  7.59869910E+00 -1.51973982E+01  7.59869910E+00  7.59869910E+00 -1.51973982E+01
  7.59869910E+00  7.59869910E+00 -1.51973982E+01  7.59869910E+00  7.59869910E+00
 -1.51973982E+01  7.59869910E+00  7.59869910E+00 -1.51973982E+01  7.59869910E+00
  7.59869910E+00 -1.51973982E+01  7.59869910E+00  7.59869910E+00 -1.51973982E+01
  7.59869910E+00  7.59869910E+00 -1.51973982E+01  7.59869910E+00  7.59869910E+00
 -1.51973982E+01  7.59869910E+00  7.59869910E+00 -1.51973982E+01  7.59869910E+00
  7.59869910E+00 -1.51973982E+01  7.59869910E+00  7.59869910E+00 -1.51973982E+01
  7.59869910E+00  7.59869910E+00 -1.51973982E+01  7.59869910E+00  7.59869910E+00
 -1.51973982E+01  7.59869910E+00  7.59869910E+00 -1.51973982E+01  7.59869910E+00
  7.59869910E+00 -1.51973982E+01  7.59869910E+00  7.59869910E+00 -1.51973982E+01
  7.59869910E+00  7.59869910E+00 -1.51973982E+01  7.59869910E+00  7.59869910E+00
 -1.51973982E+01  7.59869910E+00  7.59869910E+00 -1.51973982E+01  7.59869910E+00
  7.59869910E+00 -1.51973982E+01  7.59869910E+00  7.59869910E+00 -1.51973982E+01
  7.59869910E+00  7.59869910E+00 -1.51973982E+01  7.59869910E+00  7.59869910E+00
 -1.51973982E+01  7.59869910E+00  7.59869910E+00 -1.51973982E+01  7.59869910E+00
  7.59869910E+00 -1.51973982E+01  7.59869910E+00  7.59869910E+00 -1.51973982E+01
  7.59869910E+00  7.59869910E+00 -1.51973982E+01  7.59869910E+00  7.59869910E+00
 -1.51973982E+01  7.59869910E+00  7.59869910E+00 -1.51973982E+01  7.59869910E+00
  7.59869910E+00 -1.51973982E+01  7.59869910E+00  7.59869910E+00 -1.51973982E+01
  7.59869910E+00  7.59869910E+00 -1.51973982E+01  7.59869910E+00  7.59869910E+00
 -1.51973982E+01  7.59869910E+00  7.59869910E+00 -1.51973982E+01  7.59869910E+00
  7.59869910E+00 -1.51973982E+01  7.59869910E+00  7.59869910E+00 -1.51973982E+01
  7.59869910E+00  7.59869910E+00 -1.51973982E+01  7.59869910E+00  7.59869910E+00
 -1.51973982E+01  7.59869910E+00  7.59869910E+00 -1.51973982E+01  7.59869910E+00
  7.59869910E+00 -1.51973982E+01  7.59869910E+00  7.59869910E+00 -1.51973982E+01
  7.59869910E+00  7.59869910E+00 -1.51973982E+01  7.59869910E+00  7.59869910E+00
 -1.51973982E+01  7.59869910E+00  7.59869910E+00 -1.51973982E+01  7.59869910E+00
  7.59869910E+00 -1.51973982E+01  7.59869910E+00  7.59869910E+00 -1.51973982E+01
  7.59869910E+00  7.59869910E+00 -1.51973982E+01  7.59869910E+00  7.59869910E+00
 -1.51973982E+01  7.59869910E+00  7.59869910E+00 -1.51973982E+01  7.59869910E+00
  7.59869910E+00 -1.51973982E+01  7.59869910E+00  7.59869910E+00 -1.51973982E+01
  7.59869910E+00  7.59869910E+00 -1.51973982E+01  7.59869910E+00  7.59869910E+00
 -1.51973982E+01  7.59869910E+00  7.59869910E+00 -1.51973982E+01  7.59869910E+00
  7.59869910E+00 -1.51973982E+01  7.59869910E+00  7.59869910E+00 -1.51973982E+01
  7.59869910E+00  7.59869910E+00 -1.51973982E+01  7.59869910E+00  7.59869910E+00
 -1.51973982E+01  7.59869910E+00  7.59869910E+00 -1.51973982E+01  7.59869910E+00
  7.59869910E+00 -1.51973982E+01  7.59869910E+00  7.59869910E+00 -1.51973982E+01
  7.59869910E+00  7.59869910E+00 -1.51973982E+01  7.59869910E+00  7.59869910E+00
 -1.51973982E+01  7.59869910E+00  7.59869910E+00 -1.51973982E+01  7.59869910E+00
  7.59869910E+00 -1.51973982E+01  7.59869910E+00  7.59869910E+00 -1.51973982E+01
  7.59869910E+00  7.59869910E+00 -1.51973982E+01  7.59869910E+00  7.59869910E+00
 -1.51973982E+01  7.59869910E+00  7.59869910E+00 -1.51973982E+01  7.59869910E+00
  7.59869910E+00 -1.51973982E+01  7.59869910E+00  7.59869910E+00 -1.51973982E+01
  7.59869910E+00  7.59869910E+00 -1.51973982E+01  7.59869910E+00  7.59869910E+00
 -1.51973982E+01  7.59869910E+00  7.59869910E+00 -1.51973982E+01  7.59869910E+00
  7.59869910E+00 -1.51973982E+01  7.59869910E+00  7.59869910E+00 -1.51973982E+01
  7.59869910E+00  7.59869910E+00 -1.51973982E+01  7.59869910E+00  7.59869910E+00
 -1.51973982E+01  7.59869910E+00  7.59869910E+00 -1.51973982E+01  7.59869910E+00
  7.59869910E+00 -1.51973982E+01  7.59869910E+00  7.59869910E+00 -1.51973982E+01
  7.59869910E+00  7.59869910E+00 -1.51973982E+01  7.59869910E+00  7.59869910E+00
 -1.51973982E+01  7.59869910E+00  7.59869910E+00 -1.51973982E+01  7.59869910E+00
  7.59869910E+00 -1.51973982E+01  7.59869910E+00  7.59869910E+00 -1.51973982E+01
  7.59869910E+00  7.59869910E+00 -1.51973982E+01  7.59869910E+00  7.59869910E+00
 -1.51973982E+01  7.59869910E+00  7.59869910E+00 -1.51973982E+01  7.59869910E+00
  7.59869910E+00 -1.51973982E+01  7.59869910E+00  7.59869910E+00 -1.51973982E+01
  7.59869910E+00  7.59869910E+00 -1.51973982E+01  7.59869910E+00  7.59869910E+00
 -1.51973982E+01  7.59869910E+00  7.59869910E+00 -1.51973982E+01  7.59869910E+00
  7.59869910E+00 -1.51973982E+01  7.59869910E+00  7.59869910E+00 -1.51973982E+01
  7.59869910E+00  7.59869910E+00 -1.51973982E+01  7.59869910E+00  7.59869910E+00
 -1.51973982E+01  7.59869910E+00  7.59869910E+00 -1.51973982E+01  7.59869910E+00
  7.59869910E+00 -1.51973982E+01  7.59869910E+00  7.59869910E+00 -1.51973982E+01
  7.59869910E+00  7.59869910E+00 -1.51973982E+01  7.59869910E+00  7.59869910E+00
 -1.51973982E+01  7.59869910E+00  7.59869910E+00 -1.51973982E+01  7.59869910E+00
  7.59869910E+00 -1.51973982E+01  7.59869910E+00  7.59869910E+00 -1.51973982E+01
  7.59869910E+00  7.59869910E+00 -1.51973982E+01  7.59869910E+00  7.59869910E+00
 -1.51973982E+01  7.59869910E+00  7.59869910E+00 -1.51973982E+01  7.59869910E+00
  7.59869910E+00 -1.51973982E+01  7.59869910E+00  7.59869910E+00 -1.51973982E+01
  7.59869910E+00  7.59869910E+00 -1.51973982E+01  7.59869910E+00  7.59869910E+00
 -1.51973982E+01  7.59869910E+00  7.59869910E+00 -1.51973982E+01  7.59869910E+00
  7.59869910E+00 -1.51973982E+01  7.59869910E+00  7.59869910E+00 -1.51973982E+01
  7.59869910E+00  7.59869910E+00 -1.51973982E+01  7.59869910E+00  7.59869910E+00
 -1.51973982E+01  7.59869910E+00  7.59869910E+00 -1.51973982E+01  7.59869910E+00
  7.59869910E+00 -1.51973982E+01  7.59869910E+00  7.59869910E+00 -1.51973982E+01
  7.59869910E+00  7.59869910E+00 -1.51973982E+01  7.59869910E+00  7.59869910E+00
 -1.51973982E+01  7.59869910E+00  7.59869910E+00 -1.51973982E+01  7.59869910E+00
  7.59869910E+00 -1.51973982E+01  7.59869910E+00  7.59869910E+00 -1.51973982E+01
  7.59869910E+00  7.59869910E+00 -1.51973982E+01  7.59869910E+00  7.59869910E+00
 -1.51973982E+01  7.59869910E+00  7.59869910E+00 -1.51973982E+01  7.59869910E+00
  7.59869910E+00 -1.51973982E+01  7.59869910E+00  7.59869910E+00 -1.51973982E+01
  7.59869910E+00  7.59869910E+00 -1.51973982E+01  7.59869910E+00  7.59869910E+00
 -1.51973982E+01  7.59869910E+00  7.59869910E+00 -1.51973982E+01  7.59869910E+00
  7.59869910E+00 -1.51973982E+01  7.59869910E+00  7.59869910E+00 -1.51973982E+01
  7.59869910E+00  7.59869910E+00 -1.51973982E+01  7.59869910E+00  7.59869910E+00
 -1.51973982E+01  7.59869910E+00  7.59869910E+00 -1.51973982E+01  7.59869910E+00
  7.59869910E+00 -1.51973982E+01  7.59869910E+00  7.59869910E+00 -1.51973982E+01
  7.59869910E+00  7.59869910E+00 -1.51973982E+01  7.59869910E+00  7.59869910E+00
 -1.51973982E+01  7.59869910E+00  7.59869910E+00 -1.51973982E+01  7.59869910E+00
  7.59869910E+00 -1.51973982E+01  7.59869910E+00  7.59869910E+00 -1.51973982E+01
  7.59869910E+00  7.59869910E+00 -1.51973982E+01  7.59869910E+00  7.59869910E+00
 -1.51973982E+01  7.59869910E+00  7.59869910E+00 -1.51973982E+01  7.59869910E+00
  7.59869910E+00 -1.51973982E+01  7.59869910E+00  7.59869910E+00 -1.51973982E+01
  7.59869910E+00  7.59869910E+00 -1.51973982E+01  7.59869910E+00  7.59869910E+00
 -1.51973982E+01  7.59869910E+00  7.59869910E+00 -1.51973982E+01  7.59869910E+00
  7.59869910E+00 -1.51973982E+01  7.59869910E+00  7.59869910E+00 -1.51973982E+01
  7.59869910E+00  7.59869910E+00 -1.51973982E+01  7.59869910E+00  7.59869910E+00
 -1.51973982E+01  7.59869910E+00  7.59869910E+00 -1.51973982E+01  7.59869910E+00
  7.59869910E+00 -1.51973982E+01  7.59869910E+00  7.59869910E+00 -1.51973982E+01
  7.59869910E+00  7.59869910E+00 -1.51973982E+01  7.59869910E+00  7.59869910E+00
 -1.51973982E+01  7.59869910E+00  7.59869910E+00 -1.51973982E+01  7.59869910E+00
  7.59869910E+00 -1.51973982E+01  7.59869910E+00  7.59869910E+00 -1.51973982E+01
  7.59869910E+00  7.59869910E+00 -1.51973982E+01  7.59869910E+00  7.59869910E+00
 -1.51973982E+01  7.59869910E+00  7.59869910E+00 -1.51973982E+01  7.59869910E+00
  7.59869910E+00 -1.51973982E+01  7.59869910E+00  7.59869910E+00 -1.51973982E+01
  7.59869910E+00  7.59869910E+00 -1.51973982E+01  7.59869910E+00  7.59869910E+00
 -1.51973982E+01  7.59869910E+00  7.59869910E+00 -1.51973982E+01  7.59869910E+00
  7.59869910E+00 -1.51973982E+01  7.59869910E+00  7.59869910E+00 -1.51973982E+01
  7.59869910E+00  7.59869910E+00 -1.51973982E+01  7.59869910E+00  7.59869910E+00
 -1.51973982E+01  7.59869910E+00  7.59869910E+00 -1.51973982E+01  7.59869910E+00
  7.59869910E+00 -1.51973982E+01  7.59869910E+00  7.59869910E+00 -1.51973982E+01
  7.59869910E+00  7.59869910E+00 -1.51973982E+01  7.59869910E+00  7.59869910E+00
 -1.51973982E+01  7.59869910E+00  7.59869910E+00 -1.51973982E+01  7.59869910E+00
  7.59869910E+00 -1.51973982E+01  7.59869910E+00  7.59869910E+00 -1.51973982E+01
  7.59869910E+00  7.59869910E+00 -1.51973982E+01  7.59869910E+00  7.59869910E+00
 -1.51973982E+01  7.59869910E+00  7.59869910E+00 -1.51973982E+01  7.59869910E+00
  7.59869910E+00 -1.51973982E+01  7.59869910E+00  7.59869910E+00 -1.51973982E+01
  7.59869910E+00  7.59869910E+00 -1.51973982E+01  7.59869910E+00  7.59869910E+00
 -1.51973982E+01  7.59869910E+00  7.59869910E+00 -1.51973982E+01  7.59869910E+00
  7.59869910E+00 -1.51973982E+01  7.59869910E+00  7.59869910E+00 -1.51973982E+01
  7.59869910E+00  7.59869910E+00 -1.51973982E+01  7.59869910E+00  7.59869910E+00
 -1.51973982E+01  7.59869910E+00  7.59869910E+00 -1.51973982E+01  7.59869910E+00
  7.59869910E+00 -1.51973982E+01  7.59869910E+00  7.59869910E+00 -1.51973982E+01
  7.59869910E+00  7.59869910E+00 -1.51973982E+01  7.59869910E+00  7.59869910E+00
 -1.51973982E+01  7.59869910E+00  7.59869910E+00 -1.51973982E+01  7.59869910E+00
  7.59869910E+00 -1.51973982E+01  7.59869910E+00  7.59869910E+00 -1.51973982E+01
  7.59869910E+00  7.59869910E+00 -1.51973982E+01  7.59869910E+00  7.59869910E+00
 -1.51973982E+01  7.59869910E+00  7.59869910E+00 -1.51973982E+01  7.59869910E+00
  7.59869910E+00 -1.51973982E+01  7.59869910E+00  7.59869910E+00 -1.51973982E+01
  7.59869910E+00  7.59869910E+00 -1.51973982E+01  7.59869910E+00  7.59869910E+00
 -1.51973982E+01  7.59869910E+00  7.59869910E+00 -1.51973982E+01  7.59869910E+00
  7.59869910E+00 -1.51973982E+01  7.59869910E+00  7.59869910E+00 -1.51973982E+01
  7.59869910E+00  7.59869910E+00 -1.51973982E+01  7.59869910E+00  7.59869910E+00
 -1.51973982E+01  7.59869910E+00  7.59869910E+00 -1.51973982E+01  7.59869910E+00
  7.59869910E+00 -1.51973982E+01  7.59869910E+00  7.59869910E+00 -1.51973982E+01
  7.59869910E+00  7.59869910E+00 -1.51973982E+01  7.59869910E+00  7.59869910E+00
 -1.51973982E+01  7.59869910E+00  7.59869910E+00 -1.51973982E+01  7.59869910E+00
  7.59869910E+00 -1.51973982E+01  7.59869910E+00  7.59869910E+00 -1.51973982E+01
  7.59869910E+00  7.59869910E+00 -1.51973982E+01  7.59869910E+00  7.59869910E+00
 -1.51973982E+01  7.59869910E+00  7.59869910E+00 -1.51973982E+01  7.59869910E+00
  7.59869910E+00 -1.51973982E+01  7.59869910E+00  7.59869910E+00 -1.51973982E+01
  7.59869910E+00  7.59869910E+00 -1.51973982E+01  7.59869910E+00  7.59869910E+00
 -1.51973982E+01  7.59869910E+00  7.59869910E+00 -1.51973982E+01  7.59869910E+00
  7.59869910E+00 -1.51973982E+01  7.59869910E+00  7.59869910E+00 -1.51973982E+01
  7.59869910E+00  7.59869910E+00 -1.51973982E+01  7.59869910E+00  7.59869910E+00
 -1.51973982E+01  7.59869910E+00  7.59869910E+00 -1.51973982E+01  7.59869910E+00
  7.59869910E+00 -1.51973982E+01  7.59869910E+00  7.59869910E+00 -1.51973982E+01
  7.59869910E+00  7.59869910E+00 -1.51973982E+01  7.59869910E+00  7.59869910E+00
 -1.51973982E+01  7.59869910E+00  7.59869910E+00 -1.51973982E+01  7.59869910E+00
  7.59869910E+00 -1.51973982E+01  7.59869910E+00  7.59869910E+00 -1.51973982E+01
  7.59869910E+00  7.59869910E+00 -1.51973982E+01  7.59869910E+00  7.59869910E+00
 -1.51973982E+01  7.59869910E+00  7.59869910E+00 -1.51973982E+01  7.59869910E+00
  7.59869910E+00 -1.51973982E+01  7.59869910E+00  7.59869910E+00 -1.51973982E+01
  7.59869910E+00  7.59869910E+00 -1.51973982E+01  7.59869910E+00  7.59869910E+00
 -1.51973982E+01  7.59869910E+00  7.59869910E+00 -1.51973982E+01  7.59869910E+00
  7.59869910E+00 -1.51973982E+01  7.59869910E+00  7.59869910E+00 -1.51973982E+01
  7.59869910E+00  7.59869910E+00 -1.51973982E+01  7.59869910E+00  7.59869910E+00
 -1.51973982E+01  7.59869910E+00  7.59869910E+00 -1.51973982E+01  7.59869910E+00
  7.59869910E+00 -1.51973982E+01  7.59869910E+00  7.59869910E+00 -1.51973982E+01
  7.59869910E+00  7.59869910E+00 -1.51973982E+01  7.59869910E+00  7.59869910E+00
 -1.51973982E+01  7.59869910E+00  7.59869910E+00 -1.51973982E+01  7.59869910E+00
  7.59869910E+00 -1.51973982E+01  7.59869910E+00  7.59869910E+00 -1.51973982E+01
  7.59869910E+00  7.59869910E+00 -1.51973982E+01  7.59869910E+00  7.59869910E+00
 -1.51973982E+01  7.59869910E+00  7.59869910E+00 -1.51973982E+01  7.59869910E+00
  7.59869910E+00 -1.51973982E+01  7.59869910E+00  7.59869910E+00 -1.51973982E+01
  7.59869910E+00  7.59869910E+00 -1.51973982E+01  7.59869910E+00  7.59869910E+00
 -1.51973982E+01  7.59869910E+00  7.59869910E+00 -1.51973982E+01  7.59869910E+00
  7.59869910E+00 -1.51973982E+01  7.59869910E+00  7.59869910E+00 -1.51973982E+01
  7.59869910E+00  7.59869910E+00 -1.51973982E+01  7.59869910E+00  7.59869910E+00
 -1.51973982E+01  7.59869910E+00  7.59869910E+00 -1.51973982E+01  7.59869910E+00
  7.59869910E+00 -1.51973982E+01  7.59869910E+00  7.59869910E+00 -1.51973982E+01
  7.59869910E+00  7.59869910E+00 -1.51973982E+01  7.59869910E+00  7.59869910E+00
 -1.51973982E+01  7.59869910E+00  7.59869910E+00 -1.51973982E+01  7.59869910E+00
  7.59869910E+00 -1.51973982E+01  7.59869910E+00  7.59869910E+00 -1.51973982E+01
  7.59869910E+00  7.59869910E+00 -1.51973982E+01  7.59869910E+00  7.59869910E+00
 -1.51973982E+01  7.59869910E+00  7.59869910E+00 -1.51973982E+01  7.59869910E+00
  7.59869910E+00 -1.51973982E+01  7.59869910E+00  7.59869910E+00 -1.51973982E+01
  7.59869910E+00  7.59869910E+00 -1.51973982E+01  7.59869910E+00  7.59869910E+00
 -1.51973982E+01  7.59869910E+00  7.59869910E+00 -1.51973982E+01  7.59869910E+00
  7.59869910E+00 -1.51973982E+01  7.59869910E+00  7.59869910E+00 -1.51973982E+01
  7.59869910E+00  7.59869910E+00 -1.51973982E+01  7.59869910E+00  7.59869910E+00
 -1.51973982E+01  7.59869910E+00  7.59869910E+00 -1.51973982E+01  7.59869910E+00
  7.59869910E+00 -1.51973982E+01  7.59869910E+00  7.59869910E+00 -1.51973982E+01
  7.59869910E+00  7.59869910E+00 -1.51973982E+01  7.59869910E+00  7.59869910E+00
 -1.51973982E+01  7.59869910E+00  7.59869910E+00 -1.51973982E+01  7.59869910E+00
  7.59869910E+00 -1.51973982E+01  7.59869910E+00  7.59869910E+00 -1.51973982E+01
  7.59869910E+00  7.59869910E+00 -1.51973982E+01  7.59869910E+00  7.59869910E+00
 -1.51973982E+01  7.59869910E+00  7.59869910E+00 -1.51973982E+01  7.59869910E+00
  7.59869910E+00 -1.51973982E+01  7.59869910E+00  7.59869910E+00 -1.51973982E+01
  7.59869910E+00  7.59869910E+00 -1.51973982E+01  7.59869910E+00  7.59869910E+00
 -1.51973982E+01  7.59869910E+00  7.59869910E+00 -1.51973982E+01  7.59869910E+00
  7.59869910E+00 -1.51973982E+01  7.59869910E+00  7.59869910E+00 -1.51973982E+01
  7.59869910E+00  7.59869910E+00 -1.51973982E+01  7.59869910E+00  7.59869910E+00
 -1.51973982E+01  7.59869910E+00  7.59869910E+00 -1.51973982E+01  7.59869910E+00
  7.59869910E+00 -1.51973982E+01  7.59869910E+00  7.59869910E+00 -1.51973982E+01
  7.59869910E+00  7.59869910E+00 -1.51973982E+01  7.59869910E+00  7.59869910E+00
 -1.51973982E+01  7.59869910E+00  7.59869910E+00 -1.51973982E+01  7.59869910E+00
  7.59869910E+00 -1.51973982E+01  7.59869910E+00  7.59869910E+00 -1.51973982E+01
  7.59869910E+00  7.59869910E+00 -1.51973982E+01  7.59869910E+00  7.59869910E+00
 -1.51973982E+01  7.59869910E+00  7.59869910E+00 -1.51973982E+01  7.59869910E+00
  7.59869910E+00 -1.51973982E+01  7.59869910E+00  7.59869910E+00 -1.51973982E+01
  7.59869910E+00  7.59869910E+00 -1.51973982E+01  7.59869910E+00  7.59869910E+00
 -1.51973982E+01  7.59869910E+00  7.59869910E+00 -1.51973982E+01  7.59869910E+00
  7.59869910E+00 -1.51973982E+01  7.59869910E+00  7.59869910E+00 -1.51973982E+01
  7.59869910E+00  7.59869910E+00 -1.51973982E+01  7.59869910E+00  7.59869910E+00
 -1.51973982E+01  7.59869910E+00  7.59869910E+00 -1.51973982E+01  7.59869910E+00
  7.59869910E+00 -1.51973982E+01  7.59869910E+00  7.59869910E+00 -1.51973982E+01
  7.59869910E+00  7.59869910E+00 -1.51973982E+01  7.59869910E+00  7.59869910E+00
 -1.51973982E+01  7.59869910E+00  7.59869910E+00 -1.51973982E+01  7.59869910E+00
  7.59869910E+00 -1.51973982E+01  7.59869910E+00  7.59869910E+00 -1.51973982E+01
  7.59869910E+00  7.59869910E+00 -1.51973982E+01  7.59869910E+00  7.59869910E+00
 -1.51973982E+01  7.59869910E+00  7.59869910E+00 -1.51973982E+01  7.59869910E+00
  7.59869910E+00 -1.51973982E+01  7.59869910E+00  7.59869910E+00 -1.51973982E+01
  7.59869910E+00  7.59869910E+00 -1.51973982E+01  7.59869910E+00  7.59869910E+00
 -1.51973982E+01  7.59869910E+00  7.59869910E+00 -1.51973982E+01  7.59869910E+00
  7.59869910E+00 -1.51973982E+01  7.59869910E+00  7.59869910E+00 -1.51973982E+01
  7.59869910E+00  7.59869910E+00 -1.51973982E+01  7.59869910E+00  7.59869910E+00
 -1.51973982E+01  7.59869910E+00  7.59869910E+00 -1.51973982E+01  7.59869910E+00
  7.59869910E+00 -1.51973982E+01  7.59869910E+00  7.59869910E+00 -1.51973982E+01
  7.59869910E+00  7.59869910E+00 -1.51973982E+01  7.59869910E+00  7.59869910E+00
 -1.51973982E+01  7.59869910E+00  7.59869910E+00 -1.51973982E+01  7.59869910E+00
  7.59869910E+00 -1.51973982E+01  7.59869910E+00  7.59869910E+00 -1.51973982E+01
  7.59869910E+00  7.59869910E+00 -1.51973982E+01  7.59869910E+00  7.59869910E+00
 -1.51973982E+01  7.59869910E+00  7.59869910E+00 -1.51973982E+01  7.59869910E+00
  7.59869910E+00 -1.51973982E+01  7.59869910E+00  7.59869910E+00 -1.51973982E+01
  7.59869910E+00  7.59869910E+00 -1.51973982E+01  7.59869910E+00  7.59869910E+00
 -1.51973982E+01  7.59869910E+00  7.59869910E+00 -1.51973982E+01  7.59869910E+00
  7.59869910E+00 -1.51973982E+01  7.59869910E+00  7.59869910E+00 -1.51973982E+01
  7.59869910E+00  7.59869910E+00 -1.51973982E+01  7.59869910E+00  7.59869910E+00
 -1.51973982E+01  7.59869910E+00  7.59869910E+00 -1.51973982E+01  7.59869910E+00
  7.59869910E+00 -1.51973982E+01  7.59869910E+00  7.59869910E+00 -1.51973982E+01
  7.59869910E+00  7.59869910E+00 -1.51973982E+01  7.59869910E+00  7.59869910E+00
 -1.51973982E+01  7.59869910E+00  7.59869910E+00 -1.51973982E+01  7.59869910E+00
  7.59869910E+00 -1.51973982E+01  7.59869910E+00  7.59869910E+00 -1.51973982E+01
  7.59869910E+00  7.59869910E+00 -1.51973982E+01  7.59869910E+00  7.59869910E+00
 -1.51973982E+01  7.59869910E+00  7.59869910E+00 -1.51973982E+01  7.59869910E+00
  7.59869910E+00 -1.51973982E+01  7.59869910E+00  7.59869910E+00 -1.51973982E+01
  7.59869910E+00  7.59869910E+00 -1.51973982E+01  7.59869910E+00  7.59869910E+00
 -1.51973982E+01  7.59869910E+00  7.59869910E+00 -1.51973982E+01  7.59869910E+00
  7.59869910E+00 -1.51973982E+01  7.59869910E+00  7.59869910E+00 -1.51973982E+01
  7.59869910E+00  7.59869910E+00 -1.51973982E+01  7.59869910E+00  7.59869910E+00
 -1.51973982E+01  7.59869910E+00  7.59869910E+00 -1.51973982E+01  7.59869910E+00
  7.59869910E+00 -1.51973982E+01  7.59869910E+00  7.59869910E+00 -1.51973982E+01
  7.59869910E+00  7.59869910E+00 -1.51973982E+01  7.59869910E+00  7.59869910E+00
 -1.51973982E+01  7.59869910E+00  7.59869910E+00 -1.51973982E+01  7.59869910E+00
  7.59869910E+00 -1.51973982E+01  7.59869910E+00  7.59869910E+00 -1.51973982E+01
  7.59869910E+00  7.59869910E+00 -1.51973982E+01  7.59869910E+00  7.59869910E+00
 -1.51973982E+01  7.59869910E+00  7.59869910E+00 -1.51973982E+01  7.59869910E+00
  7.59869910E+00 -1.51973982E+01  7.59869910E+00  7.59869910E+00 -1.51973982E+01
  7.59869910E+00  7.59869910E+00 -1.51973982E+01  7.59869910E+00  7.59869910E+00
 -1.51973982E+01  7.59869910E+00  7.59869910E+00 -1.51973982E+01  7.59869910E+00
  7.59869910E+00 -1.51973982E+01  7.59869910E+00  7.59869910E+00 -1.51973982E+01
  7.59869910E+00  7.59869910E+00 -1.51973982E+01  7.59869910E+00  7.59869910E+00
 -1.51973982E+01  7.59869910E+00  7.59869910E+00 -1.51973982E+01  7.59869910E+00
  7.59869910E+00 -1.51973982E+01  7.59869910E+00  7.59869910E+00 -1.51973982E+01
  7.59869910E+00  7.59869910E+00 -1.51973982E+01  7.59869910E+00  7.59869910E+00
 -1.51973982E+01  7.59869910E+00  7.59869910E+00 -1.51973982E+01  7.59869910E+00
  7.59869910E+00 -1.51973982E+01  7.59869910E+00  7.59869910E+00 -1.51973982E+01
  7.59869910E+00  7.59869910E+00 -1.51973982E+01  7.59869910E+00  7.59869910E+00
 -1.51973982E+01  7.59869910E+00  7.59869910E+00 -1.51973982E+01  7.59869910E+00
  7.59869910E+00 -1.51973982E+01  7.59869910E+00  7.59869910E+00 -1.51973982E+01
  7.59869910E+00  7.59869910E+00 -1.51973982E+01  7.59869910E+00  7.59869910E+00
 -1.51973982E+01  7.59869910E+00  7.59869910E+00 -1.51973982E+01  7.59869910E+00
  7.59869910E+00 -1.51973982E+01  7.59869910E+00  7.59869910E+00 -1.51973982E+01
  7.59869910E+00  7.59869910E+00 -1.51973982E+01  7.59869910E+00  7.59869910E+00
 -1.51973982E+01  7.59869910E+00  7.59869910E+00 -1.51973982E+01  7.59869910E+00
  7.59869910E+00 -1.51973982E+01  7.59869910E+00  7.59869910E+00 -1.51973982E+01
  7.59869910E+00  7.59869910E+00 -1.51973982E+01  7.59869910E+00  7.59869910E+00
 -1.51973982E+01  7.59869910E+00  7.59869910E+00 -1.51973982E+01  7.59869910E+00
  7.59869910E+00 -1.51973982E+01  7.59869910E+00  7.59869910E+00 -1.51973982E+01
  7.59869910E+00  7.59869910E+00 -1.51973982E+01  7.59869910E+00  7.59869910E+00
 -1.51973982E+01  7.59869910E+00  7.59869910E+00 -1.51973982E+01  7.59869910E+00
  7.59869910E+00 -1.51973982E+01  7.59869910E+00  7.59869910E+00 -1.51973982E+01
  7.59869910E+00  7.59869910E+00 -1.51973982E+01  7.59869910E+00  7.59869910E+00
 -1.51973982E+01  7.59869910E+00  7.59869910E+00 -1.51973982E+01  7.59869910E+00
  7.59869910E+00 -1.51973982E+01  7.59869910E+00  7.59869910E+00 -1.51973982E+01
  7.59869910E+00  7.59869910E+00 -1.51973982E+01  7.59869910E+00  7.59869910E+00
 -1.51973982E+01  7.59869910E+00  7.59869910E+00 -1.51973982E+01  7.59869910E+00
  7.59869910E+00 -1.51973982E+01  7.59869910E+00  7.59869910E+00 -1.51973982E+01
  7.59869910E+00  7.59869910E+00 -1.51973982E+01  7.59869910E+00  7.59869910E+00
 -1.51973982E+01  7.59869910E+00  7.59869910E+00 -1.51973982E+01  7.59869910E+00
  7.59869910E+00 -1.51973982E+01  7.59869910E+00  7.59869910E+00 -1.51973982E+01
  7.59869910E+00  7.59869910E+00 -1.51973982E+01  7.59869910E+00  7.59869910E+00
 -1.51973982E+01  7.59869910E+00  7.59869910E+00 -1.51973982E+01  7.59869910E+00
  7.59869910E+00 -1.51973982E+01  7.59869910E+00  7.59869910E+00 -1.51973982E+01
  7.59869910E+00  7.59869910E+00 -1.51973982E+01  7.59869910E+00  7.59869910E+00
 -1.51973982E+01  7.59869910E+00  7.59869910E+00 -1.51973982E+01  7.59869910E+00
  7.59869910E+00 -1.51973982E+01  7.59869910E+00  7.59869910E+00 -1.51973982E+01
  7.59869910E+00  7.59869910E+00 -1.51973982E+01  7.59869910E+00  7.59869910E+00
 -1.51973982E+01  7.59869910E+00  7.59869910E+00 -1.51973982E+01  7.59869910E+00
  7.59869910E+00 -1.51973982E+01  7.59869910E+00  7.59869910E+00 -1.51973982E+01
  7.59869910E+00  7.59869910E+00 -1.51973982E+01  7.59869910E+00  7.59869910E+00
 -1.51973982E+01  7.59869910E+00  7.59869910E+00 -1.51973982E+01  7.59869910E+00
  7.59869910E+00 -1.51973982E+01  7.59869910E+00  7.59869910E+00 -1.51973982E+01
  7.59869910E+00  7.59869910E+00 -1.51973982E+01  7.59869910E+00  7.59869910E+00
 -1.51973982E+01  7.59869910E+00  7.59869910E+00 -1.51973982E+01  7.59869910E+00
  7.59869910E+00 -1.51973982E+01  7.59869910E+00  7.59869910E+00 -1.51973982E+01
  7.59869910E+00  7.59869910E+00 -1.51973982E+01  7.59869910E+00  7.59869910E+00
 -1.51973982E+01  7.59869910E+00  7.59869910E+00 -1.51973982E+01  7.59869910E+00
  7.59869910E+00 -1.51973982E+01  7.59869910E+00  7.59869910E+00 -1.51973982E+01
  7.59869910E+00  7.59869910E+00 -1.51973982E+01  7.59869910E+00  7.59869910E+00
 -1.51973982E+01  7.59869910E+00  7.59869910E+00 -1.51973982E+01  7.59869910E+00
  7.59869910E+00 -1.51973982E+01  7.59869910E+00  7.59869910E+00 -1.51973982E+01
  7.59869910E+00  7.59869910E+00 -1.51973982E+01  7.59869910E+00  7.59869910E+00
 -1.51973982E+01  7.59869910E+00  7.59869910E+00 -1.51973982E+01  7.59869910E+00
  7.59869910E+00 -1.51973982E+01  7.59869910E+00  7.59869910E+00 -1.51973982E+01
  7.59869910E+00  7.59869910E+00 -1.51973982E+01  7.59869910E+00  7.59869910E+00
 -1.51973982E+01  7.59869910E+00  7.59869910E+00 -1.51973982E+01  7.59869910E+00
  7.59869910E+00 -1.51973982E+01  7.59869910E+00  7.59869910E+00 -1.51973982E+01
  7.59869910E+00  7.59869910E+00 -1.51973982E+01  7.59869910E+00  7.59869910E+00
 -1.51973982E+01  7.59869910E+00  7.59869910E+00 -1.51973982E+01  7.59869910E+00
  7.59869910E+00 -1.51973982E+01  7.59869910E+00  7.59869910E+00 -1.51973982E+01
  7.59869910E+00  7.59869910E+00 -1.51973982E+01  7.59869910E+00  7.59869910E+00
 -1.51973982E+01  7.59869910E+00  7.59869910E+00 -1.51973982E+01  7.59869910E+00
  7.59869910E+00 -1.51973982E+01  7.59869910E+00  7.59869910E+00 -1.51973982E+01
  7.59869910E+00  7.59869910E+00 -1.51973982E+01  7.59869910E+00  7.59869910E+00
 -1.51973982E+01  7.59869910E+00  7.59869910E+00 -1.51973982E+01  7.59869910E+00
  7.59869910E+00 -1.51973982E+01  7.59869910E+00  7.59869910E+00 -1.51973982E+01
  7.59869910E+00  7.59869910E+00 -1.51973982E+01  7.59869910E+00  7.59869910E+00
 -1.51973982E+01  7.59869910E+00  7.59869910E+00 -1.51973982E+01  7.59869910E+00
  7.59869910E+00 -1.51973982E+01  7.59869910E+00  7.59869910E+00 -1.51973982E+01
  7.59869910E+00  7.59869910E+00 -1.51973982E+01  7.59869910E+00  7.59869910E+00
 -1.51973982E+01  7.59869910E+00  7.59869910E+00 -1.51973982E+01  7.59869910E+00
  7.59869910E+00 -1.51973982E+01  7.59869910E+00  7.59869910E+00 -1.51973982E+01
  7.59869910E+00  7.59869910E+00 -1.51973982E+01  7.59869910E+00  7.59869910E+00
 -1.51973982E+01  7.59869910E+00  7.59869910E+00 -1.51973982E+01  7.59869910E+00
  7.59869910E+00 -1.51973982E+01  7.59869910E+00  7.59869910E+00 -1.51973982E+01
  7.59869910E+00  7.59869910E+00 -1.51973982E+01  7.59869910E+00  7.59869910E+00
 -1.51973982E+01  7.59869910E+00  7.59869910E+00 -1.51973982E+01  7.59869910E+00
  7.59869910E+00 -1.51973982E+01  7.59869910E+00  7.59869910E+00 -1.51973982E+01
  7.59869910E+00  7.59869910E+00 -1.51973982E+01  7.59869910E+00  7.59869910E+00
 -1.51973982E+01  7.59869910E+00  7.59869910E+00 -1.51973982E+01  7.59869910E+00
  7.59869910E+00 -1.51973982E+01  7.59869910E+00  7.59869910E+00 -1.51973982E+01
  7.59869910E+00  7.59869910E+00 -1.51973982E+01  7.59869910E+00  7.59869910E+00
 -1.51973982E+01  7.59869910E+00  7.59869910E+00 -1.51973982E+01  7.59869910E+00
  7.59869910E+00 -1.51973982E+01  7.59869910E+00  7.59869910E+00 -1.51973982E+01
  7.59869910E+00  7.59869910E+00 -1.51973982E+01  7.59869910E+00  7.59869910E+00
 -1.51973982E+01  7.59869910E+00  7.59869910E+00 -1.51973982E+01  7.59869910E+00
  7.59869910E+00 -1.51973982E+01  7.59869910E+00  7.59869910E+00 -1.51973982E+01
  7.59869910E+00  7.59869910E+00 -1.51973982E+01  7.59869910E+00  7.59869910E+00
 -1.51973982E+01  7.59869910E+00  7.59869910E+00 -1.51973982E+01  7.59869910E+00
  7.59869910E+00 -1.51973982E+01  7.59869910E+00  7.59869910E+00 -1.51973982E+01
  7.59869910E+00  7.59869910E+00 -1.51973982E+01  7.59869910E+00  7.59869910E+00
 -1.51973982E+01  7.59869910E+00  7.59869910E+00 -1.51973982E+01  7.59869910E+00
  7.59869910E+00 -1.51973982E+01  7.59869910E+00  7.59869910E+00 -1.51973982E+01
  7.59869910E+00  7.59869910E+00 -1.51973982E+01  7.59869910E+00  7.59869910E+00
 -1.51973982E+01  7.59869910E+00  7.59869910E+00 -1.51973982E+01  7.59869910E+00
  7.59869910E+00 -1.51973982E+01  7.59869910E+00  7.59869910E+00 -1.51973982E+01
  7.59869910E+00  7.59869910E+00 -1.51973982E+01  7.59869910E+00  7.59869910E+00
 -1.51973982E+01  7.59869910E+00  7.59869910E+00 -1.51973982E+01  7.59869910E+00
  7.59869910E+00 -1.51973982E+01  7.59869910E+00  7.59869910E+00 -1.51973982E+01
  7.59869910E+00  7.59869910E+00 -1.51973982E+01  7.59869910E+00  7.59869910E+00
 -1.51973982E+01  7.59869910E+00  7.59869910E+00 -1.51973982E+01  7.59869910E+00
  7.59869910E+00 -1.51973982E+01  7.59869910E+00  7.59869910E+00 -1.51973982E+01
  7.59869910E+00  7.59869910E+00 -1.51973982E+01  7.59869910E+00  7.59869910E+00
 -1.51973982E+01  7.59869910E+00  7.59869910E+00 -1.51973982E+01  7.59869910E+00
  7.59869910E+00 -1.51973982E+01  7.59869910E+00  7.59869910E+00 -1.51973982E+01
  7.59869910E+00  7.59869910E+00 -1.51973982E+01  7.59869910E+00  7.59869910E+00
 -1.51973982E+01  7.59869910E+00  7.59869910E+00 -1.51973982E+01  7.59869910E+00
  7.59869910E+00 -1.51973982E+01  7.59869910E+00  7.59869910E+00 -1.51973982E+01
  7.59869910E+00  7.59869910E+00 -1.51973982E+01  7.59869910E+00  7.59869910E+00
 -1.51973982E+01  7.59869910E+00  7.59869910E+00 -1.51973982E+01  7.59869910E+00
  7.59869910E+00 -1.51973982E+01  7.59869910E+00  7.59869910E+00 -1.51973982E+01
  7.59869910E+00  7.59869910E+00 -1.51973982E+01  7.59869910E+00  7.59869910E+00
 -1.51973982E+01  7.59869910E+00  7.59869910E+00 -1.51973982E+01  7.59869910E+00
  7.59869910E+00 -1.51973982E+01  7.59869910E+00  7.59869910E+00 -1.51973982E+01
  7.59869910E+00  7.59869910E+00 -1.51973982E+01  7.59869910E+00  7.59869910E+00
 -1.51973982E+01  7.59869910E+00  7.59869910E+00 -1.51973982E+01  7.59869910E+00
  7.59869910E+00 -1.51973982E+01  7.59869910E+00  7.59869910E+00 -1.51973982E+01
  7.59869910E+00  7.59869910E+00 -1.51973982E+01  7.59869910E+00  7.59869910E+00
 -1.51973982E+01  7.59869910E+00  7.59869910E+00 -1.51973982E+01  7.59869910E+00
  7.59869910E+00 -1.51973982E+01  7.59869910E+00  7.59869910E+00 -1.51973982E+01
  7.59869910E+00  7.59869910E+00 -1.51973982E+01  7.59869910E+00  7.59869910E+00
 -1.51973982E+01  7.59869910E+00  7.59869910E+00 -1.51973982E+01  7.59869910E+00
  7.59869910E+00 -1.51973982E+01  7.59869910E+00  7.59869910E+00 -1.51973982E+01
  7.59869910E+00  7.59869910E+00 -1.51973982E+01  7.59869910E+00  7.59869910E+00
 -1.51973982E+01  7.59869910E+00  7.59869910E+00 -1.51973982E+01  7.59869910E+00
  7.59869910E+00 -1.51973982E+01  7.59869910E+00  7.59869910E+00 -1.51973982E+01
  7.59869910E+00  7.59869910E+00 -1.51973982E+01  7.59869910E+00  7.59869910E+00
 -1.51973982E+01  7.59869910E+00  7.59869910E+00 -1.51973982E+01  7.59869910E+00
  7.59869910E+00 -1.51973982E+01  7.59869910E+00  7.59869910E+00 -1.51973982E+01
  7.59869910E+00  7.59869910E+00 -1.51973982E+01  7.59869910E+00  7.59869910E+00
 -1.51973982E+01  7.59869910E+00  7.59869910E+00 -1.51973982E+01  7.59869910E+00
  7.59869910E+00 -1.51973982E+01  7.59869910E+00  7.59869910E+00 -1.51973982E+01
  7.59869910E+00  7.59869910E+00 -1.51973982E+01  7.59869910E+00  7.59869910E+00
 -1.51973982E+01  7.59869910E+00  7.59869910E+00 -1.51973982E+01  7.59869910E+00
  7.59869910E+00 -1.51973982E+01  7.59869910E+00  7.59869910E+00 -1.51973982E+01
  7.59869910E+00  7.59869910E+00 -1.51973982E+01  7.59869910E+00  7.59869910E+00
 -1.51973982E+01  7.59869910E+00  7.59869910E+00 -1.51973982E+01  7.59869910E+00
  7.59869910E+00 -1.51973982E+01  7.59869910E+00  7.59869910E+00 -1.51973982E+01
  7.59869910E+00  7.59869910E+00 -1.51973982E+01  7.59869910E+00  7.59869910E+00
 -1.51973982E+01  7.59869910E+00  7.59869910E+00 -1.51973982E+01  7.59869910E+00
  7.59869910E+00 -1.51973982E+01  7.59869910E+00  7.59869910E+00 -1.51973982E+01
  7.59869910E+00  7.59869910E+00 -1.51973982E+01  7.59869910E+00  7.59869910E+00
 -1.51973982E+01  7.59869910E+00  7.59869910E+00 -1.51973982E+01  7.59869910E+00
  7.59869910E+00 -1.51973982E+01  7.59869910E+00  7.59869910E+00 -1.51973982E+01
  7.59869910E+00  7.59869910E+00 -1.51973982E+01  7.59869910E+00  7.59869910E+00
 -1.51973982E+01  7.59869910E+00  7.59869910E+00 -1.51973982E+01  7.59869910E+00
  7.59869910E+00 -1.51973982E+01  7.59869910E+00  7.59869910E+00 -1.51973982E+01
  7.59869910E+00  7.59869910E+00 -1.51973982E+01  7.59869910E+00  7.59869910E+00
 -1.51973982E+01  7.59869910E+00  7.59869910E+00 -1.51973982E+01  7.59869910E+00
  7.59869910E+00 -1.51973982E+01  7.59869910E+00  7.59869910E+00 -1.51973982E+01
  7.59869910E+00  7.59869910E+00 -1.51973982E+01  7.59869910E+00  7.59869910E+00
 -1.51973982E+01  7.59869910E+00  7.59869910E+00 -1.51973982E+01  7.59869910E+00
  7.59869910E+00 -1.51973982E+01  7.59869910E+00  7.59869910E+00 -1.51973982E+01
  7.59869910E+00  7.59869910E+00 -1.51973982E+01  7.59869910E+00  7.59869910E+00
 -1.51973982E+01  7.59869910E+00  7.59869910E+00 -1.51973982E+01  7.59869910E+00
  7.59869910E+00 -1.51973982E+01  7.59869910E+00  7.59869910E+00 -1.51973982E+01
  7.59869910E+00  7.59869910E+00 -1.51973982E+01  7.59869910E+00  7.59869910E+00
 -1.51973982E+01  7.59869910E+00  7.59869910E+00 -1.51973982E+01  7.59869910E+00
  7.59869910E+00 -1.51973982E+01  7.59869910E+00  7.59869910E+00 -1.51973982E+01
  7.59869910E+00  7.59869910E+00 -1.51973982E+01  7.59869910E+00  7.59869910E+00
 -1.51973982E+01  7.59869910E+00  7.59869910E+00 -1.51973982E+01  7.59869910E+00
  7.59869910E+00 -1.51973982E+01  7.59869910E+00  7.59869910E+00 -1.51973982E+01
  7.59869910E+00  7.59869910E+00 -1.51973982E+01  7.59869910E+00  7.59869910E+00
 -1.51973982E+01  7.59869910E+00  7.59869910E+00 -1.51973982E+01  7.59869910E+00
  7.59869910E+00 -1.51973982E+01  7.59869910E+00  7.59869910E+00 -1.51973982E+01
  7.59869910E+00  7.59869910E+00 -1.51973982E+01  7.59869910E+00  7.59869910E+00
 -1.51973982E+01  7.59869910E+00  7.59869910E+00 -1.51973982E+01  7.59869910E+00
  7.59869910E+00 -1.51973982E+01  7.59869910E+00  7.59869910E+00 -1.51973982E+01
  7.59869910E+00  7.59869910E+00 -1.51973982E+01  7.59869910E+00  7.59869910E+00
 -1.51973982E+01  7.59869910E+00  7.59869910E+00 -1.51973982E+01  7.59869910E+00
  7.59869910E+00 -1.51973982E+01  7.59869910E+00  7.59869910E+00 -1.51973982E+01
  7.59869910E+00  7.59869910E+00 -1.51973982E+01  7.59869910E+00  7.59869910E+00
 -1.51973982E+01  7.59869910E+00  7.59869910E+00 -1.51973982E+01  7.59869910E+00
  7.59869910E+00 -1.51973982E+01  7.59869910E+00  7.59869910E+00 -1.51973982E+01
  7.59869910E+00  7.59869910E+00 -1.51973982E+01  7.59869910E+00  7.59869910E+00
 -1.51973982E+01  7.59869910E+00  7.59869910E+00 -1.51973982E+01  7.59869910E+00
  7.59869910E+00 -1.51973982E+01  7.59869910E+00  7.59869910E+00 -1.51973982E+01
  7.59869910E+00  7.59869910E+00 -1.51973982E+01  7.59869910E+00  7.59869910E+00
 -1.51973982E+01  7.59869910E+00  7.59869910E+00 -1.51973982E+01  7.59869910E+00
  7.59869910E+00 -1.51973982E+01  7.59869910E+00  7.59869910E+00 -1.51973982E+01
  7.59869910E+00  7.59869910E+00 -1.51973982E+01  7.59869910E+00  7.59869910E+00
 -1.51973982E+01  7.59869910E+00  7.59869910E+00 -1.51973982E+01  7.59869910E+00
  7.59869910E+00 -1.51973982E+01  7.59869910E+00  7.59869910E+00 -1.51973982E+01
  7.59869910E+00  7.59869910E+00 -1.51973982E+01  7.59869910E+00  7.59869910E+00
 -1.51973982E+01  7.59869910E+00  7.59869910E+00 -1.51973982E+01  7.59869910E+00
  7.59869910E+00 -1.51973982E+01  7.59869910E+00  7.59869910E+00 -1.51973982E+01
  7.59869910E+00  7.59869910E+00 -1.51973982E+01  7.59869910E+00  7.59869910E+00
 -1.51973982E+01  7.59869910E+00  7.59869910E+00 -1.51973982E+01  7.59869910E+00
  7.59869910E+00 -1.51973982E+01  7.59869910E+00  7.59869910E+00 -1.51973982E+01
  7.59869910E+00  7.59869910E+00 -1.51973982E+01  7.59869910E+00  7.59869910E+00
 -1.51973982E+01  7.59869910E+00  7.59869910E+00 -1.51973982E+01  7.59869910E+00
  7.59869910E+00 -1.51973982E+01  7.59869910E+00  7.59869910E+00 -1.51973982E+01
  7.59869910E+00  7.59869910E+00 -1.51973982E+01  7.59869910E+00  7.59869910E+00
 -1.51973982E+01  7.59869910E+00  7.59869910E+00 -1.51973982E+01  7.59869910E+00
  7.59869910E+00 -1.51973982E+01  7.59869910E+00  7.59869910E+00 -1.51973982E+01
  7.59869910E+00  7.59869910E+00 -1.51973982E+01  7.59869910E+00  7.59869910E+00
 -1.51973982E+01  7.59869910E+00  7.59869910E+00 -1.51973982E+01  7.59869910E+00
  7.59869910E+00 -1.51973982E+01  7.59869910E+00  7.59869910E+00 -1.51973982E+01
  7.59869910E+00  7.59869910E+00 -1.51973982E+01  7.59869910E+00  7.59869910E+00
 -1.51973982E+01  7.59869910E+00  7.59869910E+00 -1.51973982E+01  7.59869910E+00
  7.59869910E+00 -1.51973982E+01  7.59869910E+00  7.59869910E+00 -1.51973982E+01
  7.59869910E+00  7.59869910E+00 -1.51973982E+01  7.59869910E+00  7.59869910E+00
 -1.51973982E+01  7.59869910E+00  7.59869910E+00 -1.51973982E+01  7.59869910E+00
  7.59869910E+00 -1.51973982E+01  7.59869910E+00  7.59869910E+00 -1.51973982E+01
  7.59869910E+00  7.59869910E+00 -1.51973982E+01  7.59869910E+00  7.59869910E+00
 -1.51973982E+01  7.59869910E+00  7.59869910E+00 -1.51973982E+01  7.59869910E+00
  7.59869910E+00 -1.51973982E+01  7.59869910E+00  7.59869910E+00 -1.51973982E+01
  7.59869910E+00  7.59869910E+00 -1.51973982E+01  7.59869910E+00  7.59869910E+00
 -1.51973982E+01  7.59869910E+00  7.59869910E+00 -1.51973982E+01  7.59869910E+00
  7.59869910E+00 -1.51973982E+01  7.59869910E+00  7.59869910E+00 -1.51973982E+01
  7.59869910E+00  7.59869910E+00 -1.51973982E+01  7.59869910E+00  7.59869910E+00
 -1.51973982E+01  7.59869910E+00  7.59869910E+00 -1.51973982E+01  7.59869910E+00
  7.59869910E+00 -1.51973982E+01  7.59869910E+00  7.59869910E+00 -1.51973982E+01
  7.59869910E+00  7.59869910E+00 -1.51973982E+01  7.59869910E+00  7.59869910E+00
 -1.51973982E+01  7.59869910E+00  7.59869910E+00 -1.51973982E+01  7.59869910E+00
  7.59869910E+00 -1.51973982E+01  7.59869910E+00  7.59869910E+00 -1.51973982E+01
  7.59869910E+00  7.59869910E+00 -1.51973982E+01  7.59869910E+00  7.59869910E+00
 -1.51973982E+01  7.59869910E+00  7.59869910E+00 -1.51973982E+01  7.59869910E+00
  7.59869910E+00 -1.51973982E+01  7.59869910E+00  7.59869910E+00 -1.51973982E+01
  7.59869910E+00  7.59869910E+00 -1.51973982E+01  7.59869910E+00  7.59869910E+00
 -1.51973982E+01  7.59869910E+00  7.59869910E+00 -1.51973982E+01  7.59869910E+00
  7.59869910E+00 -1.51973982E+01  7.59869910E+00  7.59869910E+00 -1.51973982E+01
  7.59869910E+00  7.59869910E+00 -1.51973982E+01  7.59869910E+00  7.59869910E+00
 -1.51973982E+01  7.59869910E+00  7.59869910E+00 -1.51973982E+01  7.59869910E+00
  7.59869910E+00 -1.51973982E+01  7.59869910E+00  7.59869910E+00 -1.51973982E+01
  7.59869910E+00  7.59869910E+00 -1.51973982E+01  7.59869910E+00  7.59869910E+00
 -1.51973982E+01  7.59869910E+00  7.59869910E+00 -1.51973982E+01  7.59869910E+00
  7.59869910E+00 -1.51973982E+01  7.59869910E+00  7.59869910E+00 -1.51973982E+01
  7.59869910E+00  7.59869910E+00 -1.51973982E+01  7.59869910E+00  7.59869910E+00
 -1.51973982E+01  7.59869910E+00  7.59869910E+00 -1.51973982E+01  7.59869910E+00
  7.59869910E+00 -1.51973982E+01  7.59869910E+00  7.59869910E+00 -1.51973982E+01
  7.59869910E+00  7.59869910E+00 -1.51973982E+01  7.59869910E+00  7.59869910E+00
 -1.51973982E+01  7.59869910E+00  7.59869910E+00 -1.51973982E+01  7.59869910E+00
  7.59869910E+00 -1.51973982E+01  7.59869910E+00  7.59869910E+00 -1.51973982E+01
  7.59869910E+00  7.59869910E+00 -1.51973982E+01  7.59869910E+00  7.59869910E+00
 -1.51973982E+01  7.59869910E+00  7.59869910E+00 -1.51973982E+01  7.59869910E+00
  7.59869910E+00 -1.51973982E+01  7.59869910E+00  7.59869910E+00 -1.51973982E+01
  7.59869910E+00  7.59869910E+00 -1.51973982E+01  7.59869910E+00  7.59869910E+00
 -1.51973982E+01  7.59869910E+00  7.59869910E+00 -1.51973982E+01  7.59869910E+00
  7.59869910E+00 -1.51973982E+01  7.59869910E+00  7.59869910E+00 -1.51973982E+01
  7.59869910E+00  7.59869910E+00 -1.51973982E+01  7.59869910E+00  7.59869910E+00
 -1.51973982E+01  7.59869910E+00  7.59869910E+00 -1.51973982E+01  7.59869910E+00
  7.59869910E+00 -1.51973982E+01  7.59869910E+00  7.59869910E+00 -1.51973982E+01
  7.59869910E+00  7.59869910E+00 -1.51973982E+01  7.59869910E+00  7.59869910E+00
 -1.51973982E+01  7.59869910E+00  7.59869910E+00 -1.51973982E+01  7.59869910E+00
  7.59869910E+00 -1.51973982E+01  7.59869910E+00  7.59869910E+00 -1.51973982E+01
  7.59869910E+00  7.59869910E+00 -1.51973982E+01  7.59869910E+00  7.59869910E+00
 -1.51973982E+01  7.59869910E+00  7.59869910E+00 -1.51973982E+01  7.59869910E+00
  7.59869910E+00 -1.51973982E+01  7.59869910E+00  7.59869910E+00 -1.51973982E+01
  7.59869910E+00  7.59869910E+00 -1.51973982E+01  7.59869910E+00  7.59869910E+00
 -1.51973982E+01  7.59869910E+00  7.59869910E+00 -1.51973982E+01  7.59869910E+00
  7.59869910E+00 -1.51973982E+01  7.59869910E+00  7.59869910E+00 -1.51973982E+01
  7.59869910E+00  7.59869910E+00 -1.51973982E+01  7.59869910E+00  7.59869910E+00
 -1.51973982E+01  7.59869910E+00  7.59869910E+00 -1.51973982E+01  7.59869910E+00
  7.59869910E+00 -1.51973982E+01  7.59869910E+00  7.59869910E+00 -1.51973982E+01
  7.59869910E+00  7.59869910E+00 -1.51973982E+01  7.59869910E+00  7.59869910E+00
 -1.51973982E+01  7.59869910E+00  7.59869910E+00 -1.51973982E+01  7.59869910E+00
  7.59869910E+00 -1.51973982E+01  7.59869910E+00  7.59869910E+00 -1.51973982E+01
  7.59869910E+00  7.59869910E+00 -1.51973982E+01  7.59869910E+00  7.59869910E+00
 -1.51973982E+01  7.59869910E+00  7.59869910E+00 -1.51973982E+01  7.59869910E+00
  7.59869910E+00 -1.51973982E+01  7.59869910E+00  7.59869910E+00 -1.51973982E+01
  7.59869910E+00  7.59869910E+00 -1.51973982E+01  7.59869910E+00  7.59869910E+00
 -1.51973982E+01  7.59869910E+00  7.59869910E+00 -1.51973982E+01  7.59869910E+00
  7.59869910E+00 -1.51973982E+01  7.59869910E+00  7.59869910E+00 -1.51973982E+01
  7.59869910E+00  7.59869910E+00 -1.51973982E+01  7.59869910E+00  7.59869910E+00
 -1.51973982E+01  7.59869910E+00  7.59869910E+00 -1.51973982E+01  7.59869910E+00
  7.59869910E+00 -1.51973982E+01  7.59869910E+00  7.59869910E+00 -1.51973982E+01
  7.59869910E+00  7.59869910E+00 -1.51973982E+01  7.59869910E+00  7.59869910E+00
 -1.51973982E+01  7.59869910E+00  7.59869910E+00 -1.51973982E+01  7.59869910E+00
  7.59869910E+00 -1.51973982E+01  7.59869910E+00  7.59869910E+00 -1.51973982E+01
  7.59869910E+00  7.59869910E+00 -1.51973982E+01  7.59869910E+00  7.59869910E+00
 -1.51973982E+01  7.59869910E+00  7.59869910E+00 -1.51973982E+01  7.59869910E+00
  7.59869910E+00 -1.51973982E+01  7.59869910E+00  7.59869910E+00 -1.51973982E+01
  7.59869910E+00  7.59869910E+00 -1.51973982E+01  7.59869910E+00  7.59869910E+00
 -1.51973982E+01  7.59869910E+00  7.59869910E+00 -1.51973982E+01  7.59869910E+00
  7.59869910E+00 -1.51973982E+01  7.59869910E+00  7.59869910E+00 -1.51973982E+01
  7.59869910E+00  7.59869910E+00 -1.51973982E+01  7.59869910E+00  7.59869910E+00
 -1.51973982E+01  7.59869910E+00  7.59869910E+00 -1.51973982E+01  7.59869910E+00
  7.59869910E+00 -1.51973982E+01  7.59869910E+00  7.59869910E+00 -1.51973982E+01
  7.59869910E+00  7.59869910E+00 -1.51973982E+01  7.59869910E+00  7.59869910E+00
 -1.51973982E+01  7.59869910E+00  7.59869910E+00 -1.51973982E+01  7.59869910E+00
  7.59869910E+00 -1.51973982E+01  7.59869910E+00  7.59869910E+00 -1.51973982E+01
  7.59869910E+00  7.59869910E+00 -1.51973982E+01  7.59869910E+00  7.59869910E+00
 -1.51973982E+01  7.59869910E+00  7.59869910E+00 -1.51973982E+01  7.59869910E+00
  7.59869910E+00 -1.51973982E+01  7.59869910E+00  7.59869910E+00 -1.51973982E+01
  7.59869910E+00  7.59869910E+00 -1.51973982E+01  7.59869910E+00  7.59869910E+00
 -1.51973982E+01  7.59869910E+00  7.59869910E+00 -1.51973982E+01  7.59869910E+00
  7.59869910E+00 -1.51973982E+01  7.59869910E+00  7.59869910E+00 -1.51973982E+01
  7.59869910E+00  7.59869910E+00 -1.51973982E+01  7.59869910E+00  7.59869910E+00
 -1.51973982E+01  7.59869910E+00  7.59869910E+00 -1.51973982E+01  7.59869910E+00
  7.59869910E+00 -1.51973982E+01  7.59869910E+00  7.59869910E+00 -1.51973982E+01
  7.59869910E+00  7.59869910E+00 -1.51973982E+01  7.59869910E+00  7.59869910E+00
 -1.51973982E+01  7.59869910E+00  7.59869910E+00 -1.51973982E+01  7.59869910E+00
  7.59869910E+00 -1.51973982E+01  7.59869910E+00  7.59869910E+00 -1.51973982E+01
  7.59869910E+00  7.59869910E+00 -1.51973982E+01  7.59869910E+00  7.59869910E+00
 -1.51973982E+01  7.59869910E+00  7.59869910E+00 -1.51973982E+01  7.59869910E+00
  7.59869910E+00 -1.51973982E+01  7.59869910E+00  7.59869910E+00 -1.51973982E+01
  7.59869910E+00  7.59869910E+00 -1.51973982E+01  7.59869910E+00  7.59869910E+00
 -1.51973982E+01  7.59869910E+00  7.59869910E+00 -1.51973982E+01  7.59869910E+00
  7.59869910E+00 -1.51973982E+01  7.59869910E+00  7.59869910E+00 -1.51973982E+01
  7.59869910E+00  7.59869910E+00 -1.51973982E+01  7.59869910E+00  7.59869910E+00
 -1.51973982E+01  7.59869910E+00  7.59869910E+00 -1.51973982E+01  7.59869910E+00
  7.59869910E+00 -1.51973982E+01  7.59869910E+00  7.59869910E+00 -1.51973982E+01
  7.59869910E+00  7.59869910E+00 -1.51973982E+01  7.59869910E+00  7.59869910E+00
 -1.51973982E+01  7.59869910E+00  7.59869910E+00 -1.51973982E+01  7.59869910E+00
  7.59869910E+00 -1.51973982E+01  7.59869910E+00  7.59869910E+00 -1.51973982E+01
  7.59869910E+00  7.59869910E+00 -1.51973982E+01  7.59869910E+00  7.59869910E+00
 -1.51973982E+01  7.59869910E+00  7.59869910E+00 -1.51973982E+01  7.59869910E+00
  7.59869910E+00 -1.51973982E+01  7.59869910E+00  7.59869910E+00 -1.51973982E+01
  7.59869910E+00  7.59869910E+00 -1.51973982E+01  7.59869910E+00  7.59869910E+00
 -1.51973982E+01  7.59869910E+00  7.59869910E+00 -1.51973982E+01  7.59869910E+00
  7.59869910E+00 -1.51973982E+01  7.59869910E+00  7.59869910E+00 -1.51973982E+01
  7.59869910E+00  7.59869910E+00 -1.51973982E+01  7.59869910E+00  7.59869910E+00
 -1.51973982E+01  7.59869910E+00  7.59869910E+00 -1.51973982E+01  7.59869910E+00
  7.59869910E+00 -1.51973982E+01  7.59869910E+00  7.59869910E+00 -1.51973982E+01
  7.59869910E+00  7.59869910E+00 -1.51973982E+01  7.59869910E+00  7.59869910E+00
 -1.51973982E+01  7.59869910E+00  7.59869910E+00 -1.51973982E+01  7.59869910E+00
  7.59869910E+00 -1.51973982E+01  7.59869910E+00  7.59869910E+00 -1.51973982E+01
  7.59869910E+00  7.59869910E+00 -1.51973982E+01  7.59869910E+00  7.59869910E+00
 -1.51973982E+01  7.59869910E+00  7.59869910E+00 -1.51973982E+01  7.59869910E+00
  7.59869910E+00 -1.51973982E+01  7.59869910E+00  7.59869910E+00 -1.51973982E+01
  7.59869910E+00  7.59869910E+00 -1.51973982E+01  7.59869910E+00  7.59869910E+00
 -1.51973982E+01  7.59869910E+00  7.59869910E+00 -1.51973982E+01  7.59869910E+00
  7.59869910E+00 -1.51973982E+01  7.59869910E+00  7.59869910E+00 -1.51973982E+01
  7.59869910E+00  7.59869910E+00 -1.51973982E+01  7.59869910E+00  7.59869910E+00
 -1.51973982E+01  7.59869910E+00  7.59869910E+00 -1.51973982E+01  7.59869910E+00
  7.59869910E+00 -1.51973982E+01  7.59869910E+00  7.59869910E+00 -1.51973982E+01
  7.59869910E+00  7.59869910E+00 -1.51973982E+01  7.59869910E+00  7.59869910E+00
 -1.51973982E+01  7.59869910E+00  7.59869910E+00 -1.51973982E+01  7.59869910E+00
  7.59869910E+00 -1.51973982E+01  7.59869910E+00  7.59869910E+00 -1.51973982E+01
  7.59869910E+00  7.59869910E+00 -1.51973982E+01  7.59869910E+00  7.59869910E+00
 -1.51973982E+01  7.59869910E+00  7.59869910E+00 -1.51973982E+01  7.59869910E+00
  7.59869910E+00 -1.51973982E+01  7.59869910E+00  7.59869910E+00 -1.51973982E+01
  7.59869910E+00  7.59869910E+00 -1.51973982E+01  7.59869910E+00  7.59869910E+00
 -1.51973982E+01  7.59869910E+00  7.59869910E+00 -1.51973982E+01  7.59869910E+00
  7.59869910E+00 -1.51973982E+01  7.59869910E+00  7.59869910E+00 -1.51973982E+01
  7.59869910E+00  7.59869910E+00 -1.51973982E+01  7.59869910E+00  7.59869910E+00
 -1.51973982E+01  7.59869910E+00  7.59869910E+00 -1.51973982E+01  7.59869910E+00
  7.59869910E+00 -1.51973982E+01  7.59869910E+00  7.59869910E+00 -1.51973982E+01
  7.59869910E+00  7.59869910E+00 -1.51973982E+01  7.59869910E+00  7.59869910E+00
 -1.51973982E+01  7.59869910E+00  7.59869910E+00 -1.51973982E+01  7.59869910E+00
  7.59869910E+00 -1.51973982E+01  7.59869910E+00  7.59869910E+00 -1.51973982E+01
  7.59869910E+00  7.59869910E+00 -1.51973982E+01  7.59869910E+00  7.59869910E+00
 -1.51973982E+01  7.59869910E+00  7.59869910E+00 -1.51973982E+01  7.59869910E+00
  7.59869910E+00 -1.51973982E+01  7.59869910E+00  7.59869910E+00 -1.51973982E+01
  7.59869910E+00  7.59869910E+00 -1.51973982E+01  7.59869910E+00  7.59869910E+00
 -1.51973982E+01  7.59869910E+00  7.59869910E+00 -1.51973982E+01  7.59869910E+00
  7.59869910E+00 -1.51973982E+01  7.59869910E+00  7.59869910E+00 -1.51973982E+01
  7.59869910E+00  7.59869910E+00 -1.51973982E+01  7.59869910E+00  7.59869910E+00
 -1.51973982E+01  7.59869910E+00  7.59869910E+00 -1.51973982E+01  7.59869910E+00
  7.59869910E+00 -1.51973982E+01  7.59869910E+00  7.59869910E+00 -1.51973982E+01
  7.59869910E+00  7.59869910E+00 -1.51973982E+01  7.59869910E+00  7.59869910E+00
 -1.51973982E+01  7.59869910E+00  7.59869910E+00 -1.51973982E+01  7.59869910E+00
  7.59869910E+00 -1.51973982E+01  7.59869910E+00  7.59869910E+00 -1.51973982E+01
  7.59869910E+00  7.59869910E+00 -1.51973982E+01  7.59869910E+00  7.59869910E+00
 -1.51973982E+01  7.59869910E+00  7.59869910E+00 -1.51973982E+01  7.59869910E+00
  7.59869910E+00 -1.51973982E+01  7.59869910E+00  7.59869910E+00 -1.51973982E+01
  7.59869910E+00  7.59869910E+00 -1.51973982E+01  7.59869910E+00  7.59869910E+00
 -1.51973982E+01  7.59869910E+00  7.59869910E+00 -1.51973982E+01  7.59869910E+00
  7.59869910E+00 -1.51973982E+01  7.59869910E+00  7.59869910E+00 -1.51973982E+01
  7.59869910E+00  7.59869910E+00 -1.51973982E+01  7.59869910E+00  7.59869910E+00
 -1.51973982E+01  7.59869910E+00  7.59869910E+00 -1.51973982E+01  7.59869910E+00
  7.59869910E+00 -1.51973982E+01  7.59869910E+00  7.59869910E+00 -1.51973982E+01
  7.59869910E+00  7.59869910E+00 -1.51973982E+01  7.59869910E+00  7.59869910E+00
 -1.51973982E+01  7.59869910E+00  7.59869910E+00 -1.51973982E+01  7.59869910E+00
  7.59869910E+00 -1.51973982E+01  7.59869910E+00  7.59869910E+00 -1.51973982E+01
  7.59869910E+00  7.59869910E+00 -1.51973982E+01  7.59869910E+00  7.59869910E+00
 -1.51973982E+01  7.59869910E+00  7.59869910E+00 -1.51973982E+01  7.59869910E+00
  7.59869910E+00 -1.51973982E+01  7.59869910E+00  7.59869910E+00 -1.51973982E+01
  7.59869910E+00  7.59869910E+00 -1.51973982E+01  7.59869910E+00  7.59869910E+00
 -1.51973982E+01  7.59869910E+00  7.59869910E+00 -1.51973982E+01  7.59869910E+00
  7.59869910E+00 -1.51973982E+01  7.59869910E+00  7.59869910E+00 -1.51973982E+01
  7.59869910E+00  7.59869910E+00 -1.51973982E+01  7.59869910E+00  7.59869910E+00
 -1.51973982E+01  7.59869910E+00  7.59869910E+00 -1.51973982E+01  7.59869910E+00
  7.59869910E+00 -1.51973982E+01  7.59869910E+00  7.59869910E+00 -1.51973982E+01
  7.59869910E+00  7.59869910E+00 -1.51973982E+01  7.59869910E+00  7.59869910E+00
 -1.51973982E+01  7.59869910E+00  7.59869910E+00 -1.51973982E+01  7.59869910E+00
  7.59869910E+00 -1.51973982E+01  7.59869910E+00  7.59869910E+00 -1.51973982E+01
  7.59869910E+00  7.59869910E+00 -1.51973982E+01  7.59869910E+00  7.59869910E+00
 -1.51973982E+01  7.59869910E+00  7.59869910E+00 -1.51973982E+01  7.59869910E+00
  7.59869910E+00 -1.51973982E+01  7.59869910E+00  7.59869910E+00 -1.51973982E+01
  7.59869910E+00  7.59869910E+00 -1.51973982E+01  7.59869910E+00  7.59869910E+00
 -1.51973982E+01  7.59869910E+00  7.59869910E+00 -1.51973982E+01  7.59869910E+00
  7.59869910E+00 -1.51973982E+01  7.59869910E+00  7.59869910E+00 -1.51973982E+01
  7.59869910E+00  7.59869910E+00 -1.51973982E+01  7.59869910E+00  7.59869910E+00
 -1.51973982E+01  7.59869910E+00  7.59869910E+00 -1.51973982E+01  7.59869910E+00
  7.59869910E+00 -1.51973982E+01  7.59869910E+00  7.59869910E+00 -1.51973982E+01
  7.59869910E+00  7.59869910E+00 -1.51973982E+01  7.59869910E+00  7.59869910E+00
 -1.51973982E+01  7.59869910E+00  7.59869910E+00 -1.51973982E+01  7.59869910E+00
  7.59869910E+00 -1.51973982E+01  7.59869910E+00  7.59869910E+00 -1.51973982E+01
  7.59869910E+00  7.59869910E+00 -1.51973982E+01  7.59869910E+00  7.59869910E+00
 -1.51973982E+01  7.59869910E+00  7.59869910E+00 -1.51973982E+01  7.59869910E+00
  7.59869910E+00 -1.51973982E+01  7.59869910E+00  7.59869910E+00 -1.51973982E+01
  7.59869910E+00  7.59869910E+00 -1.51973982E+01  7.59869910E+00  7.59869910E+00
 -1.51973982E+01  7.59869910E+00  7.59869910E+00 -1.51973982E+01  7.59869910E+00
  7.59869910E+00 -1.51973982E+01  7.59869910E+00  7.59869910E+00 -1.51973982E+01
  7.59869910E+00  7.59869910E+00 -1.51973982E+01  7.59869910E+00  7.59869910E+00
 -1.51973982E+01  7.59869910E+00  7.59869910E+00 -1.51973982E+01  7.59869910E+00
  7.59869910E+00 -1.51973982E+01  7.59869910E+00  7.59869910E+00 -1.51973982E+01
  7.59869910E+00  7.59869910E+00 -1.51973982E+01  7.59869910E+00  7.59869910E+00
 -1.51973982E+01  7.59869910E+00  7.59869910E+00 -1.51973982E+01  7.59869910E+00
  7.59869910E+00 -1.51973982E+01  7.59869910E+00  7.59869910E+00 -1.51973982E+01
  7.59869910E+00  7.59869910E+00 -1.51973982E+01  7.59869910E+00  7.59869910E+00
 -1.51973982E+01  7.59869910E+00  7.59869910E+00 -1.51973982E+01  7.59869910E+00
  7.59869910E+00 -1.51973982E+01  7.59869910E+00  7.59869910E+00 -1.51973982E+01
  7.59869910E+00  7.59869910E+00 -1.51973982E+01  7.59869910E+00  7.59869910E+00
 -1.51973982E+01  7.59869910E+00  7.59869910E+00 -1.51973982E+01  7.59869910E+00
  7.59869910E+00 -1.51973982E+01  7.59869910E+00  7.59869910E+00 -1.51973982E+01
  7.59869910E+00  7.59869910E+00 -1.51973982E+01  7.59869910E+00  7.59869910E+00
 -1.51973982E+01  7.59869910E+00  7.59869910E+00 -1.51973982E+01  7.59869910E+00
  7.59869910E+00 -1.51973982E+01  7.59869910E+00  7.59869910E+00 -1.51973982E+01
  7.59869910E+00  7.59869910E+00 -1.51973982E+01  7.59869910E+00  7.59869910E+00
 -1.51973982E+01  7.59869910E+00  7.59869910E+00 -1.51973982E+01  7.59869910E+00
  7.59869910E+00 -1.51973982E+01  7.59869910E+00  7.59869910E+00 -1.51973982E+01
  7.59869910E+00  7.59869910E+00 -1.51973982E+01  7.59869910E+00  7.59869910E+00
 -1.51973982E+01  7.59869910E+00  7.59869910E+00 -1.51973982E+01  7.59869910E+00
  7.59869910E+00 -1.51973982E+01  7.59869910E+00  7.59869910E+00 -1.51973982E+01
  7.59869910E+00  7.59869910E+00 -1.51973982E+01  7.59869910E+00  7.59869910E+00
 -1.51973982E+01  7.59869910E+00  7.59869910E+00 -1.51973982E+01  7.59869910E+00
  7.59869910E+00 -1.51973982E+01  7.59869910E+00  7.59869910E+00 -1.51973982E+01
  7.59869910E+00  7.59869910E+00 -1.51973982E+01  7.59869910E+00  7.59869910E+00
 -1.51973982E+01  7.59869910E+00  7.59869910E+00 -1.51973982E+01  7.59869910E+00
  7.59869910E+00 -1.51973982E+01  7.59869910E+00  7.59869910E+00 -1.51973982E+01
  7.59869910E+00  7.59869910E+00 -1.51973982E+01  7.59869910E+00  7.59869910E+00
 -1.51973982E+01  7.59869910E+00  7.59869910E+00 -1.51973982E+01  7.59869910E+00
  7.59869910E+00 -1.51973982E+01  7.59869910E+00  7.59869910E+00 -1.51973982E+01
  7.59869910E+00  7.59869910E+00 -1.51973982E+01  7.59869910E+00  7.59869910E+00
 -1.51973982E+01  7.59869910E+00  7.59869910E+00 -1.51973982E+01  7.59869910E+00
  7.59869910E+00 -1.51973982E+01  7.59869910E+00  7.59869910E+00 -1.51973982E+01
  7.59869910E+00  7.59869910E+00 -1.51973982E+01  7.59869910E+00  7.59869910E+00
 -1.51973982E+01  7.59869910E+00  7.59869910E+00 -1.51973982E+01  7.59869910E+00
  7.59869910E+00 -1.51973982E+01  7.59869910E+00  7.59869910E+00 -1.51973982E+01
  7.59869910E+00  7.59869910E+00 -1.51973982E+01  7.59869910E+00  7.59869910E+00
 -1.51973982E+01  7.59869910E+00  7.59869910E+00 -1.51973982E+01  7.59869910E+00
  7.59869910E+00 -1.51973982E+01  7.59869910E+00  7.59869910E+00 -1.51973982E+01
  7.59869910E+00  7.59869910E+00 -1.51973982E+01  7.59869910E+00  7.59869910E+00
 -1.51973982E+01  7.59869910E+00  7.59869910E+00 -1.51973982E+01  7.59869910E+00
  7.59869910E+00 -1.51973982E+01  7.59869910E+00  7.59869910E+00 -1.51973982E+01
  7.59869910E+00  7.59869910E+00 -1.51973982E+01  7.59869910E+00  7.59869910E+00
 -1.51973982E+01  7.59869910E+00  7.59869910E+00 -1.51973982E+01  7.59869910E+00
  7.59869910E+00 -1.51973982E+01  7.59869910E+00  7.59869910E+00 -1.51973982E+01
  7.59869910E+00  7.59869910E+00 -1.51973982E+01  7.59869910E+00  7.59869910E+00
 -1.51973982E+01  7.59869910E+00  7.59869910E+00 -1.51973982E+01  7.59869910E+00
  7.59869910E+00 -1.51973982E+01  7.59869910E+00  7.59869910E+00 -1.51973982E+01
  7.59869910E+00  7.59869910E+00 -1.51973982E+01  7.59869910E+00  7.59869910E+00
 -1.51973982E+01  7.59869910E+00  7.59869910E+00 -1.51973982E+01  7.59869910E+00
  7.59869910E+00 -1.51973982E+01  7.59869910E+00  7.59869910E+00 -1.51973982E+01
  7.59869910E+00  7.59869910E+00 -1.51973982E+01  7.59869910E+00  7.59869910E+00
 -1.51973982E+01  7.59869910E+00  7.59869910E+00 -1.51973982E+01  7.59869910E+00
  7.59869910E+00 -1.51973982E+01  7.59869910E+00  7.59869910E+00 -1.51973982E+01
  7.59869910E+00  7.59869910E+00 -1.51973982E+01  7.59869910E+00  7.59869910E+00
 -1.51973982E+01  7.59869910E+00  7.59869910E+00 -1.51973982E+01  7.59869910E+00
  7.59869910E+00 -1.51973982E+01  7.59869910E+00  7.59869910E+00 -1.51973982E+01
  7.59869910E+00  7.59869910E+00 -1.51973982E+01  7.59869910E+00  7.59869910E+00
 -1.51973982E+01  7.59869910E+00  7.59869910E+00 -1.51973982E+01  7.59869910E+00
  7.59869910E+00 -1.51973982E+01  7.59869910E+00  7.59869910E+00 -1.51973982E+01
  7.59869910E+00  7.59869910E+00 -1.51973982E+01  7.59869910E+00  7.59869910E+00
 -1.51973982E+01  7.59869910E+00  7.59869910E+00 -1.51973982E+01  7.59869910E+00
  7.59869910E+00 -1.51973982E+01  7.59869910E+00  7.59869910E+00 -1.51973982E+01
  7.59869910E+00  7.59869910E+00 -1.51973982E+01  7.59869910E+00  7.59869910E+00
 -1.51973982E+01  7.59869910E+00  7.59869910E+00 -1.51973982E+01  7.59869910E+00
  7.59869910E+00 -1.51973982E+01  7.59869910E+00  7.59869910E+00 -1.51973982E+01
  7.59869910E+00  7.59869910E+00 -1.51973982E+01  7.59869910E+00  7.59869910E+00
 -1.51973982E+01  7.59869910E+00  7.59869910E+00 -1.51973982E+01  7.59869910E+00
  7.59869910E+00 -1.51973982E+01  7.59869910E+00  7.59869910E+00 -1.51973982E+01
  7.59869910E+00  7.59869910E+00 -1.51973982E+01  7.59869910E+00  7.59869910E+00
 -1.51973982E+01  7.59869910E+00  7.59869910E+00 -1.51973982E+01  7.59869910E+00
  7.59869910E+00 -1.51973982E+01  7.59869910E+00  7.59869910E+00 -1.51973982E+01
  7.59869910E+00  7.59869910E+00 -1.51973982E+01  7.59869910E+00  7.59869910E+00
 -1.51973982E+01  7.59869910E+00  7.59869910E+00 -1.51973982E+01  7.59869910E+00
  7.59869910E+00 -1.51973982E+01  7.59869910E+00  7.59869910E+00 -1.51973982E+01
  7.59869910E+00  7.59869910E+00 -1.51973982E+01  7.59869910E+00  7.59869910E+00
 -1.51973982E+01  7.59869910E+00  7.59869910E+00 -1.51973982E+01  7.59869910E+00
  7.59869910E+00 -1.51973982E+01  7.59869910E+00  7.59869910E+00 -1.51973982E+01
  7.59869910E+00  7.59869910E+00 -1.51973982E+01  7.59869910E+00  7.59869910E+00
 -1.51973982E+01  7.59869910E+00  7.59869910E+00 -1.51973982E+01  7.59869910E+00
  7.59869910E+00 -1.51973982E+01  7.59869910E+00  7.59869910E+00 -1.51973982E+01
  7.59869910E+00  7.59869910E+00 -1.51973982E+01  7.59869910E+00  7.59869910E+00
 -1.51973982E+01  7.59869910E+00  7.59869910E+00 -1.51973982E+01  7.59869910E+00
  7.59869910E+00 -1.51973982E+01  7.59869910E+00  7.59869910E+00 -1.51973982E+01
  7.59869910E+00  7.59869910E+00 -1.51973982E+01  7.59869910E+00  7.59869910E+00
 -1.51973982E+01  7.59869910E+00  7.59869910E+00 -1.51973982E+01  7.59869910E+00
  7.59869910E+00 -1.51973982E+01  7.59869910E+00  7.59869910E+00 -1.51973982E+01
  7.59869910E+00  7.59869910E+00 -1.51973982E+01  7.59869910E+00  7.59869910E+00
 -1.51973982E+01  7.59869910E+00  7.59869910E+00 -1.51973982E+01  7.59869910E+00
  7.59869910E+00 -1.51973982E+01  7.59869910E+00  7.59869910E+00 -1.51973982E+01
  7.59869910E+00  7.59869910E+00 -1.51973982E+01  7.59869910E+00  7.59869910E+00
 -1.51973982E+01  7.59869910E+00  7.59869910E+00 -1.51973982E+01  7.59869910E+00
  7.59869910E+00 -1.51973982E+01  7.59869910E+00  7.59869910E+00 -1.51973982E+01
  7.59869910E+00  7.59869910E+00 -1.51973982E+01  7.59869910E+00  7.59869910E+00
 -1.51973982E+01  7.59869910E+00  7.59869910E+00 -1.51973982E+01  7.59869910E+00
  7.59869910E+00 -1.51973982E+01  7.59869910E+00  7.59869910E+00 -1.51973982E+01
  7.59869910E+00  7.59869910E+00 -1.51973982E+01  7.59869910E+00  7.59869910E+00
 -1.51973982E+01  7.59869910E+00  7.59869910E+00 -1.51973982E+01  7.59869910E+00
  7.59869910E+00 -1.51973982E+01  7.59869910E+00  7.59869910E+00 -1.51973982E+01
  7.59869910E+00  7.59869910E+00 -1.51973982E+01  7.59869910E+00  7.59869910E+00
 -1.51973982E+01  7.59869910E+00  7.59869910E+00 -1.51973982E+01  7.59869910E+00
  7.59869910E+00 -1.51973982E+01  7.59869910E+00  7.59869910E+00 -1.51973982E+01
  7.59869910E+00  7.59869910E+00 -1.51973982E+01  7.59869910E+00  7.59869910E+00
 -1.51973982E+01  7.59869910E+00  7.59869910E+00 -1.51973982E+01  7.59869910E+00
  7.59869910E+00 -1.51973982E+01  7.59869910E+00  7.59869910E+00 -1.51973982E+01
  7.59869910E+00  7.59869910E+00 -1.51973982E+01  7.59869910E+00  7.59869910E+00
 -1.51973982E+01  7.59869910E+00  7.59869910E+00 -1.51973982E+01  7.59869910E+00
  7.59869910E+00 -1.51973982E+01  7.59869910E+00  7.59869910E+00 -1.51973982E+01
  7.59869910E+00  7.59869910E+00 -1.51973982E+01  7.59869910E+00  7.59869910E+00
 -1.51973982E+01  7.59869910E+00  7.59869910E+00 -1.51973982E+01  7.59869910E+00
  7.59869910E+00 -1.51973982E+01  7.59869910E+00  7.59869910E+00 -1.51973982E+01
  7.59869910E+00  7.59869910E+00 -1.51973982E+01  7.59869910E+00  7.59869910E+00
 -1.51973982E+01  7.59869910E+00  7.59869910E+00 -1.51973982E+01  7.59869910E+00
  7.59869910E+00 -1.51973982E+01  7.59869910E+00  7.59869910E+00 -1.51973982E+01
  7.59869910E+00  7.59869910E+00 -1.51973982E+01  7.59869910E+00  7.59869910E+00
 -1.51973982E+01  7.59869910E+00  7.59869910E+00 -1.51973982E+01  7.59869910E+00
  7.59869910E+00 -1.51973982E+01  7.59869910E+00  7.59869910E+00 -1.51973982E+01
  7.59869910E+00  7.59869910E+00 -1.51973982E+01  7.59869910E+00  7.59869910E+00
 -1.51973982E+01  7.59869910E+00  7.59869910E+00 -1.51973982E+01  7.59869910E+00
  7.59869910E+00 -1.51973982E+01  7.59869910E+00  7.59869910E+00 -1.51973982E+01
  7.59869910E+00  7.59869910E+00 -1.51973982E+01  7.59869910E+00  7.59869910E+00
 -1.51973982E+01  7.59869910E+00  7.59869910E+00 -1.51973982E+01  7.59869910E+00
  7.59869910E+00 -1.51973982E+01  7.59869910E+00  7.59869910E+00 -1.51973982E+01
  7.59869910E+00  7.59869910E+00 -1.51973982E+01  7.59869910E+00  7.59869910E+00
 -1.51973982E+01  7.59869910E+00  7.59869910E+00 -1.51973982E+01  7.59869910E+00
  7.59869910E+00 -1.51973982E+01  7.59869910E+00  7.59869910E+00 -1.51973982E+01
  7.59869910E+00  7.59869910E+00 -1.51973982E+01  7.59869910E+00  7.59869910E+00
 -1.51973982E+01  7.59869910E+00  7.59869910E+00 -1.51973982E+01  7.59869910E+00
  7.59869910E+00 -1.51973982E+01  7.59869910E+00  7.59869910E+00 -1.51973982E+01
  7.59869910E+00  7.59869910E+00 -1.51973982E+01  7.59869910E+00  7.59869910E+00
 -1.51973982E+01  7.59869910E+00  7.59869910E+00 -1.51973982E+01  7.59869910E+00
  7.59869910E+00 -1.51973982E+01  7.59869910E+00  7.59869910E+00 -1.51973982E+01
  7.59869910E+00  7.59869910E+00 -1.51973982E+01  7.59869910E+00  7.59869910E+00
 -1.51973982E+01  7.59869910E+00  7.59869910E+00 -1.51973982E+01  7.59869910E+00
  7.59869910E+00 -1.51973982E+01  7.59869910E+00  7.59869910E+00 -1.51973982E+01
  7.59869910E+00  7.59869910E+00 -1.51973982E+01  7.59869910E+00  7.59869910E+00
 -1.51973982E+01  7.59869910E+00  7.59869910E+00 -1.51973982E+01  7.59869910E+00
  7.59869910E+00 -1.51973982E+01  7.59869910E+00  7.59869910E+00 -1.51973982E+01
  7.59869910E+00  7.59869910E+00 -1.51973982E+01  7.59869910E+00  7.59869910E+00
 -1.51973982E+01  7.59869910E+00  7.59869910E+00 -1.51973982E+01  7.59869910E+00
  7.59869910E+00 -1.51973982E+01  7.59869910E+00  7.59869910E+00 -1.51973982E+01
  7.59869910E+00  7.59869910E+00 -1.51973982E+01  7.59869910E+00  7.59869910E+00
 -1.51973982E+01  7.59869910E+00  7.59869910E+00 -1.51973982E+01  7.59869910E+00
  7.59869910E+00 -1.51973982E+01  7.59869910E+00  7.59869910E+00 -1.51973982E+01
  7.59869910E+00  7.59869910E+00 -1.51973982E+01  7.59869910E+00  7.59869910E+00
 -1.51973982E+01  7.59869910E+00  7.59869910E+00 -1.51973982E+01  7.59869910E+00
  7.59869910E+00 -1.51973982E+01  7.59869910E+00  7.59869910E+00 -1.51973982E+01
  7.59869910E+00  7.59869910E+00 -1.51973982E+01  7.59869910E+00  7.59869910E+00
 -1.51973982E+01  7.59869910E+00  7.59869910E+00 -1.51973982E+01  7.59869910E+00
  7.59869910E+00 -1.51973982E+01  7.59869910E+00  7.59869910E+00 -1.51973982E+01
  7.59869910E+00  7.59869910E+00 -1.51973982E+01  7.59869910E+00  7.59869910E+00
 -1.51973982E+01  7.59869910E+00  7.59869910E+00 -1.51973982E+01  7.59869910E+00
  7.59869910E+00 -1.51973982E+01  7.59869910E+00  7.59869910E+00 -1.51973982E+01
  7.59869910E+00  7.59869910E+00 -1.51973982E+01  7.59869910E+00  7.59869910E+00
 -1.51973982E+01  7.59869910E+00  7.59869910E+00 -1.51973982E+01  7.59869910E+00
  7.59869910E+00 -1.51973982E+01  7.59869910E+00  7.59869910E+00 -1.51973982E+01
  7.59869910E+00  7.59869910E+00 -1.51973982E+01  7.59869910E+00  7.59869910E+00
 -1.51973982E+01  7.59869910E+00  7.59869910E+00 -1.51973982E+01  7.59869910E+00
  7.59869910E+00 -1.51973982E+01  7.59869910E+00  7.59869910E+00 -1.51973982E+01
  7.59869910E+00  7.59869910E+00 -1.51973982E+01  7.59869910E+00  7.59869910E+00
 -1.51973982E+01  7.59869910E+00  7.59869910E+00 -1.51973982E+01  7.59869910E+00
  7.59869910E+00 -1.51973982E+01  7.59869910E+00  7.59869910E+00 -1.51973982E+01
  7.59869910E+00  7.59869910E+00 -1.51973982E+01  7.59869910E+00  7.59869910E+00
 -1.51973982E+01  7.59869910E+00  7.59869910E+00 -1.51973982E+01  7.59869910E+00
  7.59869910E+00 -1.51973982E+01  7.59869910E+00  7.59869910E+00 -1.51973982E+01
  7.59869910E+00  7.59869910E+00 -1.51973982E+01  7.59869910E+00  7.59869910E+00
 -1.51973982E+01  7.59869910E+00  7.59869910E+00 -1.51973982E+01  7.59869910E+00
  7.59869910E+00 -1.51973982E+01  7.59869910E+00  7.59869910E+00 -1.51973982E+01
  7.59869910E+00  7.59869910E+00 -1.51973982E+01  7.59869910E+00  7.59869910E+00
 -1.51973982E+01  7.59869910E+00  7.59869910E+00 -1.51973982E+01  7.59869910E+00
  7.59869910E+00 -1.51973982E+01  7.59869910E+00  7.59869910E+00 -1.51973982E+01
  7.59869910E+00  7.59869910E+00 -1.51973982E+01  7.59869910E+00  7.59869910E+00
 -1.51973982E+01  7.59869910E+00  7.59869910E+00 -1.51973982E+01  7.59869910E+00
  7.59869910E+00 -1.51973982E+01  7.59869910E+00  7.59869910E+00 -1.51973982E+01
  7.59869910E+00  7.59869910E+00 -1.51973982E+01  7.59869910E+00  7.59869910E+00
 -1.51973982E+01  7.59869910E+00  7.59869910E+00 -1.51973982E+01  7.59869910E+00
  7.59869910E+00 -1.51973982E+01  7.59869910E+00  7.59869910E+00 -1.51973982E+01
  7.59869910E+00  7.59869910E+00 -1.51973982E+01  7.59869910E+00  7.59869910E+00
 -1.51973982E+01  7.59869910E+00  7.59869910E+00 -1.51973982E+01  7.59869910E+00
  7.59869910E+00 -1.51973982E+01  7.59869910E+00  7.59869910E+00 -1.51973982E+01
  7.59869910E+00  7.59869910E+00 -1.51973982E+01  7.59869910E+00  7.59869910E+00
 -1.51973982E+01  7.59869910E+00  7.59869910E+00 -1.51973982E+01  7.59869910E+00
  7.59869910E+00 -1.51973982E+01  7.59869910E+00  7.59869910E+00 -1.51973982E+01
  7.59869910E+00  7.59869910E+00 -1.51973982E+01  7.59869910E+00  7.59869910E+00
 -1.51973982E+01  7.59869910E+00  7.59869910E+00 -1.51973982E+01  7.59869910E+00
  7.59869910E+00 -1.51973982E+01  7.59869910E+00  7.59869910E+00 -1.51973982E+01
  7.59869910E+00  7.59869910E+00 -1.51973982E+01  7.59869910E+00  7.59869910E+00
 -1.51973982E+01  7.59869910E+00  7.59869910E+00 -1.51973982E+01  7.59869910E+00
  7.59869910E+00 -1.51973982E+01  7.59869910E+00  7.59869910E+00 -1.51973982E+01
  7.59869910E+00  7.59869910E+00 -1.51973982E+01  7.59869910E+00  7.59869910E+00
 -1.51973982E+01  7.59869910E+00  7.59869910E+00 -1.51973982E+01  7.59869910E+00
  7.59869910E+00 -1.51973982E+01  7.59869910E+00  7.59869910E+00 -1.51973982E+01
  7.59869910E+00  7.59869910E+00 -1.51973982E+01  7.59869910E+00  7.59869910E+00
 -1.51973982E+01  7.59869910E+00  7.59869910E+00 -1.51973982E+01  7.59869910E+00
  7.59869910E+00 -1.51973982E+01  7.59869910E+00  7.59869910E+00 -1.51973982E+01
  7.59869910E+00  7.59869910E+00 -1.51973982E+01  7.59869910E+00  7.59869910E+00
 -1.51973982E+01  7.59869910E+00  7.59869910E+00 -1.51973982E+01  7.59869910E+00
  7.59869910E+00 -1.51973982E+01  7.59869910E+00  7.59869910E+00 -1.51973982E+01
  7.59869910E+00  7.59869910E+00 -1.51973982E+01  7.59869910E+00  7.59869910E+00
 -1.51973982E+01  7.59869910E+00  7.59869910E+00 -1.51973982E+01  7.59869910E+00
  7.59869910E+00 -1.51973982E+01  7.59869910E+00  7.59869910E+00 -1.51973982E+01
  7.59869910E+00  7.59869910E+00 -1.51973982E+01  7.59869910E+00  7.59869910E+00
 -1.51973982E+01  7.59869910E+00  7.59869910E+00 -1.51973982E+01  7.59869910E+00
  7.59869910E+00 -1.51973982E+01  7.59869910E+00  7.59869910E+00 -1.51973982E+01
  7.59869910E+00  7.59869910E+00 -1.51973982E+01  7.59869910E+00  7.59869910E+00
 -1.51973982E+01  7.59869910E+00  7.59869910E+00 -1.51973982E+01  7.59869910E+00
  7.59869910E+00 -1.51973982E+01  7.59869910E+00  7.59869910E+00 -1.51973982E+01
  7.59869910E+00  7.59869910E+00 -1.51973982E+01  7.59869910E+00  7.59869910E+00
 -1.51973982E+01  7.59869910E+00  7.59869910E+00 -1.51973982E+01  7.59869910E+00
  7.59869910E+00 -1.51973982E+01  7.59869910E+00  7.59869910E+00 -1.51973982E+01
  7.59869910E+00  7.59869910E+00 -1.51973982E+01  7.59869910E+00  7.59869910E+00
 -1.51973982E+01  7.59869910E+00  7.59869910E+00 -1.51973982E+01  7.59869910E+00
  7.59869910E+00 -1.51973982E+01  7.59869910E+00  7.59869910E+00 -1.51973982E+01
  7.59869910E+00  7.59869910E+00 -1.51973982E+01  7.59869910E+00  7.59869910E+00
 -1.51973982E+01  7.59869910E+00  7.59869910E+00 -1.51973982E+01  7.59869910E+00
  7.59869910E+00 -1.51973982E+01  7.59869910E+00  7.59869910E+00 -1.51973982E+01
  7.59869910E+00  7.59869910E+00 -1.51973982E+01  7.59869910E+00  7.59869910E+00
 -1.51973982E+01  7.59869910E+00  7.59869910E+00 -1.51973982E+01  7.59869910E+00
  7.59869910E+00 -1.51973982E+01  7.59869910E+00  7.59869910E+00 -1.51973982E+01
  7.59869910E+00  7.59869910E+00 -1.51973982E+01  7.59869910E+00  7.59869910E+00
 -1.51973982E+01  7.59869910E+00  7.59869910E+00 -1.51973982E+01  7.59869910E+00
  7.59869910E+00 -1.51973982E+01  7.59869910E+00  7.59869910E+00 -1.51973982E+01
  7.59869910E+00  7.59869910E+00 -1.51973982E+01  7.59869910E+00  7.59869910E+00
 -1.51973982E+01  7.59869910E+00  7.59869910E+00 -1.51973982E+01  7.59869910E+00
  7.59869910E+00 -1.51973982E+01  7.59869910E+00  7.59869910E+00 -1.51973982E+01
  7.59869910E+00  7.59869910E+00 -1.51973982E+01  7.59869910E+00  7.59869910E+00
 -1.51973982E+01  7.59869910E+00  7.59869910E+00 -1.51973982E+01  7.59869910E+00
  7.59869910E+00 -1.51973982E+01  7.59869910E+00  7.59869910E+00 -1.51973982E+01
  7.59869910E+00  7.59869910E+00 -1.51973982E+01  7.59869910E+00  7.59869910E+00
 -1.51973982E+01  7.59869910E+00  7.59869910E+00 -1.51973982E+01  7.59869910E+00
  7.59869910E+00 -1.51973982E+01  7.59869910E+00  7.59869910E+00 -1.51973982E+01
  7.59869910E+00  7.59869910E+00 -1.51973982E+01  7.59869910E+00  7.59869910E+00
 -1.51973982E+01  7.59869910E+00  7.59869910E+00 -1.51973982E+01  7.59869910E+00
  7.59869910E+00 -1.51973982E+01  7.59869910E+00  7.59869910E+00 -1.51973982E+01
  7.59869910E+00  7.59869910E+00 -1.51973982E+01  7.59869910E+00  7.59869910E+00
 -1.51973982E+01  7.59869910E+00  7.59869910E+00 -1.51973982E+01  7.59869910E+00
  7.59869910E+00 -1.51973982E+01  7.59869910E+00  7.59869910E+00 -1.51973982E+01
  7.59869910E+00  7.59869910E+00 -1.51973982E+01  7.59869910E+00  7.59869910E+00
 -1.51973982E+01  7.59869910E+00  7.59869910E+00 -1.51973982E+01  7.59869910E+00
  7.59869910E+00 -1.51973982E+01  7.59869910E+00  7.59869910E+00 -1.51973982E+01
  7.59869910E+00  7.59869910E+00 -1.51973982E+01  7.59869910E+00  7.59869910E+00
 -1.51973982E+01  7.59869910E+00  7.59869910E+00 -1.51973982E+01  7.59869910E+00
  7.59869910E+00 -1.51973982E+01  7.59869910E+00  7.59869910E+00 -1.51973982E+01
  7.59869910E+00  7.59869910E+00 -1.51973982E+01  7.59869910E+00  7.59869910E+00
 -1.51973982E+01  7.59869910E+00  7.59869910E+00 -1.51973982E+01  7.59869910E+00
  7.59869910E+00 -1.51973982E+01  7.59869910E+00  7.59869910E+00 -1.51973982E+01
  7.59869910E+00  7.59869910E+00 -1.51973982E+01  7.59869910E+00  7.59869910E+00
 -1.51973982E+01  7.59869910E+00  7.59869910E+00 -1.51973982E+01  7.59869910E+00
  7.59869910E+00 -1.51973982E+01  7.59869910E+00  7.59869910E+00 -1.51973982E+01
  7.59869910E+00  7.59869910E+00 -1.51973982E+01  7.59869910E+00  7.59869910E+00
 -1.51973982E+01  7.59869910E+00  7.59869910E+00 -1.51973982E+01  7.59869910E+00
  7.59869910E+00 -1.51973982E+01  7.59869910E+00  7.59869910E+00 -1.51973982E+01
  7.59869910E+00  7.59869910E+00 -1.51973982E+01  7.59869910E+00  7.59869910E+00
 -1.51973982E+01  7.59869910E+00  7.59869910E+00 -1.51973982E+01  7.59869910E+00
  7.59869910E+00 -1.51973982E+01  7.59869910E+00  7.59869910E+00 -1.51973982E+01
  7.59869910E+00  7.59869910E+00 -1.51973982E+01  7.59869910E+00  7.59869910E+00
 -1.51973982E+01  7.59869910E+00  7.59869910E+00 -1.51973982E+01  7.59869910E+00
  7.59869910E+00 -1.51973982E+01  7.59869910E+00  7.59869910E+00 -1.51973982E+01
  7.59869910E+00  7.59869910E+00 -1.51973982E+01  7.59869910E+00  7.59869910E+00
 -1.51973982E+01  7.59869910E+00  7.59869910E+00 -1.51973982E+01  7.59869910E+00
  7.59869910E+00 -1.51973982E+01  7.59869910E+00  7.59869910E+00 -1.51973982E+01
  7.59869910E+00  7.59869910E+00 -1.51973982E+01  7.59869910E+00  7.59869910E+00
 -1.51973982E+01  7.59869910E+00  7.59869910E+00 -1.51973982E+01  7.59869910E+00
  7.59869910E+00 -1.51973982E+01  7.59869910E+00  7.59869910E+00 -1.51973982E+01
  7.59869910E+00  7.59869910E+00 -1.51973982E+01  7.59869910E+00  7.59869910E+00
 -1.51973982E+01  7.59869910E+00  7.59869910E+00 -1.51973982E+01  7.59869910E+00
  7.59869910E+00 -1.51973982E+01  7.59869910E+00  7.59869910E+00 -1.51973982E+01
  7.59869910E+00  7.59869910E+00 -1.51973982E+01  7.59869910E+00  7.59869910E+00
 -1.51973982E+01  7.59869910E+00  7.59869910E+00 -1.51973982E+01  7.59869910E+00
  7.59869910E+00 -1.51973982E+01  7.59869910E+00  7.59869910E+00 -1.51973982E+01
  7.59869910E+00  7.59869910E+00 -1.51973982E+01  7.59869910E+00  7.59869910E+00
 -1.51973982E+01  7.59869910E+00  7.59869910E+00 -1.51973982E+01  7.59869910E+00
  7.59869910E+00 -1.51973982E+01  7.59869910E+00  7.59869910E+00 -1.51973982E+01
  7.59869910E+00  7.59869910E+00 -1.51973982E+01  7.59869910E+00  7.59869910E+00
 -1.51973982E+01  7.59869910E+00  7.59869910E+00 -1.51973982E+01  7.59869910E+00
  7.59869910E+00 -1.51973982E+01  7.59869910E+00  7.59869910E+00 -1.51973982E+01
  7.59869910E+00  7.59869910E+00 -1.51973982E+01  7.59869910E+00  7.59869910E+00
 -1.51973982E+01  7.59869910E+00  7.59869910E+00 -1.51973982E+01  7.59869910E+00
  7.59869910E+00 -1.51973982E+01  7.59869910E+00  7.59869910E+00 -1.51973982E+01
  7.59869910E+00  7.59869910E+00 -1.51973982E+01  7.59869910E+00  7.59869910E+00
 -1.51973982E+01  7.59869910E+00  7.59869910E+00 -1.51973982E+01  7.59869910E+00
  7.59869910E+00 -1.51973982E+01  7.59869910E+00  7.59869910E+00 -1.51973982E+01
  7.59869910E+00  7.59869910E+00 -1.51973982E+01  7.59869910E+00  7.59869910E+00
 -1.51973982E+01  7.59869910E+00  7.59869910E+00 -1.51973982E+01  7.59869910E+00
  7.59869910E+00 -1.51973982E+01  7.59869910E+00  7.59869910E+00 -1.51973982E+01
  7.59869910E+00  7.59869910E+00 -1.51973982E+01  7.59869910E+00  7.59869910E+00
 -1.51973982E+01  7.59869910E+00  7.59869910E+00 -1.51973982E+01  7.59869910E+00
  7.59869910E+00 -1.51973982E+01  7.59869910E+00  7.59869910E+00 -1.51973982E+01
  7.59869910E+00  7.59869910E+00 -1.51973982E+01  7.59869910E+00  7.59869910E+00
 -1.51973982E+01  7.59869910E+00  7.59869910E+00 -1.51973982E+01  7.59869910E+00
  7.59869910E+00 -1.51973982E+01  7.59869910E+00  7.59869910E+00 -1.51973982E+01
  7.59869910E+00  7.59869910E+00 -1.51973982E+01  7.59869910E+00  7.59869910E+00
 -1.51973982E+01  7.59869910E+00  7.59869910E+00 -1.51973982E+01  7.59869910E+00
  7.59869910E+00 -1.51973982E+01  7.59869910E+00  7.59869910E+00 -1.51973982E+01
  7.59869910E+00  7.59869910E+00 -1.51973982E+01  7.59869910E+00  7.59869910E+00
 -1.51973982E+01  7.59869910E+00  7.59869910E+00 -1.51973982E+01  7.59869910E+00
  7.59869910E+00 -1.51973982E+01  7.59869910E+00  7.59869910E+00 -1.51973982E+01
  7.59869910E+00  7.59869910E+00 -1.51973982E+01  7.59869910E+00  7.59869910E+00
 -1.51973982E+01  7.59869910E+00  7.59869910E+00 -1.51973982E+01  7.59869910E+00
  7.59869910E+00 -1.51973982E+01  7.59869910E+00  7.59869910E+00 -1.51973982E+01
  7.59869910E+00  7.59869910E+00 -1.51973982E+01  7.59869910E+00  7.59869910E+00
 -1.51973982E+01  7.59869910E+00  7.59869910E+00 -1.51973982E+01  7.59869910E+00
  7.59869910E+00 -1.51973982E+01  7.59869910E+00  7.59869910E+00 -1.51973982E+01
  7.59869910E+00  7.59869910E+00 -1.51973982E+01  7.59869910E+00  7.59869910E+00
 -1.51973982E+01  7.59869910E+00  7.59869910E+00 -1.51973982E+01  7.59869910E+00
  7.59869910E+00 -1.51973982E+01  7.59869910E+00  7.59869910E+00 -1.51973982E+01
  7.59869910E+00  7.59869910E+00 -1.51973982E+01  7.59869910E+00  7.59869910E+00
 -1.51973982E+01  7.59869910E+00  7.59869910E+00 -1.51973982E+01  7.59869910E+00
  7.59869910E+00 -1.51973982E+01  7.59869910E+00  7.59869910E+00 -1.51973982E+01
  7.59869910E+00  7.59869910E+00 -1.51973982E+01  7.59869910E+00  7.59869910E+00
 -1.51973982E+01  7.59869910E+00  7.59869910E+00 -1.51973982E+01  7.59869910E+00
  7.59869910E+00 -1.51973982E+01  7.59869910E+00  7.59869910E+00 -1.51973982E+01
  7.59869910E+00  7.59869910E+00 -1.51973982E+01  7.59869910E+00  7.59869910E+00
 -1.51973982E+01  7.59869910E+00  7.59869910E+00 -1.51973982E+01  7.59869910E+00
  7.59869910E+00 -1.51973982E+01  7.59869910E+00  7.59869910E+00 -1.51973982E+01
  7.59869910E+00  7.59869910E+00 -1.51973982E+01  7.59869910E+00  7.59869910E+00
 -1.51973982E+01  7.59869910E+00  7.59869910E+00 -1.51973982E+01  7.59869910E+00
  7.59869910E+00 -1.51973982E+01  7.59869910E+00  7.59869910E+00 -1.51973982E+01
  7.59869910E+00  7.59869910E+00 -1.51973982E+01  7.59869910E+00  7.59869910E+00
 -1.51973982E+01  7.59869910E+00  7.59869910E+00 -1.51973982E+01  7.59869910E+00
  7.59869910E+00 -1.51973982E+01  7.59869910E+00  7.59869910E+00 -1.51973982E+01
  7.59869910E+00  7.59869910E+00 -1.51973982E+01  7.59869910E+00  7.59869910E+00
 -1.51973982E+01  7.59869910E+00  7.59869910E+00 -1.51973982E+01  7.59869910E+00
  7.59869910E+00 -1.51973982E+01  7.59869910E+00  7.59869910E+00 -1.51973982E+01
  7.59869910E+00  7.59869910E+00 -1.51973982E+01  7.59869910E+00  7.59869910E+00
 -1.51973982E+01  7.59869910E+00  7.59869910E+00 -1.51973982E+01  7.59869910E+00
  7.59869910E+00 -1.51973982E+01  7.59869910E+00  7.59869910E+00 -1.51973982E+01
  7.59869910E+00  7.59869910E+00 -1.51973982E+01  7.59869910E+00  7.59869910E+00
 -1.51973982E+01  7.59869910E+00  7.59869910E+00 -1.51973982E+01  7.59869910E+00
  7.59869910E+00 -1.51973982E+01  7.59869910E+00  7.59869910E+00 -1.51973982E+01
  7.59869910E+00  7.59869910E+00 -1.51973982E+01  7.59869910E+00  7.59869910E+00
 -1.51973982E+01  7.59869910E+00  7.59869910E+00 -1.51973982E+01  7.59869910E+00
  7.59869910E+00 -1.51973982E+01  7.59869910E+00  7.59869910E+00 -1.51973982E+01
  7.59869910E+00  7.59869910E+00 -1.51973982E+01  7.59869910E+00  7.59869910E+00
 -1.51973982E+01  7.59869910E+00  7.59869910E+00 -1.51973982E+01  7.59869910E+00
  7.59869910E+00 -1.51973982E+01  7.59869910E+00  7.59869910E+00 -1.51973982E+01
  7.59869910E+00  7.59869910E+00 -1.51973982E+01  7.59869910E+00  7.59869910E+00
 -1.51973982E+01  7.59869910E+00  7.59869910E+00 -1.51973982E+01  7.59869910E+00
  7.59869910E+00 -1.51973982E+01  7.59869910E+00  7.59869910E+00 -1.51973982E+01
  7.59869910E+00  7.59869910E+00 -1.51973982E+01  7.59869910E+00  7.59869910E+00
 -1.51973982E+01  7.59869910E+00  7.59869910E+00 -1.51973982E+01  7.59869910E+00
  7.59869910E+00 -1.51973982E+01  7.59869910E+00  7.59869910E+00 -1.51973982E+01
  7.59869910E+00  7.59869910E+00 -1.51973982E+01  7.59869910E+00  7.59869910E+00
 -1.51973982E+01  7.59869910E+00  7.59869910E+00 -1.51973982E+01  7.59869910E+00
  7.59869910E+00 -1.51973982E+01  7.59869910E+00  7.59869910E+00 -1.51973982E+01
  7.59869910E+00  7.59869910E+00 -1.51973982E+01  7.59869910E+00  7.59869910E+00
 -1.51973982E+01  7.59869910E+00  7.59869910E+00 -1.51973982E+01  7.59869910E+00
  7.59869910E+00 -1.51973982E+01  7.59869910E+00  7.59869910E+00 -1.51973982E+01
  7.59869910E+00  7.59869910E+00 -1.51973982E+01  7.59869910E+00  7.59869910E+00
 -1.51973982E+01  7.59869910E+00  7.59869910E+00 -1.51973982E+01  7.59869910E+00
  7.59869910E+00 -1.51973982E+01  7.59869910E+00  7.59869910E+00 -1.51973982E+01
  7.59869910E+00  7.59869910E+00 -1.51973982E+01  7.59869910E+00  7.59869910E+00
 -1.51973982E+01  7.59869910E+00  7.59869910E+00 -1.51973982E+01  7.59869910E+00
  7.59869910E+00 -1.51973982E+01  7.59869910E+00  7.59869910E+00 -1.51973982E+01
  7.59869910E+00  7.59869910E+00 -1.51973982E+01  7.59869910E+00  7.59869910E+00
 -1.51973982E+01  7.59869910E+00  7.59869910E+00 -1.51973982E+01  7.59869910E+00
  7.59869910E+00 -1.51973982E+01  7.59869910E+00  7.59869910E+00 -1.51973982E+01
  7.59869910E+00  7.59869910E+00 -1.51973982E+01  7.59869910E+00  7.59869910E+00
 -1.51973982E+01  7.59869910E+00  7.59869910E+00 -1.51973982E+01  7.59869910E+00
  7.59869910E+00 -1.51973982E+01  7.59869910E+00  7.59869910E+00 -1.51973982E+01
  7.59869910E+00  7.59869910E+00 -1.51973982E+01  7.59869910E+00  7.59869910E+00
 -1.51973982E+01  7.59869910E+00  7.59869910E+00 -1.51973982E+01  7.59869910E+00
  7.59869910E+00 -1.51973982E+01  7.59869910E+00  7.59869910E+00 -1.51973982E+01
  7.59869910E+00  7.59869910E+00 -1.51973982E+01  7.59869910E+00  7.59869910E+00
 -1.51973982E+01  7.59869910E+00  7.59869910E+00 -1.51973982E+01  7.59869910E+00
  7.59869910E+00 -1.51973982E+01  7.59869910E+00  7.59869910E+00 -1.51973982E+01
  7.59869910E+00  7.59869910E+00 -1.51973982E+01  7.59869910E+00  7.59869910E+00
 -1.51973982E+01  7.59869910E+00  7.59869910E+00 -1.51973982E+01  7.59869910E+00
  7.59869910E+00 -1.51973982E+01  7.59869910E+00  7.59869910E+00 -1.51973982E+01
  7.59869910E+00  7.59869910E+00 -1.51973982E+01  7.59869910E+00  7.59869910E+00
 -1.51973982E+01  7.59869910E+00  7.59869910E+00 -1.51973982E+01  7.59869910E+00
  7.59869910E+00 -1.51973982E+01  7.59869910E+00  7.59869910E+00 -1.51973982E+01
  7.59869910E+00  7.59869910E+00 -1.51973982E+01  7.59869910E+00  7.59869910E+00
 -1.51973982E+01  7.59869910E+00  7.59869910E+00 -1.51973982E+01  7.59869910E+00
  7.59869910E+00 -1.51973982E+01  7.59869910E+00  7.59869910E+00 -1.51973982E+01
  7.59869910E+00  7.59869910E+00 -1.51973982E+01  7.59869910E+00  7.59869910E+00
 -1.51973982E+01  7.59869910E+00  7.59869910E+00 -1.51973982E+01  7.59869910E+00
  7.59869910E+00 -1.51973982E+01  7.59869910E+00  7.59869910E+00 -1.51973982E+01
  7.59869910E+00  7.59869910E+00 -1.51973982E+01  7.59869910E+00  7.59869910E+00
 -1.51973982E+01  7.59869910E+00  7.59869910E+00 -1.51973982E+01  7.59869910E+00
  7.59869910E+00 -1.51973982E+01  7.59869910E+00  7.59869910E+00 -1.51973982E+01
  7.59869910E+00  7.59869910E+00 -1.51973982E+01  7.59869910E+00  7.59869910E+00
 -1.51973982E+01  7.59869910E+00  7.59869910E+00 -1.51973982E+01  7.59869910E+00
  7.59869910E+00 -1.51973982E+01  7.59869910E+00  7.59869910E+00 -1.51973982E+01
  7.59869910E+00  7.59869910E+00 -1.51973982E+01  7.59869910E+00  7.59869910E+00
 -1.51973982E+01  7.59869910E+00  7.59869910E+00 -1.51973982E+01  7.59869910E+00
  7.59869910E+00 -1.51973982E+01  7.59869910E+00  7.59869910E+00 -1.51973982E+01
  7.59869910E+00  7.59869910E+00 -1.51973982E+01  7.59869910E+00  7.59869910E+00
 -1.51973982E+01  7.59869910E+00  7.59869910E+00 -1.51973982E+01  7.59869910E+00
  7.59869910E+00 -1.51973982E+01  7.59869910E+00  7.59869910E+00 -1.51973982E+01
  7.59869910E+00  7.59869910E+00 -1.51973982E+01  7.59869910E+00  7.59869910E+00
 -1.51973982E+01  7.59869910E+00  7.59869910E+00 -1.51973982E+01  7.59869910E+00
  7.59869910E+00 -1.51973982E+01  7.59869910E+00  7.59869910E+00 -1.51973982E+01
  7.59869910E+00  7.59869910E+00 -1.51973982E+01  7.59869910E+00  7.59869910E+00
 -1.51973982E+01  7.59869910E+00  7.59869910E+00 -1.51973982E+01  7.59869910E+00
  7.59869910E+00 -1.51973982E+01  7.59869910E+00  7.59869910E+00 -1.51973982E+01
  7.59869910E+00  7.59869910E+00 -1.51973982E+01  7.59869910E+00  7.59869910E+00
 -1.51973982E+01  7.59869910E+00  7.59869910E+00 -1.51973982E+01  7.59869910E+00
  7.59869910E+00 -1.51973982E+01  7.59869910E+00  7.59869910E+00 -1.51973982E+01
  7.59869910E+00  7.59869910E+00 -1.51973982E+01  7.59869910E+00  7.59869910E+00
 -1.51973982E+01  7.59869910E+00  7.59869910E+00 -1.51973982E+01  7.59869910E+00
  7.59869910E+00 -1.51973982E+01  7.59869910E+00  7.59869910E+00 -1.51973982E+01
  7.59869910E+00  7.59869910E+00 -1.51973982E+01  7.59869910E+00  7.59869910E+00
 -1.51973982E+01  7.59869910E+00  7.59869910E+00 -1.51973982E+01  7.59869910E+00
  7.59869910E+00 -1.51973982E+01  7.59869910E+00  7.59869910E+00 -1.51973982E+01
  7.59869910E+00  7.59869910E+00 -1.51973982E+01  7.59869910E+00  7.59869910E+00
 -1.51973982E+01  7.59869910E+00  7.59869910E+00 -1.51973982E+01  7.59869910E+00
  7.59869910E+00 -1.51973982E+01  7.59869910E+00  7.59869910E+00 -1.51973982E+01
  7.59869910E+00  7.59869910E+00 -1.51973982E+01  7.59869910E+00  7.59869910E+00
 -1.51973982E+01  7.59869910E+00  7.59869910E+00 -1.51973982E+01  7.59869910E+00
  7.59869910E+00 -1.51973982E+01  7.59869910E+00  7.59869910E+00 -1.51973982E+01
  7.59869910E+00  7.59869910E+00 -1.51973982E+01  7.59869910E+00  7.59869910E+00
 -1.51973982E+01  7.59869910E+00  7.59869910E+00 -1.51973982E+01  7.59869910E+00
  7.59869910E+00 -1.51973982E+01  7.59869910E+00  7.59869910E+00 -1.51973982E+01
  7.59869910E+00  7.59869910E+00 -1.51973982E+01  7.59869910E+00  7.59869910E+00
 -1.51973982E+01  7.59869910E+00  7.59869910E+00 -1.51973982E+01  7.59869910E+00
  7.59869910E+00 -1.51973982E+01  7.59869910E+00  7.59869910E+00 -1.51973982E+01
  7.59869910E+00  7.59869910E+00 -1.51973982E+01  7.59869910E+00  7.59869910E+00
 -1.51973982E+01  7.59869910E+00  7.59869910E+00 -1.51973982E+01  7.59869910E+00
  7.59869910E+00 -1.51973982E+01  7.59869910E+00  7.59869910E+00 -1.51973982E+01
  7.59869910E+00  7.59869910E+00 -1.51973982E+01  7.59869910E+00  7.59869910E+00
 -1.51973982E+01  7.59869910E+00  7.59869910E+00 -1.51973982E+01  7.59869910E+00
  7.59869910E+00 -1.51973982E+01  7.59869910E+00  7.59869910E+00 -1.51973982E+01
  7.59869910E+00  7.59869910E+00 -1.51973982E+01  7.59869910E+00  7.59869910E+00
 -1.51973982E+01  7.59869910E+00  7.59869910E+00 -1.51973982E+01  7.59869910E+00
  7.59869910E+00 -1.51973982E+01  7.59869910E+00  7.59869910E+00 -1.51973982E+01
  7.59869910E+00  7.59869910E+00 -1.51973982E+01  7.59869910E+00  7.59869910E+00
 -1.51973982E+01  7.59869910E+00  7.59869910E+00 -1.51973982E+01  7.59869910E+00
  7.59869910E+00 -1.51973982E+01  7.59869910E+00  7.59869910E+00 -1.51973982E+01
  7.59869910E+00  7.59869910E+00 -1.51973982E+01  7.59869910E+00  7.59869910E+00
 -1.51973982E+01  7.59869910E+00  7.59869910E+00 -1.51973982E+01  7.59869910E+00
  7.59869910E+00 -1.51973982E+01  7.59869910E+00  7.59869910E+00 -1.51973982E+01
  7.59869910E+00  7.59869910E+00 -1.51973982E+01  7.59869910E+00  7.59869910E+00
 -1.51973982E+01  7.59869910E+00  7.59869910E+00 -1.51973982E+01  7.59869910E+00
  7.59869910E+00 -1.51973982E+01  7.59869910E+00  7.59869910E+00 -1.51973982E+01
  7.59869910E+00  7.59869910E+00 -1.51973982E+01  7.59869910E+00  7.59869910E+00
 -1.51973982E+01  7.59869910E+00  7.59869910E+00 -1.51973982E+01  7.59869910E+00
  7.59869910E+00 -1.51973982E+01  7.59869910E+00  7.59869910E+00 -1.51973982E+01
  7.59869910E+00  7.59869910E+00 -1.51973982E+01  7.59869910E+00  7.59869910E+00
 -1.51973982E+01  7.59869910E+00  7.59869910E+00 -1.51973982E+01  7.59869910E+00
  7.59869910E+00 -1.51973982E+01  7.59869910E+00  7.59869910E+00 -1.51973982E+01
  7.59869910E+00  7.59869910E+00 -1.51973982E+01  7.59869910E+00  7.59869910E+00
 -1.51973982E+01  7.59869910E+00  7.59869910E+00 -1.51973982E+01  7.59869910E+00
  7.59869910E+00 -1.51973982E+01  7.59869910E+00  7.59869910E+00 -1.51973982E+01
  7.59869910E+00  7.59869910E+00 -1.51973982E+01  7.59869910E+00  7.59869910E+00
 -1.51973982E+01  7.59869910E+00  7.59869910E+00 -1.51973982E+01  7.59869910E+00
  7.59869910E+00 -1.51973982E+01  7.59869910E+00  7.59869910E+00 -1.51973982E+01
  7.59869910E+00  7.59869910E+00 -1.51973982E+01  7.59869910E+00  7.59869910E+00
 -1.51973982E+01  7.59869910E+00  7.59869910E+00 -1.51973982E+01  7.59869910E+00
  7.59869910E+00 -1.51973982E+01  7.59869910E+00  7.59869910E+00 -1.51973982E+01
  7.59869910E+00  7.59869910E+00 -1.51973982E+01  7.59869910E+00  7.59869910E+00
 -1.51973982E+01  7.59869910E+00  7.59869910E+00 -1.51973982E+01  7.59869910E+00
  7.59869910E+00 -1.51973982E+01  7.59869910E+00  7.59869910E+00 -1.51973982E+01
  7.59869910E+00  7.59869910E+00 -1.51973982E+01  7.59869910E+00  7.59869910E+00
 -1.51973982E+01  7.59869910E+00  7.59869910E+00 -1.51973982E+01  7.59869910E+00
  7.59869910E+00 -1.51973982E+01  7.59869910E+00  7.59869910E+00 -1.51973982E+01
  7.59869910E+00  7.59869910E+00 -1.51973982E+01  7.59869910E+00  7.59869910E+00
 -1.51973982E+01  7.59869910E+00  7.59869910E+00 -1.51973982E+01  7.59869910E+00
  7.59869910E+00 -1.51973982E+01  7.59869910E+00  7.59869910E+00 -1.51973982E+01
  7.59869910E+00  7.59869910E+00 -1.51973982E+01  7.59869910E+00  7.59869910E+00
 -1.51973982E+01  7.59869910E+00  7.59869910E+00 -1.51973982E+01  7.59869910E+00
  7.59869910E+00 -1.51973982E+01  7.59869910E+00  7.59869910E+00 -1.51973982E+01
  7.59869910E+00  7.59869910E+00 -1.51973982E+01  7.59869910E+00  7.59869910E+00
 -1.51973982E+01  7.59869910E+00  7.59869910E+00 -1.51973982E+01  7.59869910E+00
  7.59869910E+00 -1.51973982E+01  7.59869910E+00  7.59869910E+00 -1.51973982E+01
  7.59869910E+00  7.59869910E+00 -1.51973982E+01  7.59869910E+00  7.59869910E+00
 -1.51973982E+01  7.59869910E+00  7.59869910E+00 -1.51973982E+01  7.59869910E+00
  7.59869910E+00 -1.51973982E+01  7.59869910E+00  7.59869910E+00 -1.51973982E+01
  7.59869910E+00  7.59869910E+00 -1.51973982E+01  7.59869910E+00  7.59869910E+00
 -1.51973982E+01  7.59869910E+00  7.59869910E+00 -1.51973982E+01  7.59869910E+00
  7.59869910E+00 -1.51973982E+01  7.59869910E+00  7.59869910E+00 -1.51973982E+01
  7.59869910E+00  7.59869910E+00 -1.51973982E+01  7.59869910E+00  7.59869910E+00
 -1.51973982E+01  7.59869910E+00  7.59869910E+00 -1.51973982E+01  7.59869910E+00
  7.59869910E+00 -1.51973982E+01  7.59869910E+00  7.59869910E+00 -1.51973982E+01
  7.59869910E+00  7.59869910E+00 -1.51973982E+01  7.59869910E+00  7.59869910E+00
 -1.51973982E+01  7.59869910E+00  7.59869910E+00 -1.51973982E+01  7.59869910E+00
  7.59869910E+00 -1.51973982E+01  7.59869910E+00  7.59869910E+00 -1.51973982E+01
  7.59869910E+00  7.59869910E+00 -1.51973982E+01  7.59869910E+00  7.59869910E+00
 -1.51973982E+01  7.59869910E+00  7.59869910E+00 -1.51973982E+01  7.59869910E+00
  7.59869910E+00 -1.51973982E+01  7.59869910E+00  7.59869910E+00 -1.51973982E+01
  7.59869910E+00  7.59869910E+00 -1.51973982E+01  7.59869910E+00  7.59869910E+00
 -1.51973982E+01  7.59869910E+00  7.59869910E+00 -1.51973982E+01  7.59869910E+00
  7.59869910E+00 -1.51973982E+01  7.59869910E+00  7.59869910E+00 -1.51973982E+01
  7.59869910E+00  7.59869910E+00 -1.51973982E+01  7.59869910E+00  7.59869910E+00
 -1.51973982E+01  7.59869910E+00  7.59869910E+00 -1.51973982E+01  7.59869910E+00
  7.59869910E+00 -1.51973982E+01  7.59869910E+00  7.59869910E+00 -1.51973982E+01
  7.59869910E+00  7.59869910E+00 -1.51973982E+01  7.59869910E+00  7.59869910E+00
 -1.51973982E+01  7.59869910E+00  7.59869910E+00 -1.51973982E+01  7.59869910E+00
  7.59869910E+00 -1.51973982E+01  7.59869910E+00  7.59869910E+00 -1.51973982E+01
  7.59869910E+00  7.59869910E+00 -1.51973982E+01  7.59869910E+00  7.59869910E+00
 -1.51973982E+01  7.59869910E+00  7.59869910E+00 -1.51973982E+01  7.59869910E+00
  7.59869910E+00 -1.51973982E+01  7.59869910E+00  7.59869910E+00 -1.51973982E+01
  7.59869910E+00  7.59869910E+00 -1.51973982E+01  7.59869910E+00  7.59869910E+00
 -1.51973982E+01  7.59869910E+00  7.59869910E+00 -1.51973982E+01  7.59869910E+00
  7.59869910E+00 -1.51973982E+01  7.59869910E+00  7.59869910E+00 -1.51973982E+01
  7.59869910E+00  7.59869910E+00 -1.51973982E+01  7.59869910E+00  7.59869910E+00
 -1.51973982E+01  7.59869910E+00  7.59869910E+00 -1.51973982E+01  7.59869910E+00
  7.59869910E+00 -1.51973982E+01  7.59869910E+00  7.59869910E+00 -1.51973982E+01
  7.59869910E+00  7.59869910E+00 -1.51973982E+01  7.59869910E+00  7.59869910E+00
 -1.51973982E+01  7.59869910E+00  7.59869910E+00 -1.51973982E+01  7.59869910E+00
  7.59869910E+00 -1.51973982E+01  7.59869910E+00  7.59869910E+00 -1.51973982E+01
  7.59869910E+00  7.59869910E+00 -1.51973982E+01  7.59869910E+00  7.59869910E+00
 -1.51973982E+01  7.59869910E+00  7.59869910E+00 -1.51973982E+01  7.59869910E+00
  7.59869910E+00 -1.51973982E+01  7.59869910E+00  7.59869910E+00 -1.51973982E+01
  7.59869910E+00  7.59869910E+00 -1.51973982E+01  7.59869910E+00  7.59869910E+00
 -1.51973982E+01  7.59869910E+00  7.59869910E+00 -1.51973982E+01  7.59869910E+00
  7.59869910E+00 -1.51973982E+01  7.59869910E+00  7.59869910E+00 -1.51973982E+01
  7.59869910E+00  7.59869910E+00 -1.51973982E+01  7.59869910E+00  7.59869910E+00
 -1.51973982E+01  7.59869910E+00  7.59869910E+00 -1.51973982E+01  7.59869910E+00
  7.59869910E+00 -1.51973982E+01  7.59869910E+00  7.59869910E+00 -1.51973982E+01
  7.59869910E+00  7.59869910E+00 -1.51973982E+01  7.59869910E+00  7.59869910E+00
 -1.51973982E+01  7.59869910E+00  7.59869910E+00 -1.51973982E+01  7.59869910E+00
  7.59869910E+00 -1.51973982E+01  7.59869910E+00  7.59869910E+00 -1.51973982E+01
  7.59869910E+00  7.59869910E+00 -1.51973982E+01  7.59869910E+00  7.59869910E+00
 -1.51973982E+01  7.59869910E+00  7.59869910E+00 -1.51973982E+01  7.59869910E+00
  7.59869910E+00 -1.51973982E+01  7.59869910E+00  7.59869910E+00 -1.51973982E+01
  7.59869910E+00  7.59869910E+00 -1.51973982E+01  7.59869910E+00  7.59869910E+00
 -1.51973982E+01  7.59869910E+00  7.59869910E+00 -1.51973982E+01  7.59869910E+00
  7.59869910E+00 -1.51973982E+01  7.59869910E+00  7.59869910E+00 -1.51973982E+01
  7.59869910E+00  7.59869910E+00 -1.51973982E+01  7.59869910E+00  7.59869910E+00
 -1.51973982E+01  7.59869910E+00  7.59869910E+00 -1.51973982E+01  7.59869910E+00
  7.59869910E+00 -1.51973982E+01  7.59869910E+00  7.59869910E+00 -1.51973982E+01
  7.59869910E+00  7.59869910E+00 -1.51973982E+01  7.59869910E+00  7.59869910E+00
 -1.51973982E+01  7.59869910E+00  7.59869910E+00 -1.51973982E+01  7.59869910E+00
  7.59869910E+00 -1.51973982E+01  7.59869910E+00  7.59869910E+00 -1.51973982E+01
  7.59869910E+00  7.59869910E+00 -1.51973982E+01  7.59869910E+00  7.59869910E+00
 -1.51973982E+01  7.59869910E+00  7.59869910E+00 -1.51973982E+01  7.59869910E+00
  7.59869910E+00 -1.51973982E+01  7.59869910E+00  7.59869910E+00 -1.51973982E+01
  7.59869910E+00  7.59869910E+00 -1.51973982E+01  7.59869910E+00  7.59869910E+00
 -1.51973982E+01  7.59869910E+00  7.59869910E+00 -1.51973982E+01  7.59869910E+00
  7.59869910E+00 -1.51973982E+01  7.59869910E+00  7.59869910E+00 -1.51973982E+01
  7.59869910E+00  7.59869910E+00 -1.51973982E+01  7.59869910E+00  7.59869910E+00
 -1.51973982E+01  7.59869910E+00  7.59869910E+00 -1.51973982E+01  7.59869910E+00
  7.59869910E+00 -1.51973982E+01  7.59869910E+00  7.59869910E+00 -1.51973982E+01
  7.59869910E+00  7.59869910E+00 -1.51973982E+01  7.59869910E+00  7.59869910E+00
 -1.51973982E+01  7.59869910E+00  7.59869910E+00 -1.51973982E+01  7.59869910E+00
  7.59869910E+00 -1.51973982E+01  7.59869910E+00  7.59869910E+00 -1.51973982E+01
  7.59869910E+00  7.59869910E+00 -1.51973982E+01  7.59869910E+00  7.59869910E+00
 -1.51973982E+01  7.59869910E+00  7.59869910E+00 -1.51973982E+01  7.59869910E+00
  7.59869910E+00 -1.51973982E+01  7.59869910E+00  7.59869910E+00 -1.51973982E+01
  7.59869910E+00  7.59869910E+00 -1.51973982E+01  7.59869910E+00  7.59869910E+00
 -1.51973982E+01  7.59869910E+00  7.59869910E+00 -1.51973982E+01  7.59869910E+00
  7.59869910E+00 -1.51973982E+01  7.59869910E+00  7.59869910E+00 -1.51973982E+01
  7.59869910E+00  7.59869910E+00 -1.51973982E+01  7.59869910E+00  7.59869910E+00
 -1.51973982E+01  7.59869910E+00  7.59869910E+00 -1.51973982E+01  7.59869910E+00
  7.59869910E+00 -1.51973982E+01  7.59869910E+00  7.59869910E+00 -1.51973982E+01
  7.59869910E+00  7.59869910E+00 -1.51973982E+01  7.59869910E+00  7.59869910E+00
 -1.51973982E+01  7.59869910E+00  7.59869910E+00 -1.51973982E+01  7.59869910E+00
  7.59869910E+00 -1.51973982E+01  7.59869910E+00  7.59869910E+00 -1.51973982E+01
  7.59869910E+00  7.59869910E+00 -1.51973982E+01  7.59869910E+00  7.59869910E+00
 -1.51973982E+01  7.59869910E+00  7.59869910E+00 -1.51973982E+01  7.59869910E+00
  7.59869910E+00 -1.51973982E+01  7.59869910E+00  7.59869910E+00 -1.51973982E+01
  7.59869910E+00  7.59869910E+00 -1.51973982E+01  7.59869910E+00  7.59869910E+00
 -1.51973982E+01  7.59869910E+00  7.59869910E+00 -1.51973982E+01  7.59869910E+00
  7.59869910E+00 -1.51973982E+01  7.59869910E+00  7.59869910E+00 -1.51973982E+01
  7.59869910E+00  7.59869910E+00 -1.51973982E+01  7.59869910E+00  7.59869910E+00
 -1.51973982E+01  7.59869910E+00  7.59869910E+00 -1.51973982E+01  7.59869910E+00
  7.59869910E+00 -1.51973982E+01  7.59869910E+00  7.59869910E+00 -1.51973982E+01
  7.59869910E+00  7.59869910E+00 -1.51973982E+01  7.59869910E+00  7.59869910E+00
 -1.51973982E+01  7.59869910E+00  7.59869910E+00 -1.51973982E+01  7.59869910E+00
  7.59869910E+00 -1.51973982E+01  7.59869910E+00  7.59869910E+00 -1.51973982E+01
  7.59869910E+00  7.59869910E+00 -1.51973982E+01  7.59869910E+00  7.59869910E+00
 -1.51973982E+01  7.59869910E+00  7.59869910E+00 -1.51973982E+01  7.59869910E+00
  7.59869910E+00 -1.51973982E+01  7.59869910E+00  7.59869910E+00 -1.51973982E+01
  7.59869910E+00  7.59869910E+00 -1.51973982E+01  7.59869910E+00  7.59869910E+00
 -1.51973982E+01  7.59869910E+00  7.59869910E+00 -1.51973982E+01  7.59869910E+00
  7.59869910E+00 -1.51973982E+01  7.59869910E+00  7.59869910E+00 -1.51973982E+01
  7.59869910E+00  7.59869910E+00 -1.51973982E+01  7.59869910E+00  7.59869910E+00
 -1.51973982E+01  7.59869910E+00  7.59869910E+00 -1.51973982E+01  7.59869910E+00
  7.59869910E+00 -1.51973982E+01  7.59869910E+00  7.59869910E+00 -1.51973982E+01
  7.59869910E+00  7.59869910E+00 -1.51973982E+01  7.59869910E+00  7.59869910E+00
 -1.51973982E+01  7.59869910E+00  7.59869910E+00 -1.51973982E+01  7.59869910E+00
  7.59869910E+00 -1.51973982E+01  7.59869910E+00  7.59869910E+00 -1.51973982E+01
  7.59869910E+00  7.59869910E+00 -1.51973982E+01  7.59869910E+00  7.59869910E+00
 -1.51973982E+01  7.59869910E+00  7.59869910E+00 -1.51973982E+01  7.59869910E+00
  7.59869910E+00 -1.51973982E+01  7.59869910E+00  7.59869910E+00 -1.51973982E+01
  7.59869910E+00  7.59869910E+00 -1.51973982E+01  7.59869910E+00  7.59869910E+00
 -1.51973982E+01  7.59869910E+00  7.59869910E+00 -1.51973982E+01  7.59869910E+00
  7.59869910E+00 -1.51973982E+01  7.59869910E+00  7.59869910E+00 -1.51973982E+01
  7.59869910E+00  7.59869910E+00 -1.51973982E+01  7.59869910E+00  7.59869910E+00
 -1.51973982E+01  7.59869910E+00  7.59869910E+00 -1.51973982E+01  7.59869910E+00
  7.59869910E+00 -1.51973982E+01  7.59869910E+00  7.59869910E+00 -1.51973982E+01
  7.59869910E+00  7.59869910E+00 -1.51973982E+01  7.59869910E+00  7.59869910E+00
 -1.51973982E+01  7.59869910E+00  7.59869910E+00 -1.51973982E+01  7.59869910E+00
  7.59869910E+00 -1.51973982E+01  7.59869910E+00  7.59869910E+00 -1.51973982E+01
  7.59869910E+00  7.59869910E+00 -1.51973982E+01  7.59869910E+00  7.59869910E+00
 -1.51973982E+01  7.59869910E+00  7.59869910E+00 -1.51973982E+01  7.59869910E+00
  7.59869910E+00 -1.51973982E+01  7.59869910E+00  7.59869910E+00 -1.51973982E+01
  7.59869910E+00  7.59869910E+00 -1.51973982E+01  7.59869910E+00  7.59869910E+00
 -1.51973982E+01  7.59869910E+00  7.59869910E+00 -1.51973982E+01  7.59869910E+00
  7.59869910E+00 -1.51973982E+01  7.59869910E+00  7.59869910E+00 -1.51973982E+01
  7.59869910E+00  7.59869910E+00 -1.51973982E+01  7.59869910E+00  7.59869910E+00
 -1.51973982E+01  7.59869910E+00  7.59869910E+00 -1.51973982E+01  7.59869910E+00
  7.59869910E+00 -1.51973982E+01  7.59869910E+00  7.59869910E+00 -1.51973982E+01
  7.59869910E+00  7.59869910E+00 -1.51973982E+01  7.59869910E+00  7.59869910E+00
 -1.51973982E+01  7.59869910E+00  7.59869910E+00 -1.51973982E+01  7.59869910E+00
  7.59869910E+00 -1.51973982E+01  7.59869910E+00  7.59869910E+00 -1.51973982E+01
  7.59869910E+00  7.59869910E+00 -1.51973982E+01  7.59869910E+00  7.59869910E+00
 -1.51973982E+01  7.59869910E+00  7.59869910E+00 -1.51973982E+01  7.59869910E+00
  7.59869910E+00 -1.51973982E+01  7.59869910E+00  7.59869910E+00 -1.51973982E+01
  7.59869910E+00  7.59869910E+00 -1.51973982E+01  7.59869910E+00  7.59869910E+00
 -1.51973982E+01  7.59869910E+00  7.59869910E+00 -1.51973982E+01  7.59869910E+00
  7.59869910E+00 -1.51973982E+01  7.59869910E+00  7.59869910E+00 -1.51973982E+01
  7.59869910E+00  7.59869910E+00 -1.51973982E+01  7.59869910E+00  7.59869910E+00
 -1.51973982E+01  7.59869910E+00  7.59869910E+00 -1.51973982E+01  7.59869910E+00
  7.59869910E+00 -1.51973982E+01  7.59869910E+00  7.59869910E+00 -1.51973982E+01
  7.59869910E+00  7.59869910E+00 -1.51973982E+01  7.59869910E+00  7.59869910E+00
 -1.51973982E+01  7.59869910E+00  7.59869910E+00 -1.51973982E+01  7.59869910E+00
  7.59869910E+00 -1.51973982E+01  7.59869910E+00  7.59869910E+00 -1.51973982E+01
  7.59869910E+00  7.59869910E+00 -1.51973982E+01  7.59869910E+00  7.59869910E+00
 -1.51973982E+01  7.59869910E+00  7.59869910E+00 -1.51973982E+01  7.59869910E+00
  7.59869910E+00 -1.51973982E+01  7.59869910E+00  7.59869910E+00 -1.51973982E+01
  7.59869910E+00  7.59869910E+00 -1.51973982E+01  7.59869910E+00  7.59869910E+00
 -1.51973982E+01  7.59869910E+00  7.59869910E+00 -1.51973982E+01  7.59869910E+00
  7.59869910E+00 -1.51973982E+01  7.59869910E+00  7.59869910E+00 -1.51973982E+01
  7.59869910E+00  7.59869910E+00 -1.51973982E+01  7.59869910E+00  7.59869910E+00
 -1.51973982E+01  7.59869910E+00  7.59869910E+00 -1.51973982E+01  7.59869910E+00
  7.59869910E+00 -1.51973982E+01  7.59869910E+00  7.59869910E+00 -1.51973982E+01
  7.59869910E+00  7.59869910E+00 -1.51973982E+01  7.59869910E+00  7.59869910E+00
 -1.51973982E+01  7.59869910E+00  7.59869910E+00 -1.51973982E+01  7.59869910E+00
  7.59869910E+00 -1.51973982E+01  7.59869910E+00  7.59869910E+00 -1.51973982E+01
  7.59869910E+00  7.59869910E+00 -1.51973982E+01  7.59869910E+00  7.59869910E+00
 -1.51973982E+01  7.59869910E+00  7.59869910E+00 -1.51973982E+01  7.59869910E+00
  7.59869910E+00 -1.51973982E+01  7.59869910E+00  7.59869910E+00 -1.51973982E+01
  7.59869910E+00  7.59869910E+00 -1.51973982E+01  7.59869910E+00  7.59869910E+00
 -1.51973982E+01  7.59869910E+00  7.59869910E+00 -1.51973982E+01  7.59869910E+00
  7.59869910E+00 -1.51973982E+01  7.59869910E+00  7.59869910E+00 -1.51973982E+01
  7.59869910E+00  7.59869910E+00 -1.51973982E+01  7.59869910E+00  7.59869910E+00
 -1.51973982E+01  7.59869910E+00  7.59869910E+00 -1.51973982E+01  7.59869910E+00
  7.59869910E+00 -1.51973982E+01  7.59869910E+00  7.59869910E+00 -1.51973982E+01
  7.59869910E+00  7.59869910E+00 -1.51973982E+01  7.59869910E+00  7.59869910E+00
 -1.51973982E+01  7.59869910E+00  7.59869910E+00 -1.51973982E+01  7.59869910E+00
  7.59869910E+00 -1.51973982E+01  7.59869910E+00  7.59869910E+00 -1.51973982E+01
  7.59869910E+00  7.59869910E+00 -1.51973982E+01  7.59869910E+00  7.59869910E+00
 -1.51973982E+01  7.59869910E+00  7.59869910E+00 -1.51973982E+01  7.59869910E+00
  7.59869910E+00 -1.51973982E+01  7.59869910E+00  7.59869910E+00 -1.51973982E+01
  7.59869910E+00  7.59869910E+00 -1.51973982E+01  7.59869910E+00  7.59869910E+00
 -1.51973982E+01  7.59869910E+00  7.59869910E+00 -1.51973982E+01  7.59869910E+00
  7.59869910E+00 -1.51973982E+01  7.59869910E+00  7.59869910E+00 -1.51973982E+01
  7.59869910E+00  7.59869910E+00 -1.51973982E+01  7.59869910E+00  7.59869910E+00
 -1.51973982E+01  7.59869910E+00  7.59869910E+00 -1.51973982E+01  7.59869910E+00
  7.59869910E+00 -1.51973982E+01  7.59869910E+00  7.59869910E+00 -1.51973982E+01
  7.59869910E+00  7.59869910E+00 -1.51973982E+01  7.59869910E+00  7.59869910E+00
 -1.51973982E+01  7.59869910E+00  7.59869910E+00 -1.51973982E+01  7.59869910E+00
  7.59869910E+00 -1.51973982E+01  7.59869910E+00  7.59869910E+00 -1.51973982E+01
  7.59869910E+00  7.59869910E+00 -1.51973982E+01  7.59869910E+00  7.59869910E+00
 -1.51973982E+01  7.59869910E+00  7.59869910E+00 -1.51973982E+01  7.59869910E+00
  7.59869910E+00 -1.51973982E+01  7.59869910E+00  7.59869910E+00 -1.51973982E+01
  7.59869910E+00  7.59869910E+00 -1.51973982E+01  7.59869910E+00  7.59869910E+00
 -1.51973982E+01  7.59869910E+00  7.59869910E+00 -1.51973982E+01  7.59869910E+00
  7.59869910E+00 -1.51973982E+01  7.59869910E+00  7.59869910E+00 -1.51973982E+01
  7.59869910E+00  7.59869910E+00 -1.51973982E+01  7.59869910E+00  7.59869910E+00
 -1.51973982E+01  7.59869910E+00  7.59869910E+00 -1.51973982E+01  7.59869910E+00
  7.59869910E+00 -1.51973982E+01  7.59869910E+00  7.59869910E+00 -1.51973982E+01
  7.59869910E+00  7.59869910E+00 -1.51973982E+01  7.59869910E+00  7.59869910E+00
 -1.51973982E+01  7.59869910E+00  7.59869910E+00 -1.51973982E+01  7.59869910E+00
  7.59869910E+00 -1.51973982E+01  7.59869910E+00  7.59869910E+00 -1.51973982E+01
  7.59869910E+00  7.59869910E+00 -1.51973982E+01  7.59869910E+00  7.59869910E+00
 -1.51973982E+01  7.59869910E+00  7.59869910E+00 -1.51973982E+01  7.59869910E+00
  7.59869910E+00 -1.51973982E+01  7.59869910E+00  7.59869910E+00 -1.51973982E+01
  7.59869910E+00  7.59869910E+00 -1.51973982E+01  7.59869910E+00  7.59869910E+00
 -1.51973982E+01  7.59869910E+00  7.59869910E+00 -1.51973982E+01  7.59869910E+00
  7.59869910E+00 -1.51973982E+01  7.59869910E+00  7.59869910E+00 -1.51973982E+01
  7.59869910E+00  7.59869910E+00 -1.51973982E+01  7.59869910E+00  7.59869910E+00
 -1.51973982E+01  7.59869910E+00  7.59869910E+00 -1.51973982E+01  7.59869910E+00
  7.59869910E+00 -1.51973982E+01  7.59869910E+00  7.59869910E+00 -1.51973982E+01
  7.59869910E+00  7.59869910E+00 -1.51973982E+01  7.59869910E+00  7.59869910E+00
 -1.51973982E+01  7.59869910E+00  7.59869910E+00 -1.51973982E+01  7.59869910E+00
  7.59869910E+00 -1.51973982E+01  7.59869910E+00  7.59869910E+00 -1.51973982E+01
  7.59869910E+00  7.59869910E+00 -1.51973982E+01  7.59869910E+00  7.59869910E+00
 -1.51973982E+01  7.59869910E+00  7.59869910E+00 -1.51973982E+01  7.59869910E+00
  7.59869910E+00 -1.51973982E+01  7.59869910E+00  7.59869910E+00 -1.51973982E+01
  7.59869910E+00  7.59869910E+00 -1.51973982E+01  7.59869910E+00  7.59869910E+00
 -1.51973982E+01  7.59869910E+00  7.59869910E+00 -1.51973982E+01  7.59869910E+00
  7.59869910E+00 -1.51973982E+01  7.59869910E+00  7.59869910E+00 -1.51973982E+01
  7.59869910E+00  7.59869910E+00 -1.51973982E+01  7.59869910E+00  7.59869910E+00
 -1.51973982E+01  7.59869910E+00  7.59869910E+00 -1.51973982E+01  7.59869910E+00
  7.59869910E+00 -1.51973982E+01  7.59869910E+00  7.59869910E+00 -1.51973982E+01
  7.59869910E+00  7.59869910E+00 -1.51973982E+01  7.59869910E+00  7.59869910E+00
 -1.51973982E+01  7.59869910E+00  7.59869910E+00 -1.51973982E+01  7.59869910E+00
  7.59869910E+00 -1.51973982E+01  7.59869910E+00  7.59869910E+00 -1.51973982E+01
  7.59869910E+00  7.59869910E+00 -1.51973982E+01  7.59869910E+00  7.59869910E+00
 -1.51973982E+01  7.59869910E+00  7.59869910E+00 -1.51973982E+01  7.59869910E+00
  7.59869910E+00 -1.51973982E+01  7.59869910E+00  7.59869910E+00 -1.51973982E+01
  7.59869910E+00  7.59869910E+00 -1.51973982E+01  7.59869910E+00  7.59869910E+00
 -1.51973982E+01  7.59869910E+00  7.59869910E+00 -1.51973982E+01  7.59869910E+00
  7.59869910E+00 -1.51973982E+01  7.59869910E+00  7.59869910E+00 -1.51973982E+01
  7.59869910E+00  7.59869910E+00 -1.51973982E+01  7.59869910E+00  7.59869910E+00
 -1.51973982E+01  7.59869910E+00  7.59869910E+00 -1.51973982E+01  7.59869910E+00
  7.59869910E+00 -1.51973982E+01  7.59869910E+00  7.59869910E+00 -1.51973982E+01
  7.59869910E+00  7.59869910E+00 -1.51973982E+01  7.59869910E+00  7.59869910E+00
 -1.51973982E+01  7.59869910E+00  7.59869910E+00 -1.51973982E+01  7.59869910E+00
  7.59869910E+00 -1.51973982E+01  7.59869910E+00  7.59869910E+00 -1.51973982E+01
  7.59869910E+00  7.59869910E+00 -1.51973982E+01  7.59869910E+00  7.59869910E+00
 -1.51973982E+01  7.59869910E+00  7.59869910E+00 -1.51973982E+01  7.59869910E+00
  7.59869910E+00 -1.51973982E+01  7.59869910E+00  7.59869910E+00 -1.51973982E+01
  7.59869910E+00  7.59869910E+00 -1.51973982E+01  7.59869910E+00  7.59869910E+00
 -1.51973982E+01  7.59869910E+00  7.59869910E+00 -1.51973982E+01  7.59869910E+00
  7.59869910E+00 -1.51973982E+01  7.59869910E+00  7.59869910E+00 -1.51973982E+01
  7.59869910E+00  7.59869910E+00 -1.51973982E+01  7.59869910E+00  7.59869910E+00
 -1.51973982E+01  7.59869910E+00  7.59869910E+00 -1.51973982E+01  7.59869910E+00
  7.59869910E+00 -1.51973982E+01  7.59869910E+00  7.59869910E+00 -1.51973982E+01
  7.59869910E+00  7.59869910E+00 -1.51973982E+01  7.59869910E+00  7.59869910E+00
 -1.51973982E+01  7.59869910E+00  7.59869910E+00 -1.51973982E+01  7.59869910E+00
  7.59869910E+00 -1.51973982E+01  7.59869910E+00  7.59869910E+00 -1.51973982E+01
  7.59869910E+00  7.59869910E+00 -1.51973982E+01  7.59869910E+00  7.59869910E+00
 -1.51973982E+01  7.59869910E+00  7.59869910E+00 -1.51973982E+01  7.59869910E+00
  7.59869910E+00 -1.51973982E+01  7.59869910E+00  7.59869910E+00 -1.51973982E+01
  7.59869910E+00  7.59869910E+00 -1.51973982E+01  7.59869910E+00  7.59869910E+00
 -1.51973982E+01  7.59869910E+00  7.59869910E+00 -1.51973982E+01  7.59869910E+00
  7.59869910E+00 -1.51973982E+01  7.59869910E+00  7.59869910E+00 -1.51973982E+01
  7.59869910E+00  7.59869910E+00 -1.51973982E+01  7.59869910E+00  7.59869910E+00
 -1.51973982E+01  7.59869910E+00  7.59869910E+00 -1.51973982E+01  7.59869910E+00
  7.59869910E+00 -1.51973982E+01  7.59869910E+00  7.59869910E+00 -1.51973982E+01
  7.59869910E+00  7.59869910E+00 -1.51973982E+01  7.59869910E+00  7.59869910E+00
 -1.51973982E+01  7.59869910E+00  7.59869910E+00 -1.51973982E+01  7.59869910E+00
  7.59869910E+00 -1.51973982E+01  7.59869910E+00  7.59869910E+00 -1.51973982E+01
  7.59869910E+00  7.59869910E+00 -1.51973982E+01  7.59869910E+00  7.59869910E+00
 -1.51973982E+01  7.59869910E+00  7.59869910E+00 -1.51973982E+01  7.59869910E+00
  7.59869910E+00 -1.51973982E+01  7.59869910E+00  7.59869910E+00 -1.51973982E+01
  7.59869910E+00  7.59869910E+00 -1.51973982E+01  7.59869910E+00  7.59869910E+00
 -1.51973982E+01  7.59869910E+00  7.59869910E+00 -1.51973982E+01  7.59869910E+00
  7.59869910E+00 -1.51973982E+01  7.59869910E+00  7.59869910E+00 -1.51973982E+01
  7.59869910E+00  7.59869910E+00 -1.51973982E+01  7.59869910E+00  7.59869910E+00
 -1.51973982E+01  7.59869910E+00  7.59869910E+00 -1.51973982E+01  7.59869910E+00
  7.59869910E+00 -1.51973982E+01  7.59869910E+00  7.59869910E+00 -1.51973982E+01
  7.59869910E+00  7.59869910E+00 -1.51973982E+01  7.59869910E+00  7.59869910E+00
 -1.51973982E+01  7.59869910E+00  7.59869910E+00 -1.51973982E+01  7.59869910E+00
  7.59869910E+00 -1.51973982E+01  7.59869910E+00  7.59869910E+00 -1.51973982E+01
  7.59869910E+00  7.59869910E+00 -1.51973982E+01  7.59869910E+00  7.59869910E+00
 -1.51973982E+01  7.59869910E+00  7.59869910E+00 -1.51973982E+01  7.59869910E+00
  7.59869910E+00 -1.51973982E+01  7.59869910E+00  7.59869910E+00 -1.51973982E+01
  7.59869910E+00  7.59869910E+00 -1.51973982E+01  7.59869910E+00  7.59869910E+00
 -1.51973982E+01  7.59869910E+00  7.59869910E+00 -1.51973982E+01  7.59869910E+00
  7.59869910E+00 -1.51973982E+01  7.59869910E+00  7.59869910E+00 -1.51973982E+01
  7.59869910E+00  7.59869910E+00 -1.51973982E+01  7.59869910E+00  7.59869910E+00
 -1.51973982E+01  7.59869910E+00  7.59869910E+00 -1.51973982E+01  7.59869910E+00
  7.59869910E+00 -1.51973982E+01  7.59869910E+00  7.59869910E+00 -1.51973982E+01
  7.59869910E+00  7.59869910E+00 -1.51973982E+01  7.59869910E+00  7.59869910E+00
 -1.51973982E+01  7.59869910E+00  7.59869910E+00 -1.51973982E+01  7.59869910E+00
  7.59869910E+00 -1.51973982E+01  7.59869910E+00  7.59869910E+00 -1.51973982E+01
  7.59869910E+00  7.59869910E+00 -1.51973982E+01  7.59869910E+00  7.59869910E+00
 -1.51973982E+01  7.59869910E+00  7.59869910E+00 -1.51973982E+01  7.59869910E+00
  7.59869910E+00 -1.51973982E+01  7.59869910E+00  7.59869910E+00 -1.51973982E+01
  7.59869910E+00  7.59869910E+00 -1.51973982E+01  7.59869910E+00  7.59869910E+00
 -1.51973982E+01  7.59869910E+00  7.59869910E+00 -1.51973982E+01  7.59869910E+00
  7.59869910E+00 -1.51973982E+01  7.59869910E+00  7.59869910E+00 -1.51973982E+01
  7.59869910E+00  7.59869910E+00 -1.51973982E+01  7.59869910E+00  7.59869910E+00
 -1.51973982E+01  7.59869910E+00  7.59869910E+00 -1.51973982E+01  7.59869910E+00
  7.59869910E+00 -1.51973982E+01  7.59869910E+00  7.59869910E+00 -1.51973982E+01
  7.59869910E+00  7.59869910E+00 -1.51973982E+01  7.59869910E+00  7.59869910E+00
 -1.51973982E+01  7.59869910E+00  7.59869910E+00 -1.51973982E+01  7.59869910E+00
  7.59869910E+00 -1.51973982E+01  7.59869910E+00  7.59869910E+00 -1.51973982E+01
  7.59869910E+00  7.59869910E+00 -1.51973982E+01  7.59869910E+00  7.59869910E+00
 -1.51973982E+01  7.59869910E+00  7.59869910E+00 -1.51973982E+01  7.59869910E+00
  7.59869910E+00 -1.51973982E+01  7.59869910E+00  7.59869910E+00 -1.51973982E+01
  7.59869910E+00  7.59869910E+00 -1.51973982E+01  7.59869910E+00  7.59869910E+00
 -1.51973982E+01  7.59869910E+00  7.59869910E+00 -1.51973982E+01  7.59869910E+00
  7.59869910E+00 -1.51973982E+01  7.59869910E+00  7.59869910E+00 -1.51973982E+01
  7.59869910E+00  7.59869910E+00 -1.51973982E+01  7.59869910E+00  7.59869910E+00
 -1.51973982E+01  7.59869910E+00  7.59869910E+00 -1.51973982E+01  7.59869910E+00
  7.59869910E+00 -1.51973982E+01  7.59869910E+00  7.59869910E+00 -1.51973982E+01
  7.59869910E+00  7.59869910E+00 -1.51973982E+01  7.59869910E+00  7.59869910E+00
 -1.51973982E+01  7.59869910E+00  7.59869910E+00 -1.51973982E+01  7.59869910E+00
  7.59869910E+00 -1.51973982E+01  7.59869910E+00  7.59869910E+00 -1.51973982E+01
  7.59869910E+00  7.59869910E+00 -1.51973982E+01  7.59869910E+00  7.59869910E+00
 -1.51973982E+01  7.59869910E+00  7.59869910E+00 -1.51973982E+01  7.59869910E+00
  7.59869910E+00 -1.51973982E+01  7.59869910E+00  7.59869910E+00 -1.51973982E+01
  7.59869910E+00  7.59869910E+00 -1.51973982E+01  7.59869910E+00  7.59869910E+00
 -1.51973982E+01  7.59869910E+00  7.59869910E+00 -1.51973982E+01  7.59869910E+00
  7.59869910E+00 -1.51973982E+01  7.59869910E+00  7.59869910E+00 -1.51973982E+01
  7.59869910E+00  7.59869910E+00 -1.51973982E+01  7.59869910E+00  7.59869910E+00
 -1.51973982E+01  7.59869910E+00  7.59869910E+00 -1.51973982E+01  7.59869910E+00
  7.59869910E+00 -1.51973982E+01  7.59869910E+00  7.59869910E+00 -1.51973982E+01
  7.59869910E+00  7.59869910E+00 -1.51973982E+01  7.59869910E+00  7.59869910E+00
 -1.51973982E+01  7.59869910E+00  7.59869910E+00 -1.51973982E+01  7.59869910E+00
  7.59869910E+00 -1.51973982E+01  7.59869910E+00  7.59869910E+00 -1.51973982E+01
  7.59869910E+00  7.59869910E+00 -1.51973982E+01  7.59869910E+00  7.59869910E+00
 -1.51973982E+01  7.59869910E+00  7.59869910E+00 -1.51973982E+01  7.59869910E+00
  7.59869910E+00 -1.51973982E+01  7.59869910E+00  7.59869910E+00 -1.51973982E+01
  7.59869910E+00  7.59869910E+00 -1.51973982E+01  7.59869910E+00  7.59869910E+00
 -1.51973982E+01  7.59869910E+00  7.59869910E+00 -1.51973982E+01  7.59869910E+00
  7.59869910E+00 -1.51973982E+01  7.59869910E+00  7.59869910E+00 -1.51973982E+01
  7.59869910E+00  7.59869910E+00 -1.51973982E+01  7.59869910E+00  7.59869910E+00
 -1.51973982E+01  7.59869910E+00  7.59869910E+00 -1.51973982E+01  7.59869910E+00
  7.59869910E+00 -1.51973982E+01  7.59869910E+00  7.59869910E+00 -1.51973982E+01
  7.59869910E+00  7.59869910E+00 -1.51973982E+01  7.59869910E+00  7.59869910E+00
 -1.51973982E+01  7.59869910E+00  7.59869910E+00 -1.51973982E+01  7.59869910E+00
  7.59869910E+00 -1.51973982E+01  7.59869910E+00  7.59869910E+00 -1.51973982E+01
  7.59869910E+00  7.59869910E+00 -1.51973982E+01  7.59869910E+00  7.59869910E+00
 -1.51973982E+01  7.59869910E+00  7.59869910E+00 -1.51973982E+01  7.59869910E+00
  7.59869910E+00 -1.51973982E+01  7.59869910E+00  7.59869910E+00 -1.51973982E+01
  7.59869910E+00  7.59869910E+00 -1.51973982E+01  7.59869910E+00  7.59869910E+00
 -1.51973982E+01  7.59869910E+00  7.59869910E+00 -1.51973982E+01  7.59869910E+00
  7.59869910E+00 -1.51973982E+01  7.59869910E+00  7.59869910E+00 -1.51973982E+01
  7.59869910E+00  7.59869910E+00 -1.51973982E+01  7.59869910E+00  7.59869910E+00
 -1.51973982E+01  7.59869910E+00  7.59869910E+00 -1.51973982E+01  7.59869910E+00
  7.59869910E+00 -1.51973982E+01  7.59869910E+00  7.59869910E+00 -1.51973982E+01
  7.59869910E+00  7.59869910E+00 -1.51973982E+01  7.59869910E+00  7.59869910E+00
 -1.51973982E+01  7.59869910E+00  7.59869910E+00 -1.51973982E+01  7.59869910E+00
  7.59869910E+00 -1.51973982E+01  7.59869910E+00  7.59869910E+00 -1.51973982E+01
  7.59869910E+00  7.59869910E+00 -1.51973982E+01  7.59869910E+00  7.59869910E+00
 -1.51973982E+01  7.59869910E+00  7.59869910E+00 -1.51973982E+01  7.59869910E+00
  7.59869910E+00 -1.51973982E+01  7.59869910E+00  7.59869910E+00 -1.51973982E+01
  7.59869910E+00  7.59869910E+00 -1.51973982E+01  7.59869910E+00  7.59869910E+00
 -1.51973982E+01  7.59869910E+00  7.59869910E+00 -1.51973982E+01  7.59869910E+00
  7.59869910E+00 -1.51973982E+01  7.59869910E+00  7.59869910E+00 -1.51973982E+01
  7.59869910E+00  7.59869910E+00 -1.51973982E+01  7.59869910E+00  7.59869910E+00
 -1.51973982E+01  7.59869910E+00  7.59869910E+00 -1.51973982E+01  7.59869910E+00
  7.59869910E+00 -1.51973982E+01  7.59869910E+00  7.59869910E+00 -1.51973982E+01
  7.59869910E+00  7.59869910E+00 -1.51973982E+01  7.59869910E+00  7.59869910E+00
 -1.51973982E+01  7.59869910E+00  7.59869910E+00 -1.51973982E+01  7.59869910E+00
  7.59869910E+00 -1.51973982E+01  7.59869910E+00  7.59869910E+00 -1.51973982E+01
  7.59869910E+00  7.59869910E+00 -1.51973982E+01  7.59869910E+00  7.59869910E+00
 -1.51973982E+01  7.59869910E+00  7.59869910E+00 -1.51973982E+01  7.59869910E+00
  7.59869910E+00 -1.51973982E+01  7.59869910E+00  7.59869910E+00 -1.51973982E+01
  7.59869910E+00  7.59869910E+00 -1.51973982E+01  7.59869910E+00  7.59869910E+00
 -1.51973982E+01  7.59869910E+00  7.59869910E+00 -1.51973982E+01  7.59869910E+00
  7.59869910E+00 -1.51973982E+01  7.59869910E+00  7.59869910E+00 -1.51973982E+01
  7.59869910E+00  7.59869910E+00 -1.51973982E+01  7.59869910E+00  7.59869910E+00
 -1.51973982E+01  7.59869910E+00  7.59869910E+00 -1.51973982E+01  7.59869910E+00
  7.59869910E+00 -1.51973982E+01  7.59869910E+00  7.59869910E+00 -1.51973982E+01
  7.59869910E+00  7.59869910E+00 -1.51973982E+01  7.59869910E+00  7.59869910E+00
 -1.51973982E+01  7.59869910E+00  7.59869910E+00 -1.51973982E+01  7.59869910E+00
  7.59869910E+00 -1.51973982E+01  7.59869910E+00  7.59869910E+00 -1.51973982E+01
  7.59869910E+00  7.59869910E+00 -1.51973982E+01  7.59869910E+00  7.59869910E+00
 -1.51973982E+01  7.59869910E+00  7.59869910E+00 -1.51973982E+01  7.59869910E+00
  7.59869910E+00 -1.51973982E+01  7.59869910E+00  7.59869910E+00 -1.51973982E+01
  7.59869910E+00  7.59869910E+00 -1.51973982E+01  7.59869910E+00  7.59869910E+00
 -1.51973982E+01  7.59869910E+00  7.59869910E+00 -1.51973982E+01  7.59869910E+00
  7.59869910E+00 -1.51973982E+01  7.59869910E+00  7.59869910E+00 -1.51973982E+01
  7.59869910E+00  7.59869910E+00 -1.51973982E+01  7.59869910E+00  7.59869910E+00
 -1.51973982E+01  7.59869910E+00  7.59869910E+00 -1.51973982E+01  7.59869910E+00
  7.59869910E+00 -1.51973982E+01  7.59869910E+00  7.59869910E+00 -1.51973982E+01
  7.59869910E+00  7.59869910E+00 -1.51973982E+01  7.59869910E+00  7.59869910E+00
 -1.51973982E+01  7.59869910E+00  7.59869910E+00 -1.51973982E+01  7.59869910E+00
  7.59869910E+00 -1.51973982E+01  7.59869910E+00  7.59869910E+00 -1.51973982E+01
  7.59869910E+00  7.59869910E+00 -1.51973982E+01  7.59869910E+00  7.59869910E+00
 -1.51973982E+01  7.59869910E+00  7.59869910E+00 -1.51973982E+01  7.59869910E+00
  7.59869910E+00 -1.51973982E+01  7.59869910E+00  7.59869910E+00 -1.51973982E+01
  7.59869910E+00  7.59869910E+00 -1.51973982E+01  7.59869910E+00  7.59869910E+00
 -1.51973982E+01  7.59869910E+00  7.59869910E+00 -1.51973982E+01  7.59869910E+00
  7.59869910E+00 -1.51973982E+01  7.59869910E+00  7.59869910E+00 -1.51973982E+01
  7.59869910E+00  7.59869910E+00 -1.51973982E+01  7.59869910E+00  7.59869910E+00
 -1.51973982E+01  7.59869910E+00  7.59869910E+00 -1.51973982E+01  7.59869910E+00
  7.59869910E+00 -1.51973982E+01  7.59869910E+00  7.59869910E+00 -1.51973982E+01
  7.59869910E+00  7.59869910E+00 -1.51973982E+01  7.59869910E+00  7.59869910E+00
 -1.51973982E+01  7.59869910E+00  7.59869910E+00 -1.51973982E+01  7.59869910E+00
  7.59869910E+00 -1.51973982E+01  7.59869910E+00  7.59869910E+00 -1.51973982E+01
  7.59869910E+00  7.59869910E+00 -1.51973982E+01  7.59869910E+00  7.59869910E+00
 -1.51973982E+01  7.59869910E+00  7.59869910E+00 -1.51973982E+01  7.59869910E+00
  7.59869910E+00 -1.51973982E+01  7.59869910E+00  7.59869910E+00 -1.51973982E+01
  7.59869910E+00  7.59869910E+00 -1.51973982E+01  7.59869910E+00  7.59869910E+00
 -1.51973982E+01  7.59869910E+00  7.59869910E+00 -1.51973982E+01  7.59869910E+00
  7.59869910E+00 -1.51973982E+01  7.59869910E+00  7.59869910E+00 -1.51973982E+01
  7.59869910E+00  7.59869910E+00 -1.51973982E+01  7.59869910E+00  7.59869910E+00
 -1.51973982E+01  7.59869910E+00  7.59869910E+00 -1.51973982E+01  7.59869910E+00
  7.59869910E+00 -1.51973982E+01  7.59869910E+00  7.59869910E+00 -1.51973982E+01
  7.59869910E+00  7.59869910E+00 -1.51973982E+01  7.59869910E+00  7.59869910E+00
 -1.51973982E+01  7.59869910E+00  7.59869910E+00 -1.51973982E+01  7.59869910E+00
  7.59869910E+00 -1.51973982E+01  7.59869910E+00  7.59869910E+00 -1.51973982E+01
  7.59869910E+00  7.59869910E+00 -1.51973982E+01  7.59869910E+00  7.59869910E+00
 -1.51973982E+01  7.59869910E+00  7.59869910E+00 -1.51973982E+01  7.59869910E+00
  7.59869910E+00 -1.51973982E+01  7.59869910E+00  7.59869910E+00 -1.51973982E+01
  7.59869910E+00  7.59869910E+00 -1.51973982E+01  7.59869910E+00  7.59869910E+00
 -1.51973982E+01  7.59869910E+00  7.59869910E+00 -1.51973982E+01  7.59869910E+00
  7.59869910E+00 -1.51973982E+01  7.59869910E+00  7.59869910E+00 -1.51973982E+01
  7.59869910E+00  7.59869910E+00 -1.51973982E+01  7.59869910E+00  7.59869910E+00
 -1.51973982E+01  7.59869910E+00  7.59869910E+00 -1.51973982E+01  7.59869910E+00
  7.59869910E+00 -1.51973982E+01  7.59869910E+00  7.59869910E+00 -1.51973982E+01
  7.59869910E+00  7.59869910E+00 -1.51973982E+01  7.59869910E+00  7.59869910E+00
 -1.51973982E+01  7.59869910E+00  7.59869910E+00 -1.51973982E+01  7.59869910E+00
  7.59869910E+00 -1.51973982E+01  7.59869910E+00  7.59869910E+00 -1.51973982E+01
  7.59869910E+00  7.59869910E+00 -1.51973982E+01  7.59869910E+00  7.59869910E+00
 -1.51973982E+01  7.59869910E+00  7.59869910E+00 -1.51973982E+01  7.59869910E+00
  7.59869910E+00 -1.51973982E+01  7.59869910E+00  7.59869910E+00 -1.51973982E+01
  7.59869910E+00  7.59869910E+00 -1.51973982E+01  7.59869910E+00  7.59869910E+00
 -1.51973982E+01  7.59869910E+00  7.59869910E+00 -1.51973982E+01  7.59869910E+00
  7.59869910E+00 -1.51973982E+01  7.59869910E+00  7.59869910E+00 -1.51973982E+01
  7.59869910E+00  7.59869910E+00 -1.51973982E+01  7.59869910E+00  7.59869910E+00
 -1.51973982E+01  7.59869910E+00  7.59869910E+00 -1.51973982E+01  7.59869910E+00
  7.59869910E+00 -1.51973982E+01  7.59869910E+00  7.59869910E+00 -1.51973982E+01
  7.59869910E+00  7.59869910E+00 -1.51973982E+01  7.59869910E+00  7.59869910E+00
 -1.51973982E+01  7.59869910E+00  7.59869910E+00 -1.51973982E+01  7.59869910E+00
  7.59869910E+00 -1.51973982E+01  7.59869910E+00  7.59869910E+00 -1.51973982E+01
  7.59869910E+00  7.59869910E+00 -1.51973982E+01  7.59869910E+00  7.59869910E+00
 -1.51973982E+01  7.59869910E+00  7.59869910E+00 -1.51973982E+01  7.59869910E+00
  7.59869910E+00 -1.51973982E+01  7.59869910E+00  7.59869910E+00 -1.51973982E+01
  7.59869910E+00  7.59869910E+00 -1.51973982E+01  7.59869910E+00  7.59869910E+00
 -1.51973982E+01  7.59869910E+00  7.59869910E+00 -1.51973982E+01  7.59869910E+00
  7.59869910E+00 -1.51973982E+01  7.59869910E+00  7.59869910E+00 -1.51973982E+01
  7.59869910E+00  7.59869910E+00 -1.51973982E+01  7.59869910E+00  7.59869910E+00
 -1.51973982E+01  7.59869910E+00  7.59869910E+00 -1.51973982E+01  7.59869910E+00
  7.59869910E+00 -1.51973982E+01  7.59869910E+00  7.59869910E+00 -1.51973982E+01
  7.59869910E+00  7.59869910E+00 -1.51973982E+01  7.59869910E+00  7.59869910E+00
 -1.51973982E+01  7.59869910E+00  7.59869910E+00 -1.51973982E+01  7.59869910E+00
  7.59869910E+00 -1.51973982E+01  7.59869910E+00  7.59869910E+00 -1.51973982E+01
  7.59869910E+00  7.59869910E+00 -1.51973982E+01  7.59869910E+00  7.59869910E+00
 -1.51973982E+01  7.59869910E+00  7.59869910E+00 -1.51973982E+01  7.59869910E+00
  7.59869910E+00 -1.51973982E+01  7.59869910E+00  7.59869910E+00 -1.51973982E+01
  7.59869910E+00  7.59869910E+00 -1.51973982E+01  7.59869910E+00  7.59869910E+00
 -1.51973982E+01  7.59869910E+00  7.59869910E+00 -1.51973982E+01  7.59869910E+00
  7.59869910E+00 -1.51973982E+01  7.59869910E+00  7.59869910E+00 -1.51973982E+01
  7.59869910E+00  7.59869910E+00 -1.51973982E+01  7.59869910E+00  7.59869910E+00
 -1.51973982E+01  7.59869910E+00  7.59869910E+00 -1.51973982E+01  7.59869910E+00
  7.59869910E+00 -1.51973982E+01  7.59869910E+00  7.59869910E+00 -1.51973982E+01
  7.59869910E+00  7.59869910E+00 -1.51973982E+01  7.59869910E+00  7.59869910E+00
 -1.51973982E+01  7.59869910E+00  7.59869910E+00 -1.51973982E+01  7.59869910E+00
  7.59869910E+00 -1.51973982E+01  7.59869910E+00  7.59869910E+00 -1.51973982E+01
  7.59869910E+00  7.59869910E+00 -1.51973982E+01  7.59869910E+00  7.59869910E+00
 -1.51973982E+01  7.59869910E+00  7.59869910E+00 -1.51973982E+01  7.59869910E+00
  7.59869910E+00 -1.51973982E+01  7.59869910E+00  7.59869910E+00 -1.51973982E+01
  7.59869910E+00  7.59869910E+00 -1.51973982E+01  7.59869910E+00  7.59869910E+00
 -1.51973982E+01  7.59869910E+00  7.59869910E+00 -1.51973982E+01  7.59869910E+00
  7.59869910E+00 -1.51973982E+01  7.59869910E+00  7.59869910E+00 -1.51973982E+01
  7.59869910E+00  7.59869910E+00 -1.51973982E+01  7.59869910E+00  7.59869910E+00
 -1.51973982E+01  7.59869910E+00  7.59869910E+00 -1.51973982E+01  7.59869910E+00
  7.59869910E+00 -1.51973982E+01  7.59869910E+00  7.59869910E+00 -1.51973982E+01
  7.59869910E+00  7.59869910E+00 -1.51973982E+01  7.59869910E+00  7.59869910E+00
 -1.51973982E+01  7.59869910E+00  7.59869910E+00 -1.51973982E+01  7.59869910E+00
  7.59869910E+00 -1.51973982E+01  7.59869910E+00  7.59869910E+00 -1.51973982E+01
  7.59869910E+00  7.59869910E+00 -1.51973982E+01  7.59869910E+00  7.59869910E+00
 -1.51973982E+01  7.59869910E+00  7.59869910E+00 -1.51973982E+01  7.59869910E+00
  7.59869910E+00 -1.51973982E+01  7.59869910E+00  7.59869910E+00 -1.51973982E+01
  7.59869910E+00  7.59869910E+00 -1.51973982E+01  7.59869910E+00  7.59869910E+00
 -1.51973982E+01  7.59869910E+00  7.59869910E+00 -1.51973982E+01  7.59869910E+00
  7.59869910E+00 -1.51973982E+01  7.59869910E+00  7.59869910E+00 -1.51973982E+01
  7.59869910E+00  7.59869910E+00 -1.51973982E+01  7.59869910E+00  7.59869910E+00
 -1.51973982E+01  7.59869910E+00  7.59869910E+00 -1.51973982E+01  7.59869910E+00
  7.59869910E+00 -1.51973982E+01  7.59869910E+00  7.59869910E+00 -1.51973982E+01
  7.59869910E+00  7.59869910E+00 -1.51973982E+01  7.59869910E+00  7.59869910E+00
 -1.51973982E+01  7.59869910E+00  7.59869910E+00 -1.51973982E+01  7.59869910E+00
  7.59869910E+00 -1.51973982E+01  7.59869910E+00  7.59869910E+00 -1.51973982E+01
  7.59869910E+00  7.59869910E+00 -1.51973982E+01  7.59869910E+00  7.59869910E+00
 -1.51973982E+01  7.59869910E+00  7.59869910E+00 -1.51973982E+01  7.59869910E+00
  7.59869910E+00 -1.51973982E+01  7.59869910E+00  7.59869910E+00 -1.51973982E+01
  7.59869910E+00  7.59869910E+00 -1.51973982E+01  7.59869910E+00  7.59869910E+00
 -1.51973982E+01  7.59869910E+00  7.59869910E+00 -1.51973982E+01  7.59869910E+00
  7.59869910E+00 -1.51973982E+01  7.59869910E+00  7.59869910E+00 -1.51973982E+01
  7.59869910E+00  7.59869910E+00 -1.51973982E+01  7.59869910E+00  7.59869910E+00
 -1.51973982E+01  7.59869910E+00  7.59869910E+00 -1.51973982E+01  7.59869910E+00
  7.59869910E+00 -1.51973982E+01  7.59869910E+00  7.59869910E+00 -1.51973982E+01
  7.59869910E+00  7.59869910E+00 -1.51973982E+01  7.59869910E+00  7.59869910E+00
 -1.51973982E+01  7.59869910E+00  7.59869910E+00 -1.51973982E+01  7.59869910E+00
  7.59869910E+00 -1.51973982E+01  7.59869910E+00  7.59869910E+00 -1.51973982E+01
  7.59869910E+00  7.59869910E+00 -1.51973982E+01  7.59869910E+00  7.59869910E+00
 -1.51973982E+01  7.59869910E+00  7.59869910E+00 -1.51973982E+01  7.59869910E+00
  7.59869910E+00 -1.51973982E+01  7.59869910E+00  7.59869910E+00 -1.51973982E+01
  7.59869910E+00  7.59869910E+00 -1.51973982E+01  7.59869910E+00  7.59869910E+00
 -1.51973982E+01  7.59869910E+00  7.59869910E+00 -1.51973982E+01  7.59869910E+00
  7.59869910E+00 -1.51973982E+01  7.59869910E+00  7.59869910E+00 -1.51973982E+01
  7.59869910E+00  7.59869910E+00 -1.51973982E+01  7.59869910E+00  7.59869910E+00
 -1.51973982E+01  7.59869910E+00  7.59869910E+00 -1.51973982E+01  7.59869910E+00
  7.59869910E+00 -1.51973982E+01  7.59869910E+00  7.59869910E+00 -1.51973982E+01
  7.59869910E+00  7.59869910E+00 -1.51973982E+01  7.59869910E+00  7.59869910E+00
 -1.51973982E+01  7.59869910E+00  7.59869910E+00 -1.51973982E+01  7.59869910E+00
  7.59869910E+00 -1.51973982E+01  7.59869910E+00  7.59869910E+00 -1.51973982E+01
  7.59869910E+00  7.59869910E+00 -1.51973982E+01  7.59869910E+00  7.59869910E+00
 -1.51973982E+01  7.59869910E+00  7.59869910E+00 -1.51973982E+01  7.59869910E+00
  7.59869910E+00 -1.51973982E+01  7.59869910E+00  7.59869910E+00 -1.51973982E+01
  7.59869910E+00  7.59869910E+00 -1.51973982E+01  7.59869910E+00  7.59869910E+00
 -1.51973982E+01  7.59869910E+00  7.59869910E+00 -1.51973982E+01  7.59869910E+00
  7.59869910E+00 -1.51973982E+01  7.59869910E+00  7.59869910E+00 -1.51973982E+01
  7.59869910E+00  7.59869910E+00 -1.51973982E+01  7.59869910E+00  7.59869910E+00
 -1.51973982E+01  7.59869910E+00  7.59869910E+00 -1.51973982E+01  7.59869910E+00
  7.59869910E+00 -1.51973982E+01  7.59869910E+00  7.59869910E+00 -1.51973982E+01
  7.59869910E+00  7.59869910E+00 -1.51973982E+01  7.59869910E+00  7.59869910E+00
 -1.51973982E+01  7.59869910E+00  7.59869910E+00 -1.51973982E+01  7.59869910E+00
  7.59869910E+00 -1.51973982E+01  7.59869910E+00  7.59869910E+00 -1.51973982E+01
  7.59869910E+00  7.59869910E+00 -1.51973982E+01  7.59869910E+00  7.59869910E+00
 -1.51973982E+01  7.59869910E+00  7.59869910E+00 -1.51973982E+01  7.59869910E+00
  7.59869910E+00 -1.51973982E+01  7.59869910E+00  7.59869910E+00 -1.51973982E+01
  7.59869910E+00  7.59869910E+00 -1.51973982E+01  7.59869910E+00  7.59869910E+00
 -1.51973982E+01  7.59869910E+00  7.59869910E+00 -1.51973982E+01  7.59869910E+00
  7.59869910E+00 -1.51973982E+01  7.59869910E+00  7.59869910E+00 -1.51973982E+01
  7.59869910E+00  7.59869910E+00 -1.51973982E+01  7.59869910E+00  7.59869910E+00
 -1.51973982E+01  7.59869910E+00  7.59869910E+00 -1.51973982E+01  7.59869910E+00
  7.59869910E+00 -1.51973982E+01  7.59869910E+00  7.59869910E+00 -1.51973982E+01
  7.59869910E+00  7.59869910E+00 -1.51973982E+01  7.59869910E+00  7.59869910E+00
 -1.51973982E+01  7.59869910E+00  7.59869910E+00 -1.51973982E+01  7.59869910E+00
  7.59869910E+00 -1.51973982E+01  7.59869910E+00  7.59869910E+00 -1.51973982E+01
  7.59869910E+00  7.59869910E+00 -1.51973982E+01  7.59869910E+00  7.59869910E+00
 -1.51973982E+01  7.59869910E+00  7.59869910E+00 -1.51973982E+01  7.59869910E+00
  7.59869910E+00 -1.51973982E+01  7.59869910E+00  7.59869910E+00 -1.51973982E+01
  7.59869910E+00  7.59869910E+00 -1.51973982E+01  7.59869910E+00  7.59869910E+00
 -1.51973982E+01  7.59869910E+00  7.59869910E+00 -1.51973982E+01  7.59869910E+00
  7.59869910E+00 -1.51973982E+01  7.59869910E+00  7.59869910E+00 -1.51973982E+01
  7.59869910E+00  7.59869910E+00 -1.51973982E+01  7.59869910E+00  7.59869910E+00
 -1.51973982E+01  7.59869910E+00  7.59869910E+00 -1.51973982E+01  7.59869910E+00
  7.59869910E+00 -1.51973982E+01  7.59869910E+00  7.59869910E+00 -1.51973982E+01
  7.59869910E+00  7.59869910E+00 -1.51973982E+01  7.59869910E+00  7.59869910E+00
 -1.51973982E+01  7.59869910E+00  7.59869910E+00 -1.51973982E+01  7.59869910E+00
  7.59869910E+00 -1.51973982E+01  7.59869910E+00  7.59869910E+00 -1.51973982E+01
  7.59869910E+00  7.59869910E+00 -1.51973982E+01  7.59869910E+00  7.59869910E+00
 -1.51973982E+01  7.59869910E+00  7.59869910E+00 -1.51973982E+01  7.59869910E+00
  7.59869910E+00 -1.51973982E+01  7.59869910E+00  7.59869910E+00 -1.51973982E+01
  7.59869910E+00  7.59869910E+00 -1.51973982E+01  7.59869910E+00  7.59869910E+00
 -1.51973982E+01  7.59869910E+00  7.59869910E+00 -1.51973982E+01  7.59869910E+00
  7.59869910E+00 -1.51973982E+01  7.59869910E+00  7.59869910E+00 -1.51973982E+01
  7.59869910E+00  7.59869910E+00 -1.51973982E+01  7.59869910E+00  7.59869910E+00
 -1.51973982E+01  7.59869910E+00  7.59869910E+00 -1.51973982E+01  7.59869910E+00
  7.59869910E+00 -1.51973982E+01  7.59869910E+00  7.59869910E+00 -1.51973982E+01
  7.59869910E+00  7.59869910E+00 -1.51973982E+01  7.59869910E+00  7.59869910E+00
 -1.51973982E+01  7.59869910E+00  7.59869910E+00 -1.51973982E+01  7.59869910E+00
  7.59869910E+00 -1.51973982E+01  7.59869910E+00  7.59869910E+00 -1.51973982E+01
  7.59869910E+00  7.59869910E+00 -1.51973982E+01  7.59869910E+00  7.59869910E+00
 -1.51973982E+01  7.59869910E+00  7.59869910E+00 -1.51973982E+01  7.59869910E+00
  7.59869910E+00 -1.51973982E+01  7.59869910E+00  7.59869910E+00 -1.51973982E+01
  7.59869910E+00  7.59869910E+00 -1.51973982E+01  7.59869910E+00  7.59869910E+00
 -1.51973982E+01  7.59869910E+00  7.59869910E+00 -1.51973982E+01  7.59869910E+00
  7.59869910E+00 -1.51973982E+01  7.59869910E+00  7.59869910E+00 -1.51973982E+01
  7.59869910E+00  7.59869910E+00 -1.51973982E+01  7.59869910E+00  7.59869910E+00
 -1.51973982E+01  7.59869910E+00  7.59869910E+00 -1.51973982E+01  7.59869910E+00
  7.59869910E+00 -1.51973982E+01  7.59869910E+00  7.59869910E+00 -1.51973982E+01
  7.59869910E+00  7.59869910E+00 -1.51973982E+01  7.59869910E+00  7.59869910E+00
 -1.51973982E+01  7.59869910E+00  7.59869910E+00 -1.51973982E+01  7.59869910E+00
  7.59869910E+00 -1.51973982E+01  7.59869910E+00  7.59869910E+00 -1.51973982E+01
  7.59869910E+00  7.59869910E+00 -1.51973982E+01  7.59869910E+00  7.59869910E+00
 -1.51973982E+01  7.59869910E+00  7.59869910E+00 -1.51973982E+01  7.59869910E+00
  7.59869910E+00 -1.51973982E+01  7.59869910E+00  7.59869910E+00 -1.51973982E+01
  7.59869910E+00  7.59869910E+00 -1.51973982E+01  7.59869910E+00  7.59869910E+00
 -1.51973982E+01  7.59869910E+00  7.59869910E+00 -1.51973982E+01  7.59869910E+00
  7.59869910E+00 -1.51973982E+01  7.59869910E+00  7.59869910E+00 -1.51973982E+01
  7.59869910E+00  7.59869910E+00 -1.51973982E+01  7.59869910E+00  7.59869910E+00
 -1.51973982E+01  7.59869910E+00  7.59869910E+00 -1.51973982E+01  7.59869910E+00
  7.59869910E+00 -1.51973982E+01  7.59869910E+00  7.59869910E+00 -1.51973982E+01
  7.59869910E+00  7.59869910E+00 -1.51973982E+01  7.59869910E+00  7.59869910E+00
 -1.51973982E+01  7.59869910E+00  7.59869910E+00 -1.51973982E+01  7.59869910E+00
  7.59869910E+00 -1.51973982E+01  7.59869910E+00  7.59869910E+00 -1.51973982E+01
  7.59869910E+00  7.59869910E+00 -1.51973982E+01  7.59869910E+00  7.59869910E+00
 -1.51973982E+01  7.59869910E+00  7.59869910E+00 -1.51973982E+01  7.59869910E+00
  7.59869910E+00 -1.51973982E+01  7.59869910E+00  7.59869910E+00 -1.51973982E+01
  7.59869910E+00  7.59869910E+00 -1.51973982E+01  7.59869910E+00  7.59869910E+00
 -1.51973982E+01  7.59869910E+00  7.59869910E+00 -1.51973982E+01  7.59869910E+00
  7.59869910E+00 -1.51973982E+01  7.59869910E+00  7.59869910E+00 -1.51973982E+01
  7.59869910E+00  7.59869910E+00 -1.51973982E+01  7.59869910E+00  7.59869910E+00
 -1.51973982E+01  7.59869910E+00  7.59869910E+00 -1.51973982E+01  7.59869910E+00
  7.59869910E+00 -1.51973982E+01  7.59869910E+00  7.59869910E+00 -1.51973982E+01
  7.59869910E+00  7.59869910E+00 -1.51973982E+01  7.59869910E+00  7.59869910E+00
 -1.51973982E+01  7.59869910E+00  7.59869910E+00 -1.51973982E+01  7.59869910E+00
  7.59869910E+00 -1.51973982E+01  7.59869910E+00  7.59869910E+00 -1.51973982E+01
  7.59869910E+00  7.59869910E+00 -1.51973982E+01  7.59869910E+00  7.59869910E+00
 -1.51973982E+01  7.59869910E+00  7.59869910E+00 -1.51973982E+01  7.59869910E+00
  7.59869910E+00 -1.51973982E+01  7.59869910E+00  7.59869910E+00 -1.51973982E+01
  7.59869910E+00  7.59869910E+00 -1.51973982E+01  7.59869910E+00  7.59869910E+00
 -1.51973982E+01  7.59869910E+00  7.59869910E+00 -1.51973982E+01  7.59869910E+00
  7.59869910E+00 -1.51973982E+01  7.59869910E+00  7.59869910E+00 -1.51973982E+01
  7.59869910E+00  7.59869910E+00 -1.51973982E+01  7.59869910E+00  7.59869910E+00
 -1.51973982E+01  7.59869910E+00  7.59869910E+00 -1.51973982E+01  7.59869910E+00
  7.59869910E+00 -1.51973982E+01  7.59869910E+00  7.59869910E+00 -1.51973982E+01
  7.59869910E+00  7.59869910E+00 -1.51973982E+01  7.59869910E+00  7.59869910E+00
 -1.51973982E+01  7.59869910E+00  7.59869910E+00 -1.51973982E+01  7.59869910E+00
  7.59869910E+00 -1.51973982E+01  7.59869910E+00  7.59869910E+00 -1.51973982E+01
  7.59869910E+00  7.59869910E+00 -1.51973982E+01  7.59869910E+00  7.59869910E+00
 -1.51973982E+01  7.59869910E+00  7.59869910E+00 -1.51973982E+01  7.59869910E+00
  7.59869910E+00 -1.51973982E+01  7.59869910E+00  7.59869910E+00 -1.51973982E+01
  7.59869910E+00  7.59869910E+00 -1.51973982E+01  7.59869910E+00  7.59869910E+00
 -1.51973982E+01  7.59869910E+00  7.59869910E+00 -1.51973982E+01  7.59869910E+00
  7.59869910E+00 -1.51973982E+01  7.59869910E+00  7.59869910E+00 -1.51973982E+01
  7.59869910E+00  7.59869910E+00 -1.51973982E+01  7.59869910E+00  7.59869910E+00
 -1.51973982E+01  7.59869910E+00  7.59869910E+00 -1.51973982E+01  7.59869910E+00
  7.59869910E+00 -1.51973982E+01  7.59869910E+00  7.59869910E+00 -1.51973982E+01
  7.59869910E+00  7.59869910E+00 -1.51973982E+01  7.59869910E+00  7.59869910E+00
 -1.51973982E+01  7.59869910E+00  7.59869910E+00 -1.51973982E+01  7.59869910E+00
  7.59869910E+00 -1.51973982E+01  7.59869910E+00  7.59869910E+00 -1.51973982E+01
  7.59869910E+00  7.59869910E+00 -1.51973982E+01  7.59869910E+00  7.59869910E+00
 -1.51973982E+01  7.59869910E+00  7.59869910E+00 -1.51973982E+01  7.59869910E+00
  7.59869910E+00 -1.51973982E+01  7.59869910E+00  7.59869910E+00 -1.51973982E+01
  7.59869910E+00  7.59869910E+00 -1.51973982E+01  7.59869910E+00  7.59869910E+00
 -1.51973982E+01  7.59869910E+00  7.59869910E+00 -1.51973982E+01  7.59869910E+00
  7.59869910E+00 -1.51973982E+01  7.59869910E+00  7.59869910E+00 -1.51973982E+01
  7.59869910E+00  7.59869910E+00 -1.51973982E+01  7.59869910E+00  7.59869910E+00
 -1.51973982E+01  7.59869910E+00  7.59869910E+00 -1.51973982E+01  7.59869910E+00
  7.59869910E+00 -1.51973982E+01  7.59869910E+00  7.59869910E+00 -1.51973982E+01
  7.59869910E+00  7.59869910E+00 -1.51973982E+01  7.59869910E+00  7.59869910E+00
 -1.51973982E+01  7.59869910E+00  7.59869910E+00 -1.51973982E+01  7.59869910E+00
  7.59869910E+00 -1.51973982E+01  7.59869910E+00  7.59869910E+00 -1.51973982E+01
  7.59869910E+00  7.59869910E+00 -1.51973982E+01  7.59869910E+00  7.59869910E+00
 -1.51973982E+01  7.59869910E+00  7.59869910E+00 -1.51973982E+01  7.59869910E+00
  7.59869910E+00 -1.51973982E+01  7.59869910E+00  7.59869910E+00 -1.51973982E+01
  7.59869910E+00  7.59869910E+00 -1.51973982E+01  7.59869910E+00  7.59869910E+00
 -1.51973982E+01  7.59869910E+00  7.59869910E+00 -1.51973982E+01  7.59869910E+00
  7.59869910E+00 -1.51973982E+01  7.59869910E+00  7.59869910E+00 -1.51973982E+01
  7.59869910E+00  7.59869910E+00 -1.51973982E+01  7.59869910E+00  7.59869910E+00
 -1.51973982E+01  7.59869910E+00  7.59869910E+00 -1.51973982E+01  7.59869910E+00
  7.59869910E+00 -1.51973982E+01  7.59869910E+00  7.59869910E+00 -1.51973982E+01
  7.59869910E+00  7.59869910E+00 -1.51973982E+01  7.59869910E+00  7.59869910E+00
 -1.51973982E+01  7.59869910E+00  7.59869910E+00 -1.51973982E+01  7.59869910E+00
  7.59869910E+00 -1.51973982E+01  7.59869910E+00  7.59869910E+00 -1.51973982E+01
  7.59869910E+00  7.59869910E+00 -1.51973982E+01  7.59869910E+00  7.59869910E+00
 -1.51973982E+01  7.59869910E+00  7.59869910E+00 -1.51973982E+01  7.59869910E+00
  7.59869910E+00 -1.51973982E+01  7.59869910E+00  7.59869910E+00 -1.51973982E+01
  7.59869910E+00  7.59869910E+00 -1.51973982E+01  7.59869910E+00  7.59869910E+00
 -1.51973982E+01  7.59869910E+00  7.59869910E+00 -1.51973982E+01  7.59869910E+00
  7.59869910E+00 -1.51973982E+01  7.59869910E+00  7.59869910E+00 -1.51973982E+01
  7.59869910E+00  7.59869910E+00 -1.51973982E+01  7.59869910E+00  7.59869910E+00
 -1.51973982E+01  7.59869910E+00  7.59869910E+00 -1.51973982E+01  7.59869910E+00
  7.59869910E+00 -1.51973982E+01  7.59869910E+00  7.59869910E+00 -1.51973982E+01
  7.59869910E+00  7.59869910E+00 -1.51973982E+01  7.59869910E+00  7.59869910E+00
 -1.51973982E+01  7.59869910E+00  7.59869910E+00 -1.51973982E+01  7.59869910E+00
  7.59869910E+00 -1.51973982E+01  7.59869910E+00  7.59869910E+00 -1.51973982E+01
  7.59869910E+00  7.59869910E+00 -1.51973982E+01  7.59869910E+00  7.59869910E+00
 -1.51973982E+01  7.59869910E+00  7.59869910E+00 -1.51973982E+01  7.59869910E+00
  7.59869910E+00 -1.51973982E+01  7.59869910E+00  7.59869910E+00 -1.51973982E+01
  7.59869910E+00  7.59869910E+00 -1.51973982E+01  7.59869910E+00  7.59869910E+00
 -1.51973982E+01  7.59869910E+00  7.59869910E+00 -1.51973982E+01  7.59869910E+00
  7.59869910E+00 -1.51973982E+01  7.59869910E+00  7.59869910E+00 -1.51973982E+01
  7.59869910E+00  7.59869910E+00 -1.51973982E+01  7.59869910E+00  7.59869910E+00
 -1.51973982E+01  7.59869910E+00  7.59869910E+00 -1.51973982E+01  7.59869910E+00
  7.59869910E+00 -1.51973982E+01  7.59869910E+00  7.59869910E+00 -1.51973982E+01
  7.59869910E+00  7.59869910E+00 -1.51973982E+01  7.59869910E+00  7.59869910E+00
 -1.51973982E+01  7.59869910E+00  7.59869910E+00 -1.51973982E+01  7.59869910E+00
  7.59869910E+00 -1.51973982E+01  7.59869910E+00  7.59869910E+00 -1.51973982E+01
  7.59869910E+00  7.59869910E+00 -1.51973982E+01  7.59869910E+00  7.59869910E+00
 -1.51973982E+01  7.59869910E+00  7.59869910E+00 -1.51973982E+01  7.59869910E+00
  7.59869910E+00 -1.51973982E+01  7.59869910E+00  7.59869910E+00 -1.51973982E+01
  7.59869910E+00  7.59869910E+00 -1.51973982E+01  7.59869910E+00  7.59869910E+00
 -1.51973982E+01  7.59869910E+00  7.59869910E+00 -1.51973982E+01  7.59869910E+00
  7.59869910E+00 -1.51973982E+01  7.59869910E+00  7.59869910E+00 -1.51973982E+01
  7.59869910E+00  7.59869910E+00 -1.51973982E+01  7.59869910E+00  7.59869910E+00
 -1.51973982E+01  7.59869910E+00  7.59869910E+00 -1.51973982E+01  7.59869910E+00
  7.59869910E+00 -1.51973982E+01  7.59869910E+00  7.59869910E+00 -1.51973982E+01
  7.59869910E+00  7.59869910E+00 -1.51973982E+01  7.59869910E+00  7.59869910E+00
 -1.51973982E+01  7.59869910E+00  7.59869910E+00 -1.51973982E+01  7.59869910E+00
  7.59869910E+00 -1.51973982E+01  7.59869910E+00  7.59869910E+00 -1.51973982E+01
  7.59869910E+00  7.59869910E+00 -1.51973982E+01  7.59869910E+00  7.59869910E+00
 -1.51973982E+01  7.59869910E+00  7.59869910E+00 -1.51973982E+01  7.59869910E+00
  7.59869910E+00 -1.51973982E+01  7.59869910E+00  7.59869910E+00 -1.51973982E+01
  7.59869910E+00  7.59869910E+00 -1.51973982E+01  7.59869910E+00  7.59869910E+00
 -1.51973982E+01  7.59869910E+00  7.59869910E+00 -1.51973982E+01  7.59869910E+00
  7.59869910E+00 -1.51973982E+01  7.59869910E+00  7.59869910E+00 -1.51973982E+01
  7.59869910E+00  7.59869910E+00 -1.51973982E+01  7.59869910E+00  7.59869910E+00
 -1.51973982E+01  7.59869910E+00  7.59869910E+00 -1.51973982E+01  7.59869910E+00
  7.59869910E+00 -1.51973982E+01  7.59869910E+00  7.59869910E+00 -1.51973982E+01
  7.59869910E+00  7.59869910E+00 -1.51973982E+01  7.59869910E+00  7.59869910E+00
 -1.51973982E+01  7.59869910E+00  7.59869910E+00 -1.51973982E+01  7.59869910E+00
  7.59869910E+00 -1.51973982E+01  7.59869910E+00  7.59869910E+00 -1.51973982E+01
  7.59869910E+00  7.59869910E+00 -1.51973982E+01  7.59869910E+00  7.59869910E+00
 -1.51973982E+01  7.59869910E+00  7.59869910E+00 -1.51973982E+01  7.59869910E+00
  7.59869910E+00 -1.51973982E+01  7.59869910E+00  7.59869910E+00 -1.51973982E+01
  7.59869910E+00  7.59869910E+00 -1.51973982E+01  7.59869910E+00  7.59869910E+00
 -1.51973982E+01  7.59869910E+00  7.59869910E+00 -1.51973982E+01  7.59869910E+00
  7.59869910E+00 -1.51973982E+01  7.59869910E+00  7.59869910E+00 -1.51973982E+01
  7.59869910E+00  7.59869910E+00 -1.51973982E+01  7.59869910E+00  7.59869910E+00
 -1.51973982E+01  7.59869910E+00  7.59869910E+00 -1.51973982E+01  7.59869910E+00
  7.59869910E+00 -1.51973982E+01  7.59869910E+00  7.59869910E+00 -1.51973982E+01
  7.59869910E+00  7.59869910E+00 -1.51973982E+01  7.59869910E+00  7.59869910E+00
 -1.51973982E+01  7.59869910E+00  7.59869910E+00 -1.51973982E+01  7.59869910E+00
  7.59869910E+00 -1.51973982E+01  7.59869910E+00  7.59869910E+00 -1.51973982E+01
  7.59869910E+00  7.59869910E+00 -1.51973982E+01  7.59869910E+00  7.59869910E+00
 -1.51973982E+01  7.59869910E+00  7.59869910E+00 -1.51973982E+01  7.59869910E+00
  7.59869910E+00 -1.51973982E+01  7.59869910E+00  7.59869910E+00 -1.51973982E+01
  7.59869910E+00  7.59869910E+00 -1.51973982E+01  7.59869910E+00  7.59869910E+00
 -1.51973982E+01  7.59869910E+00  7.59869910E+00 -1.51973982E+01  7.59869910E+00
  7.59869910E+00 -1.51973982E+01  7.59869910E+00  7.59869910E+00 -1.51973982E+01
  7.59869910E+00  7.59869910E+00 -1.51973982E+01  7.59869910E+00  7.59869910E+00
 -1.51973982E+01  7.59869910E+00  7.59869910E+00 -1.51973982E+01  7.59869910E+00
  7.59869910E+00 -1.51973982E+01  7.59869910E+00  7.59869910E+00 -1.51973982E+01
  7.59869910E+00  7.59869910E+00 -1.51973982E+01  7.59869910E+00  7.59869910E+00
 -1.51973982E+01  7.59869910E+00  7.59869910E+00 -1.51973982E+01  7.59869910E+00
  7.59869910E+00 -1.51973982E+01  7.59869910E+00  7.59869910E+00 -1.51973982E+01
  7.59869910E+00  7.59869910E+00 -1.51973982E+01  7.59869910E+00  7.59869910E+00
 -1.51973982E+01  7.59869910E+00  7.59869910E+00 -1.51973982E+01  7.59869910E+00
  7.59869910E+00 -1.51973982E+01  7.59869910E+00  7.59869910E+00 -1.51973982E+01
  7.59869910E+00  7.59869910E+00 -1.51973982E+01  7.59869910E+00  7.59869910E+00
 -1.51973982E+01  7.59869910E+00  7.59869910E+00 -1.51973982E+01  7.59869910E+00
  7.59869910E+00 -1.51973982E+01  7.59869910E+00  7.59869910E+00 -1.51973982E+01
  7.59869910E+00  7.59869910E+00 -1.51973982E+01  7.59869910E+00  7.59869910E+00
 -1.51973982E+01  7.59869910E+00  7.59869910E+00 -1.51973982E+01  7.59869910E+00
  7.59869910E+00 -1.51973982E+01  7.59869910E+00  7.59869910E+00 -1.51973982E+01
  7.59869910E+00  7.59869910E+00 -1.51973982E+01  7.59869910E+00  7.59869910E+00
 -1.51973982E+01  7.59869910E+00  7.59869910E+00 -1.51973982E+01  7.59869910E+00
  7.59869910E+00 -1.51973982E+01  7.59869910E+00  7.59869910E+00 -1.51973982E+01
  7.59869910E+00  7.59869910E+00 -1.51973982E+01  7.59869910E+00  7.59869910E+00
 -1.51973982E+01  7.59869910E+00  7.59869910E+00 -1.51973982E+01  7.59869910E+00
  7.59869910E+00 -1.51973982E+01  7.59869910E+00  7.59869910E+00 -1.51973982E+01
  7.59869910E+00  7.59869910E+00 -1.51973982E+01  7.59869910E+00  7.59869910E+00
 -1.51973982E+01  7.59869910E+00  7.59869910E+00 -1.51973982E+01  7.59869910E+00
  7.59869910E+00 -1.51973982E+01  7.59869910E+00  7.59869910E+00 -1.51973982E+01
  7.59869910E+00  7.59869910E+00 -1.51973982E+01  7.59869910E+00  7.59869910E+00
 -1.51973982E+01  7.59869910E+00  7.59869910E+00 -1.51973982E+01  7.59869910E+00
  7.59869910E+00 -1.51973982E+01  7.59869910E+00  7.59869910E+00 -1.51973982E+01
  7.59869910E+00  7.59869910E+00 -1.51973982E+01  7.59869910E+00  7.59869910E+00
 -1.51973982E+01  7.59869910E+00  7.59869910E+00 -1.51973982E+01  7.59869910E+00
  7.59869910E+00 -1.51973982E+01  7.59869910E+00  7.59869910E+00 -1.51973982E+01
  7.59869910E+00  7.59869910E+00 -1.51973982E+01  7.59869910E+00  7.59869910E+00
 -1.51973982E+01  7.59869910E+00  7.59869910E+00 -1.51973982E+01  7.59869910E+00
  7.59869910E+00 -1.51973982E+01  7.59869910E+00  7.59869910E+00 -1.51973982E+01
  7.59869910E+00  7.59869910E+00 -1.51973982E+01  7.59869910E+00  7.59869910E+00
 -1.51973982E+01  7.59869910E+00  7.59869910E+00 -1.51973982E+01  7.59869910E+00
  7.59869910E+00 -1.51973982E+01  7.59869910E+00  7.59869910E+00 -1.51973982E+01
  7.59869910E+00  7.59869910E+00 -1.51973982E+01  7.59869910E+00  7.59869910E+00
 -1.51973982E+01  7.59869910E+00  7.59869910E+00 -1.51973982E+01  7.59869910E+00
  7.59869910E+00 -1.51973982E+01  7.59869910E+00  7.59869910E+00 -1.51973982E+01
  7.59869910E+00  7.59869910E+00 -1.51973982E+01  7.59869910E+00  7.59869910E+00
 -1.51973982E+01  7.59869910E+00  7.59869910E+00 -1.51973982E+01  7.59869910E+00
  7.59869910E+00 -1.51973982E+01  7.59869910E+00  7.59869910E+00 -1.51973982E+01
  7.59869910E+00  7.59869910E+00 -1.51973982E+01  7.59869910E+00  7.59869910E+00
 -1.51973982E+01  7.59869910E+00  7.59869910E+00 -1.51973982E+01  7.59869910E+00
  7.59869910E+00 -1.51973982E+01  7.59869910E+00  7.59869910E+00 -1.51973982E+01
  7.59869910E+00  7.59869910E+00 -1.51973982E+01  7.59869910E+00  7.59869910E+00
 -1.51973982E+01  7.59869910E+00  7.59869910E+00 -1.51973982E+01  7.59869910E+00
  7.59869910E+00 -1.51973982E+01  7.59869910E+00  7.59869910E+00 -1.51973982E+01
  7.59869910E+00  7.59869910E+00 -1.51973982E+01  7.59869910E+00  7.59869910E+00
 -1.51973982E+01  7.59869910E+00  7.59869910E+00 -1.51973982E+01  7.59869910E+00
  7.59869910E+00 -1.51973982E+01  7.59869910E+00  7.59869910E+00 -1.51973982E+01
  7.59869910E+00  7.59869910E+00 -1.51973982E+01  7.59869910E+00  7.59869910E+00
 -1.51973982E+01  7.59869910E+00  7.59869910E+00 -1.51973982E+01  7.59869910E+00
  7.59869910E+00 -1.51973982E+01  7.59869910E+00  7.59869910E+00 -1.51973982E+01
  7.59869910E+00  7.59869910E+00 -1.51973982E+01  7.59869910E+00  7.59869910E+00
 -1.51973982E+01  7.59869910E+00  7.59869910E+00 -1.51973982E+01  7.59869910E+00
  7.59869910E+00 -1.51973982E+01  7.59869910E+00  7.59869910E+00 -1.51973982E+01
  7.59869910E+00  7.59869910E+00 -1.51973982E+01  7.59869910E+00  7.59869910E+00
 -1.51973982E+01  7.59869910E+00  7.59869910E+00 -1.51973982E+01  7.59869910E+00
  7.59869910E+00 -1.51973982E+01  7.59869910E+00  7.59869910E+00 -1.51973982E+01
  7.59869910E+00  7.59869910E+00 -1.51973982E+01  7.59869910E+00  7.59869910E+00
 -1.51973982E+01  7.59869910E+00  7.59869910E+00 -1.51973982E+01  7.59869910E+00
  7.59869910E+00 -1.51973982E+01  7.59869910E+00  7.59869910E+00 -1.51973982E+01
  7.59869910E+00  7.59869910E+00 -1.51973982E+01  7.59869910E+00  7.59869910E+00
 -1.51973982E+01  7.59869910E+00  7.59869910E+00 -1.51973982E+01  7.59869910E+00
  7.59869910E+00 -1.51973982E+01  7.59869910E+00  7.59869910E+00 -1.51973982E+01
  7.59869910E+00  7.59869910E+00 -1.51973982E+01  7.59869910E+00  7.59869910E+00
 -1.51973982E+01  7.59869910E+00  7.59869910E+00 -1.51973982E+01  7.59869910E+00
  7.59869910E+00 -1.51973982E+01  7.59869910E+00  7.59869910E+00 -1.51973982E+01
  7.59869910E+00  7.59869910E+00 -1.51973982E+01  7.59869910E+00  7.59869910E+00
 -1.51973982E+01  7.59869910E+00  7.59869910E+00 -1.51973982E+01  7.59869910E+00
  7.59869910E+00 -1.51973982E+01  7.59869910E+00  7.59869910E+00 -1.51973982E+01
  7.59869910E+00  7.59869910E+00 -1.51973982E+01  7.59869910E+00  7.59869910E+00
 -1.51973982E+01  7.59869910E+00  7.59869910E+00 -1.51973982E+01  7.59869910E+00
  7.59869910E+00 -1.51973982E+01  7.59869910E+00  7.59869910E+00 -1.51973982E+01
  7.59869910E+00  7.59869910E+00 -1.51973982E+01  7.59869910E+00  7.59869910E+00
 -1.51973982E+01  7.59869910E+00  7.59869910E+00 -1.51973982E+01  7.59869910E+00
  7.59869910E+00 -1.51973982E+01  7.59869910E+00  7.59869910E+00 -1.51973982E+01
  7.59869910E+00  7.59869910E+00 -1.51973982E+01  7.59869910E+00  7.59869910E+00
 -1.51973982E+01  7.59869910E+00  7.59869910E+00 -1.51973982E+01  7.59869910E+00
  7.59869910E+00 -1.51973982E+01  7.59869910E+00  7.59869910E+00 -1.51973982E+01
  7.59869910E+00  7.59869910E+00 -1.51973982E+01  7.59869910E+00  7.59869910E+00
 -1.51973982E+01  7.59869910E+00  7.59869910E+00 -1.51973982E+01  7.59869910E+00
  7.59869910E+00 -1.51973982E+01  7.59869910E+00  7.59869910E+00 -1.51973982E+01
  7.59869910E+00  7.59869910E+00 -1.51973982E+01  7.59869910E+00  7.59869910E+00
 -1.51973982E+01  7.59869910E+00  7.59869910E+00 -1.51973982E+01  7.59869910E+00
  7.59869910E+00 -1.51973982E+01  7.59869910E+00  7.59869910E+00 -1.51973982E+01
  7.59869910E+00  7.59869910E+00 -1.51973982E+01  7.59869910E+00  7.59869910E+00
 -1.51973982E+01  7.59869910E+00  7.59869910E+00 -1.51973982E+01  7.59869910E+00
  7.59869910E+00 -1.51973982E+01  7.59869910E+00  7.59869910E+00 -1.51973982E+01
  7.59869910E+00  7.59869910E+00 -1.51973982E+01  7.59869910E+00  7.59869910E+00
 -1.51973982E+01  7.59869910E+00  7.59869910E+00 -1.51973982E+01  7.59869910E+00
  7.59869910E+00 -1.51973982E+01  7.59869910E+00  7.59869910E+00 -1.51973982E+01
  7.59869910E+00  7.59869910E+00 -1.51973982E+01  7.59869910E+00  7.59869910E+00
 -1.51973982E+01  7.59869910E+00  7.59869910E+00 -1.51973982E+01  7.59869910E+00
  7.59869910E+00 -1.51973982E+01  7.59869910E+00  7.59869910E+00 -1.51973982E+01
  7.59869910E+00  7.59869910E+00 -1.51973982E+01  7.59869910E+00  7.59869910E+00
 -1.51973982E+01  7.59869910E+00  7.59869910E+00 -1.51973982E+01  7.59869910E+00
  7.59869910E+00 -1.51973982E+01  7.59869910E+00  7.59869910E+00 -1.51973982E+01
  7.59869910E+00  7.59869910E+00 -1.51973982E+01  7.59869910E+00  7.59869910E+00
 -1.51973982E+01  7.59869910E+00  7.59869910E+00 -1.51973982E+01  7.59869910E+00
  7.59869910E+00 -1.51973982E+01  7.59869910E+00  7.59869910E+00 -1.51973982E+01
  7.59869910E+00  7.59869910E+00 -1.51973982E+01  7.59869910E+00  7.59869910E+00
 -1.51973982E+01  7.59869910E+00  7.59869910E+00 -1.51973982E+01  7.59869910E+00
  7.59869910E+00 -1.51973982E+01  7.59869910E+00  7.59869910E+00 -1.51973982E+01
  7.59869910E+00  7.59869910E+00 -1.51973982E+01  7.59869910E+00  7.59869910E+00
 -1.51973982E+01  7.59869910E+00  7.59869910E+00 -1.51973982E+01  7.59869910E+00
  7.59869910E+00 -1.51973982E+01  7.59869910E+00  7.59869910E+00 -1.51973982E+01
  7.59869910E+00  7.59869910E+00 -1.51973982E+01  7.59869910E+00  7.59869910E+00
 -1.51973982E+01  7.59869910E+00  7.59869910E+00 -1.51973982E+01  7.59869910E+00
  7.59869910E+00 -1.51973982E+01  7.59869910E+00  7.59869910E+00 -1.51973982E+01
  7.59869910E+00  7.59869910E+00 -1.51973982E+01  7.59869910E+00  7.59869910E+00
 -1.51973982E+01  7.59869910E+00  7.59869910E+00 -1.51973982E+01  7.59869910E+00
  7.59869910E+00 -1.51973982E+01  7.59869910E+00  7.59869910E+00 -1.51973982E+01
  7.59869910E+00  7.59869910E+00 -1.51973982E+01  7.59869910E+00  7.59869910E+00
 -1.51973982E+01  7.59869910E+00  7.59869910E+00 -1.51973982E+01  7.59869910E+00
  7.59869910E+00 -1.51973982E+01  7.59869910E+00  7.59869910E+00 -1.51973982E+01
  7.59869910E+00  7.59869910E+00 -1.51973982E+01  7.59869910E+00  7.59869910E+00
 -1.51973982E+01  7.59869910E+00  7.59869910E+00 -1.51973982E+01  7.59869910E+00
  7.59869910E+00 -1.51973982E+01  7.59869910E+00  7.59869910E+00 -1.51973982E+01
  7.59869910E+00  7.59869910E+00 -1.51973982E+01  7.59869910E+00  7.59869910E+00
 -1.51973982E+01  7.59869910E+00  7.59869910E+00 -1.51973982E+01  7.59869910E+00
  7.59869910E+00 -1.51973982E+01  7.59869910E+00  7.59869910E+00 -1.51973982E+01
  7.59869910E+00  7.59869910E+00 -1.51973982E+01  7.59869910E+00  7.59869910E+00
 -1.51973982E+01  7.59869910E+00  7.59869910E+00 -1.51973982E+01  7.59869910E+00
  7.59869910E+00 -1.51973982E+01  7.59869910E+00  7.59869910E+00 -1.51973982E+01
  7.59869910E+00  7.59869910E+00 -1.51973982E+01  7.59869910E+00  7.59869910E+00
 -1.51973982E+01  7.59869910E+00  7.59869910E+00 -1.51973982E+01  7.59869910E+00
  7.59869910E+00 -1.51973982E+01  7.59869910E+00  7.59869910E+00 -1.51973982E+01
  7.59869910E+00  7.59869910E+00 -1.51973982E+01  7.59869910E+00  7.59869910E+00
 -1.51973982E+01  7.59869910E+00  7.59869910E+00 -1.51973982E+01  7.59869910E+00
  7.59869910E+00 -1.51973982E+01  7.59869910E+00  7.59869910E+00 -1.51973982E+01
  7.59869910E+00  7.59869910E+00 -1.51973982E+01  7.59869910E+00  7.59869910E+00
 -1.51973982E+01  7.59869910E+00  7.59869910E+00 -1.51973982E+01  7.59869910E+00
  7.59869910E+00 -1.51973982E+01  7.59869910E+00  7.59869910E+00 -1.51973982E+01
  7.59869910E+00  7.59869910E+00 -1.51973982E+01  7.59869910E+00  7.59869910E+00
 -1.51973982E+01  7.59869910E+00  7.59869910E+00 -1.51973982E+01  7.59869910E+00
  7.59869910E+00 -1.51973982E+01  7.59869910E+00  7.59869910E+00 -1.51973982E+01
  7.59869910E+00  7.59869910E+00 -1.51973982E+01  7.59869910E+00  7.59869910E+00
 -1.51973982E+01  7.59869910E+00  7.59869910E+00 -1.51973982E+01  7.59869910E+00
  7.59869910E+00 -1.51973982E+01  7.59869910E+00  7.59869910E+00 -1.51973982E+01
  7.59869910E+00  7.59869910E+00 -1.51973982E+01  7.59869910E+00  7.59869910E+00
 -1.51973982E+01  7.59869910E+00  7.59869910E+00 -1.51973982E+01  7.59869910E+00
  7.59869910E+00 -1.51973982E+01  7.59869910E+00  7.59869910E+00 -1.51973982E+01
  7.59869910E+00  7.59869910E+00 -1.51973982E+01  7.59869910E+00  7.59869910E+00
 -1.51973982E+01  7.59869910E+00  7.59869910E+00 -1.51973982E+01  7.59869910E+00
  7.59869910E+00 -1.51973982E+01  7.59869910E+00  7.59869910E+00 -1.51973982E+01
  7.59869910E+00  7.59869910E+00 -1.51973982E+01  7.59869910E+00  7.59869910E+00
 -1.51973982E+01  7.59869910E+00  7.59869910E+00 -1.51973982E+01  7.59869910E+00
  7.59869910E+00 -1.51973982E+01  7.59869910E+00  7.59869910E+00 -1.51973982E+01
  7.59869910E+00  7.59869910E+00 -1.51973982E+01  7.59869910E+00  7.59869910E+00
 -1.51973982E+01  7.59869910E+00  7.59869910E+00 -1.51973982E+01  7.59869910E+00
  7.59869910E+00 -1.51973982E+01  7.59869910E+00  7.59869910E+00 -1.51973982E+01
  7.59869910E+00  7.59869910E+00 -1.51973982E+01  7.59869910E+00  7.59869910E+00
 -1.51973982E+01  7.59869910E+00  7.59869910E+00 -1.51973982E+01  7.59869910E+00
  7.59869910E+00 -1.51973982E+01  7.59869910E+00  7.59869910E+00 -1.51973982E+01
  7.59869910E+00  7.59869910E+00 -1.51973982E+01  7.59869910E+00  7.59869910E+00
 -1.51973982E+01  7.59869910E+00  7.59869910E+00 -1.51973982E+01  7.59869910E+00
  7.59869910E+00 -1.51973982E+01  7.59869910E+00  7.59869910E+00 -1.51973982E+01
  7.59869910E+00  7.59869910E+00 -1.51973982E+01  7.59869910E+00  7.59869910E+00
 -1.51973982E+01  7.59869910E+00  7.59869910E+00 -1.51973982E+01  7.59869910E+00
  7.59869910E+00 -1.51973982E+01  7.59869910E+00  7.59869910E+00 -1.51973982E+01
  7.59869910E+00  7.59869910E+00 -1.51973982E+01  7.59869910E+00  7.59869910E+00
 -1.51973982E+01  7.59869910E+00  7.59869910E+00 -1.51973982E+01  7.59869910E+00
  7.59869910E+00 -1.51973982E+01  7.59869910E+00  7.59869910E+00 -1.51973982E+01
  7.59869910E+00  7.59869910E+00 -1.51973982E+01  7.59869910E+00  7.59869910E+00
 -1.51973982E+01  7.59869910E+00  7.59869910E+00 -1.51973982E+01  7.59869910E+00
  7.59869910E+00 -1.51973982E+01  7.59869910E+00  7.59869910E+00 -1.51973982E+01
  7.59869910E+00  7.59869910E+00 -1.51973982E+01  7.59869910E+00  7.59869910E+00
 -1.51973982E+01  7.59869910E+00  7.59869910E+00 -1.51973982E+01  7.59869910E+00
  7.59869910E+00 -1.51973982E+01  7.59869910E+00  7.59869910E+00 -1.51973982E+01
  7.59869910E+00  7.59869910E+00 -1.51973982E+01  7.59869910E+00  7.59869910E+00
 -1.51973982E+01  7.59869910E+00  7.59869910E+00 -1.51973982E+01  7.59869910E+00
  7.59869910E+00 -1.51973982E+01  7.59869910E+00  7.59869910E+00 -1.51973982E+01
  7.59869910E+00  7.59869910E+00 -1.51973982E+01  7.59869910E+00  7.59869910E+00
 -1.51973982E+01  7.59869910E+00  7.59869910E+00 -1.51973982E+01  7.59869910E+00
  7.59869910E+00 -1.51973982E+01  7.59869910E+00  7.59869910E+00 -1.51973982E+01
  7.59869910E+00  7.59869910E+00 -1.51973982E+01  7.59869910E+00  7.59869910E+00
 -1.51973982E+01  7.59869910E+00  7.59869910E+00 -1.51973982E+01  7.59869910E+00
  7.59869910E+00 -1.51973982E+01  7.59869910E+00  7.59869910E+00 -1.51973982E+01
  7.59869910E+00  7.59869910E+00 -1.51973982E+01  7.59869910E+00  7.59869910E+00
 -1.51973982E+01  7.59869910E+00  7.59869910E+00 -1.51973982E+01  7.59869910E+00
  7.59869910E+00 -1.51973982E+01  7.59869910E+00  7.59869910E+00 -1.51973982E+01
  7.59869910E+00  7.59869910E+00 -1.51973982E+01  7.59869910E+00  7.59869910E+00
 -1.51973982E+01  7.59869910E+00  7.59869910E+00 -1.51973982E+01  7.59869910E+00
  7.59869910E+00 -1.51973982E+01  7.59869910E+00  7.59869910E+00 -1.51973982E+01
  7.59869910E+00  7.59869910E+00 -1.51973982E+01  7.59869910E+00  7.59869910E+00
 -1.51973982E+01  7.59869910E+00  7.59869910E+00 -1.51973982E+01  7.59869910E+00
  7.59869910E+00 -1.51973982E+01  7.59869910E+00  7.59869910E+00 -1.51973982E+01
  7.59869910E+00  7.59869910E+00 -1.51973982E+01  7.59869910E+00  7.59869910E+00
 -1.51973982E+01  7.59869910E+00  7.59869910E+00 -1.51973982E+01  7.59869910E+00
  7.59869910E+00 -1.51973982E+01  7.59869910E+00  7.59869910E+00 -1.51973982E+01
  7.59869910E+00  7.59869910E+00 -1.51973982E+01  7.59869910E+00  7.59869910E+00
 -1.51973982E+01  7.59869910E+00  7.59869910E+00 -1.51973982E+01  7.59869910E+00
  7.59869910E+00 -1.51973982E+01  7.59869910E+00  7.59869910E+00 -1.51973982E+01
  7.59869910E+00  7.59869910E+00 -1.51973982E+01  7.59869910E+00  7.59869910E+00
 -1.51973982E+01  7.59869910E+00  7.59869910E+00 -1.51973982E+01  7.59869910E+00
  7.59869910E+00 -1.51973982E+01  7.59869910E+00  7.59869910E+00 -1.51973982E+01
  7.59869910E+00  7.59869910E+00 -1.51973982E+01  7.59869910E+00  7.59869910E+00
 -1.51973982E+01  7.59869910E+00  7.59869910E+00 -1.51973982E+01  7.59869910E+00
  7.59869910E+00 -1.51973982E+01  7.59869910E+00  7.59869910E+00 -1.51973982E+01
  7.59869910E+00  7.59869910E+00 -1.51973982E+01  7.59869910E+00  7.59869910E+00
 -1.51973982E+01  7.59869910E+00  7.59869910E+00 -1.51973982E+01  7.59869910E+00
  7.59869910E+00 -1.51973982E+01  7.59869910E+00  7.59869910E+00 -1.51973982E+01
  7.59869910E+00  7.59869910E+00 -1.51973982E+01  7.59869910E+00  7.59869910E+00
 -1.51973982E+01  7.59869910E+00  7.59869910E+00 -1.51973982E+01  7.59869910E+00
  7.59869910E+00 -1.51973982E+01  7.59869910E+00  7.59869910E+00 -1.51973982E+01
  7.59869910E+00  7.59869910E+00 -1.51973982E+01  7.59869910E+00  7.59869910E+00
 -1.51973982E+01  7.59869910E+00  7.59869910E+00 -1.51973982E+01  7.59869910E+00
  7.59869910E+00 -1.51973982E+01  7.59869910E+00  7.59869910E+00 -1.51973982E+01
  7.59869910E+00  7.59869910E+00 -1.51973982E+01  7.59869910E+00  7.59869910E+00
 -1.51973982E+01  7.59869910E+00  7.59869910E+00 -1.51973982E+01  7.59869910E+00
  7.59869910E+00 -1.51973982E+01  7.59869910E+00  7.59869910E+00 -1.51973982E+01
  7.59869910E+00  7.59869910E+00 -1.51973982E+01  7.59869910E+00  7.59869910E+00
 -1.51973982E+01  7.59869910E+00  7.59869910E+00 -1.51973982E+01  7.59869910E+00
  7.59869910E+00 -1.51973982E+01  7.59869910E+00  7.59869910E+00 -1.51973982E+01
  7.59869910E+00  7.59869910E+00 -1.51973982E+01  7.59869910E+00  7.59869910E+00
 -1.51973982E+01  7.59869910E+00  7.59869910E+00 -1.51973982E+01  7.59869910E+00
  7.59869910E+00 -1.51973982E+01  7.59869910E+00  7.59869910E+00 -1.51973982E+01
  7.59869910E+00  7.59869910E+00 -1.51973982E+01  7.59869910E+00  7.59869910E+00
 -1.51973982E+01  7.59869910E+00  7.59869910E+00 -1.51973982E+01  7.59869910E+00
  7.59869910E+00 -1.51973982E+01  7.59869910E+00  7.59869910E+00 -1.51973982E+01
  7.59869910E+00  7.59869910E+00 -1.51973982E+01  7.59869910E+00  7.59869910E+00
 -1.51973982E+01  7.59869910E+00  7.59869910E+00 -1.51973982E+01  7.59869910E+00
  7.59869910E+00 -1.51973982E+01  7.59869910E+00  7.59869910E+00 -1.51973982E+01
  7.59869910E+00  7.59869910E+00 -1.51973982E+01  7.59869910E+00  7.59869910E+00
 -1.51973982E+01  7.59869910E+00  7.59869910E+00 -1.51973982E+01  7.59869910E+00
  7.59869910E+00 -1.51973982E+01  7.59869910E+00  7.59869910E+00 -1.51973982E+01
  7.59869910E+00  7.59869910E+00 -1.51973982E+01  7.59869910E+00  7.59869910E+00
 -1.51973982E+01  7.59869910E+00  7.59869910E+00 -1.51973982E+01  7.59869910E+00
  7.59869910E+00 -1.51973982E+01  7.59869910E+00  7.59869910E+00 -1.51973982E+01
  7.59869910E+00  7.59869910E+00 -1.51973982E+01  7.59869910E+00  7.59869910E+00
 -1.51973982E+01  7.59869910E+00  7.59869910E+00 -1.51973982E+01  7.59869910E+00
  7.59869910E+00 -1.51973982E+01  7.59869910E+00  7.59869910E+00 -1.51973982E+01
  7.59869910E+00  7.59869910E+00 -1.51973982E+01  7.59869910E+00  7.59869910E+00
 -1.51973982E+01  7.59869910E+00  7.59869910E+00 -1.51973982E+01  7.59869910E+00
  7.59869910E+00 -1.51973982E+01  7.59869910E+00  7.59869910E+00 -1.51973982E+01
  7.59869910E+00  7.59869910E+00 -1.51973982E+01  7.59869910E+00  7.59869910E+00
 -1.51973982E+01  7.59869910E+00  7.59869910E+00 -1.51973982E+01  7.59869910E+00
  7.59869910E+00 -1.51973982E+01  7.59869910E+00  7.59869910E+00 -1.51973982E+01
  7.59869910E+00  7.59869910E+00 -1.51973982E+01  7.59869910E+00  7.59869910E+00
 -1.51973982E+01  7.59869910E+00  7.59869910E+00 -1.51973982E+01  7.59869910E+00
  7.59869910E+00 -1.51973982E+01  7.59869910E+00  7.59869910E+00 -1.51973982E+01
  7.59869910E+00  7.59869910E+00 -1.51973982E+01  7.59869910E+00  7.59869910E+00
 -1.51973982E+01  7.59869910E+00  7.59869910E+00 -1.51973982E+01  7.59869910E+00
  7.59869910E+00 -1.51973982E+01  7.59869910E+00  7.59869910E+00 -1.51973982E+01
  7.59869910E+00  7.59869910E+00 -1.51973982E+01  7.59869910E+00  7.59869910E+00
 -1.51973982E+01  7.59869910E+00  7.59869910E+00 -1.51973982E+01  7.59869910E+00
  7.59869910E+00 -1.51973982E+01  7.59869910E+00  7.59869910E+00 -1.51973982E+01
  7.59869910E+00  7.59869910E+00 -1.51973982E+01  7.59869910E+00  7.59869910E+00
 -1.51973982E+01  7.59869910E+00  7.59869910E+00 -1.51973982E+01  7.59869910E+00
  7.59869910E+00 -1.51973982E+01  7.59869910E+00  7.59869910E+00 -1.51973982E+01
  7.59869910E+00  7.59869910E+00 -1.51973982E+01  7.59869910E+00  7.59869910E+00
 -1.51973982E+01  7.59869910E+00  7.59869910E+00 -1.51973982E+01  7.59869910E+00
  7.59869910E+00 -1.51973982E+01  7.59869910E+00  7.59869910E+00 -1.51973982E+01
  7.59869910E+00  7.59869910E+00 -1.51973982E+01  7.59869910E+00  7.59869910E+00
 -1.51973982E+01  7.59869910E+00  7.59869910E+00 -1.51973982E+01  7.59869910E+00
  7.59869910E+00 -1.51973982E+01  7.59869910E+00  7.59869910E+00 -1.51973982E+01
  7.59869910E+00  7.59869910E+00 -1.51973982E+01  7.59869910E+00  7.59869910E+00
 -1.51973982E+01  7.59869910E+00  7.59869910E+00 -1.51973982E+01  7.59869910E+00
  7.59869910E+00 -1.51973982E+01  7.59869910E+00  7.59869910E+00 -1.51973982E+01
  7.59869910E+00  7.59869910E+00 -1.51973982E+01  7.59869910E+00  7.59869910E+00
 -1.51973982E+01  7.59869910E+00  7.59869910E+00 -1.51973982E+01  7.59869910E+00
  7.59869910E+00 -1.51973982E+01  7.59869910E+00  7.59869910E+00 -1.51973982E+01
  7.59869910E+00  7.59869910E+00 -1.51973982E+01  7.59869910E+00  7.59869910E+00
 -1.51973982E+01  7.59869910E+00  7.59869910E+00 -1.51973982E+01  7.59869910E+00
  7.59869910E+00 -1.51973982E+01  7.59869910E+00  7.59869910E+00 -1.51973982E+01
  7.59869910E+00  7.59869910E+00 -1.51973982E+01  7.59869910E+00  7.59869910E+00
 -1.51973982E+01  7.59869910E+00  7.59869910E+00 -1.51973982E+01  7.59869910E+00
  7.59869910E+00 -1.51973982E+01  7.59869910E+00  7.59869910E+00 -1.51973982E+01
  7.59869910E+00  7.59869910E+00 -1.51973982E+01  7.59869910E+00  7.59869910E+00
 -1.51973982E+01  7.59869910E+00  7.59869910E+00 -1.51973982E+01  7.59869910E+00
  7.59869910E+00 -1.51973982E+01  7.59869910E+00  7.59869910E+00 -1.51973982E+01
  7.59869910E+00  7.59869910E+00 -1.51973982E+01  7.59869910E+00  7.59869910E+00
 -1.51973982E+01  7.59869910E+00  7.59869910E+00 -1.51973982E+01  7.59869910E+00
  7.59869910E+00 -1.51973982E+01  7.59869910E+00  7.59869910E+00 -1.51973982E+01
  7.59869910E+00  7.59869910E+00 -1.51973982E+01  7.59869910E+00  7.59869910E+00
 -1.51973982E+01  7.59869910E+00  7.59869910E+00 -1.51973982E+01  7.59869910E+00
  7.59869910E+00 -1.51973982E+01  7.59869910E+00  7.59869910E+00 -1.51973982E+01
  7.59869910E+00  7.59869910E+00 -1.51973982E+01  7.59869910E+00  7.59869910E+00
 -1.51973982E+01  7.59869910E+00  7.59869910E+00 -1.51973982E+01  7.59869910E+00
  7.59869910E+00 -1.51973982E+01  7.59869910E+00  7.59869910E+00 -1.51973982E+01
  7.59869910E+00  7.59869910E+00 -1.51973982E+01  7.59869910E+00  7.59869910E+00
 -1.51973982E+01  7.59869910E+00  7.59869910E+00 -1.51973982E+01  7.59869910E+00
  7.59869910E+00 -1.51973982E+01  7.59869910E+00  7.59869910E+00 -1.51973982E+01
  7.59869910E+00  7.59869910E+00 -1.51973982E+01  7.59869910E+00  7.59869910E+00
 -1.51973982E+01  7.59869910E+00  7.59869910E+00 -1.51973982E+01  7.59869910E+00
  7.59869910E+00 -1.51973982E+01  7.59869910E+00  7.59869910E+00 -1.51973982E+01
  7.59869910E+00  7.59869910E+00 -1.51973982E+01  7.59869910E+00  7.59869910E+00
 -1.51973982E+01  7.59869910E+00  7.59869910E+00 -1.51973982E+01  7.59869910E+00
  7.59869910E+00 -1.51973982E+01  7.59869910E+00  7.59869910E+00 -1.51973982E+01
  7.59869910E+00  7.59869910E+00 -1.51973982E+01  7.59869910E+00  7.59869910E+00
 -1.51973982E+01  7.59869910E+00  7.59869910E+00 -1.51973982E+01  7.59869910E+00
  7.59869910E+00 -1.51973982E+01  7.59869910E+00  7.59869910E+00 -1.51973982E+01
  7.59869910E+00  7.59869910E+00 -1.51973982E+01  7.59869910E+00  7.59869910E+00
 -1.51973982E+01  7.59869910E+00  7.59869910E+00 -1.51973982E+01  7.59869910E+00
  7.59869910E+00 -1.51973982E+01  7.59869910E+00  7.59869910E+00 -1.51973982E+01
  7.59869910E+00  7.59869910E+00 -1.51973982E+01  7.59869910E+00  7.59869910E+00
 -1.51973982E+01  7.59869910E+00  7.59869910E+00 -1.51973982E+01  7.59869910E+00
  7.59869910E+00 -1.51973982E+01  7.59869910E+00  7.59869910E+00 -1.51973982E+01
  7.59869910E+00  7.59869910E+00 -1.51973982E+01  7.59869910E+00  7.59869910E+00
 -1.51973982E+01  7.59869910E+00  7.59869910E+00 -1.51973982E+01  7.59869910E+00
  7.59869910E+00 -1.51973982E+01  7.59869910E+00  7.59869910E+00 -1.51973982E+01
  7.59869910E+00  7.59869910E+00 -1.51973982E+01  7.59869910E+00  7.59869910E+00
 -1.51973982E+01  7.59869910E+00  7.59869910E+00 -1.51973982E+01  7.59869910E+00
  7.59869910E+00 -1.51973982E+01  7.59869910E+00  7.59869910E+00 -1.51973982E+01
  7.59869910E+00  7.59869910E+00 -1.51973982E+01  7.59869910E+00  7.59869910E+00
 -1.51973982E+01  7.59869910E+00  7.59869910E+00 -1.51973982E+01  7.59869910E+00
  7.59869910E+00 -1.51973982E+01  7.59869910E+00  7.59869910E+00 -1.51973982E+01
  7.59869910E+00  7.59869910E+00 -1.51973982E+01  7.59869910E+00  7.59869910E+00
 -1.51973982E+01  7.59869910E+00  7.59869910E+00 -1.51973982E+01  7.59869910E+00
  7.59869910E+00 -1.51973982E+01  7.59869910E+00  7.59869910E+00 -1.51973982E+01
  7.59869910E+00  7.59869910E+00 -1.51973982E+01  7.59869910E+00  7.59869910E+00
 -1.51973982E+01  7.59869910E+00  7.59869910E+00 -1.51973982E+01  7.59869910E+00
  7.59869910E+00 -1.51973982E+01  7.59869910E+00  7.59869910E+00 -1.51973982E+01
  7.59869910E+00  7.59869910E+00 -1.51973982E+01  7.59869910E+00  7.59869910E+00
 -1.51973982E+01  7.59869910E+00  7.59869910E+00 -1.51973982E+01  7.59869910E+00
  7.59869910E+00 -1.51973982E+01  7.59869910E+00  7.59869910E+00 -1.51973982E+01
  7.59869910E+00  7.59869910E+00 -1.51973982E+01  7.59869910E+00  7.59869910E+00
 -1.51973982E+01  7.59869910E+00  7.59869910E+00 -1.51973982E+01  7.59869910E+00
  7.59869910E+00 -1.51973982E+01  7.59869910E+00  7.59869910E+00 -1.51973982E+01
  7.59869910E+00  7.59869910E+00 -1.51973982E+01  7.59869910E+00  7.59869910E+00
 -1.51973982E+01  7.59869910E+00  7.59869910E+00 -1.51973982E+01  7.59869910E+00
  7.59869910E+00 -1.51973982E+01  7.59869910E+00  7.59869910E+00 -1.51973982E+01
  7.59869910E+00  7.59869910E+00 -1.51973982E+01  7.59869910E+00  7.59869910E+00
 -1.51973982E+01  7.59869910E+00  7.59869910E+00 -1.51973982E+01  7.59869910E+00
  7.59869910E+00 -1.51973982E+01  7.59869910E+00  7.59869910E+00 -1.51973982E+01
  7.59869910E+00  7.59869910E+00 -1.51973982E+01  7.59869910E+00  7.59869910E+00
 -1.51973982E+01  7.59869910E+00  7.59869910E+00 -1.51973982E+01  7.59869910E+00
  7.59869910E+00 -1.51973982E+01  7.59869910E+00  7.59869910E+00 -1.51973982E+01
  7.59869910E+00  7.59869910E+00 -1.51973982E+01  7.59869910E+00  7.59869910E+00
 -1.51973982E+01  7.59869910E+00  7.59869910E+00 -1.51973982E+01  7.59869910E+00
  7.59869910E+00 -1.51973982E+01  7.59869910E+00  7.59869910E+00 -1.51973982E+01
  7.59869910E+00  7.59869910E+00 -1.51973982E+01  7.59869910E+00  7.59869910E+00
 -1.51973982E+01  7.59869910E+00  7.59869910E+00 -1.51973982E+01  7.59869910E+00
  7.59869910E+00 -1.51973982E+01  7.59869910E+00  7.59869910E+00 -1.51973982E+01
  7.59869910E+00  7.59869910E+00 -1.51973982E+01  7.59869910E+00  7.59869910E+00
 -1.51973982E+01  7.59869910E+00  7.59869910E+00 -1.51973982E+01  7.59869910E+00
  7.59869910E+00 -1.51973982E+01  7.59869910E+00  7.59869910E+00 -1.51973982E+01
  7.59869910E+00  7.59869910E+00 -1.51973982E+01  7.59869910E+00  7.59869910E+00
 -1.51973982E+01  7.59869910E+00  7.59869910E+00 -1.51973982E+01  7.59869910E+00
  7.59869910E+00 -1.51973982E+01  7.59869910E+00  7.59869910E+00 -1.51973982E+01
  7.59869910E+00  7.59869910E+00 -1.51973982E+01  7.59869910E+00  7.59869910E+00
 -1.51973982E+01  7.59869910E+00  7.59869910E+00 -1.51973982E+01  7.59869910E+00
  7.59869910E+00 -1.51973982E+01  7.59869910E+00  7.59869910E+00 -1.51973982E+01
  7.59869910E+00  7.59869910E+00 -1.51973982E+01  7.59869910E+00  7.59869910E+00
 -1.51973982E+01  7.59869910E+00  7.59869910E+00 -1.51973982E+01  7.59869910E+00
  7.59869910E+00 -1.51973982E+01  7.59869910E+00  7.59869910E+00 -1.51973982E+01
  7.59869910E+00  7.59869910E+00 -1.51973982E+01  7.59869910E+00  7.59869910E+00
 -1.51973982E+01  7.59869910E+00  7.59869910E+00 -1.51973982E+01  7.59869910E+00
  7.59869910E+00 -1.51973982E+01  7.59869910E+00  7.59869910E+00 -1.51973982E+01
  7.59869910E+00  7.59869910E+00 -1.51973982E+01  7.59869910E+00  7.59869910E+00
 -1.51973982E+01  7.59869910E+00  7.59869910E+00 -1.51973982E+01  7.59869910E+00
  7.59869910E+00 -1.51973982E+01  7.59869910E+00  7.59869910E+00 -1.51973982E+01
  7.59869910E+00  7.59869910E+00 -1.51973982E+01  7.59869910E+00  7.59869910E+00
 -1.51973982E+01  7.59869910E+00  7.59869910E+00 -1.51973982E+01  7.59869910E+00
  7.59869910E+00 -1.51973982E+01  7.59869910E+00  7.59869910E+00 -1.51973982E+01
  7.59869910E+00  7.59869910E+00 -1.51973982E+01  7.59869910E+00  7.59869910E+00
 -1.51973982E+01  7.59869910E+00  7.59869910E+00 -1.51973982E+01  7.59869910E+00
  7.59869910E+00 -1.51973982E+01  7.59869910E+00  7.59869910E+00 -1.51973982E+01
  7.59869910E+00  7.59869910E+00 -1.51973982E+01  7.59869910E+00  7.59869910E+00
 -1.51973982E+01  7.59869910E+00  7.59869910E+00 -1.51973982E+01  7.59869910E+00
  7.59869910E+00 -1.51973982E+01  7.59869910E+00  7.59869910E+00 -1.51973982E+01
  7.59869910E+00  7.59869910E+00 -1.51973982E+01  7.59869910E+00  7.59869910E+00
 -1.51973982E+01  7.59869910E+00  7.59869910E+00 -1.51973982E+01  7.59869910E+00
  7.59869910E+00 -1.51973982E+01  7.59869910E+00  7.59869910E+00 -1.51973982E+01
  7.59869910E+00  7.59869910E+00 -1.51973982E+01  7.59869910E+00  7.59869910E+00
 -1.51973982E+01  7.59869910E+00  7.59869910E+00 -1.51973982E+01  7.59869910E+00
  7.59869910E+00 -1.51973982E+01  7.59869910E+00  7.59869910E+00 -1.51973982E+01
  7.59869910E+00  7.59869910E+00 -1.51973982E+01  7.59869910E+00  7.59869910E+00
 -1.51973982E+01  7.59869910E+00  7.59869910E+00 -1.51973982E+01  7.59869910E+00
  7.59869910E+00 -1.51973982E+01  7.59869910E+00  7.59869910E+00 -1.51973982E+01
  7.59869910E+00  7.59869910E+00 -1.51973982E+01  7.59869910E+00  7.59869910E+00
 -1.51973982E+01  7.59869910E+00  7.59869910E+00 -1.51973982E+01  7.59869910E+00
  7.59869910E+00 -1.51973982E+01  7.59869910E+00  7.59869910E+00 -1.51973982E+01
  7.59869910E+00  7.59869910E+00 -1.51973982E+01  7.59869910E+00  7.59869910E+00
 -1.51973982E+01  7.59869910E+00  7.59869910E+00 -1.51973982E+01  7.59869910E+00
  7.59869910E+00 -1.51973982E+01  7.59869910E+00  7.59869910E+00 -1.51973982E+01
  7.59869910E+00  7.59869910E+00 -1.51973982E+01  7.59869910E+00  7.59869910E+00
 -1.51973982E+01  7.59869910E+00  7.59869910E+00 -1.51973982E+01  7.59869910E+00
  7.59869910E+00 -1.51973982E+01  7.59869910E+00  7.59869910E+00 -1.51973982E+01
  7.59869910E+00  7.59869910E+00 -1.51973982E+01  7.59869910E+00  7.59869910E+00
 -1.51973982E+01  7.59869910E+00  7.59869910E+00 -1.51973982E+01  7.59869910E+00
  7.59869910E+00 -1.51973982E+01  7.59869910E+00  7.59869910E+00 -1.51973982E+01
  7.59869910E+00  7.59869910E+00 -1.51973982E+01  7.59869910E+00  7.59869910E+00
 -1.51973982E+01  7.59869910E+00  7.59869910E+00 -1.51973982E+01  7.59869910E+00
  7.59869910E+00 -1.51973982E+01  7.59869910E+00  7.59869910E+00 -1.51973982E+01
  7.59869910E+00  7.59869910E+00 -1.51973982E+01  7.59869910E+00  7.59869910E+00
 -1.51973982E+01  7.59869910E+00  7.59869910E+00 -1.51973982E+01  7.59869910E+00
  7.59869910E+00 -1.51973982E+01  7.59869910E+00  7.59869910E+00 -1.51973982E+01
  7.59869910E+00  7.59869910E+00 -1.51973982E+01  7.59869910E+00  7.59869910E+00
 -1.51973982E+01  7.59869910E+00  7.59869910E+00 -1.51973982E+01  7.59869910E+00
  7.59869910E+00 -1.51973982E+01  7.59869910E+00  7.59869910E+00 -1.51973982E+01
  7.59869910E+00  7.59869910E+00 -1.51973982E+01  7.59869910E+00  7.59869910E+00
 -1.51973982E+01  7.59869910E+00  7.59869910E+00 -1.51973982E+01  7.59869910E+00
  7.59869910E+00 -1.51973982E+01  7.59869910E+00  7.59869910E+00 -1.51973982E+01
  7.59869910E+00  7.59869910E+00 -1.51973982E+01  7.59869910E+00  7.59869910E+00
 -1.51973982E+01  7.59869910E+00  7.59869910E+00 -1.51973982E+01  7.59869910E+00
  7.59869910E+00 -1.51973982E+01  7.59869910E+00  7.59869910E+00 -1.51973982E+01
  7.59869910E+00  7.59869910E+00 -1.51973982E+01  7.59869910E+00  7.59869910E+00
 -1.51973982E+01  7.59869910E+00  7.59869910E+00 -1.51973982E+01  7.59869910E+00
  7.59869910E+00 -1.51973982E+01  7.59869910E+00  7.59869910E+00 -1.51973982E+01
  7.59869910E+00  7.59869910E+00 -1.51973982E+01  7.59869910E+00  7.59869910E+00
 -1.51973982E+01  7.59869910E+00  7.59869910E+00 -1.51973982E+01  7.59869910E+00
  7.59869910E+00 -1.51973982E+01  7.59869910E+00  7.59869910E+00 -1.51973982E+01
  7.59869910E+00  7.59869910E+00 -1.51973982E+01  7.59869910E+00  7.59869910E+00
 -1.51973982E+01  7.59869910E+00  7.59869910E+00 -1.51973982E+01  7.59869910E+00
  7.59869910E+00 -1.51973982E+01  7.59869910E+00  7.59869910E+00 -1.51973982E+01
  7.59869910E+00  7.59869910E+00 -1.51973982E+01  7.59869910E+00  7.59869910E+00
 -1.51973982E+01  7.59869910E+00  7.59869910E+00 -1.51973982E+01  7.59869910E+00
  7.59869910E+00 -1.51973982E+01  7.59869910E+00  7.59869910E+00 -1.51973982E+01
  7.59869910E+00  7.59869910E+00 -1.51973982E+01  7.59869910E+00  7.59869910E+00
 -1.51973982E+01  7.59869910E+00  7.59869910E+00 -1.51973982E+01  7.59869910E+00
  7.59869910E+00 -1.51973982E+01  7.59869910E+00  7.59869910E+00 -1.51973982E+01
  7.59869910E+00  7.59869910E+00 -1.51973982E+01  7.59869910E+00  7.59869910E+00
 -1.51973982E+01  7.59869910E+00  7.59869910E+00 -1.51973982E+01  7.59869910E+00
  7.59869910E+00 -1.51973982E+01  7.59869910E+00  7.59869910E+00 -1.51973982E+01
  7.59869910E+00  7.59869910E+00 -1.51973982E+01  7.59869910E+00  7.59869910E+00
 -1.51973982E+01  7.59869910E+00  7.59869910E+00 -1.51973982E+01  7.59869910E+00
  7.59869910E+00 -1.51973982E+01  7.59869910E+00  7.59869910E+00 -1.51973982E+01
  7.59869910E+00  7.59869910E+00 -1.51973982E+01  7.59869910E+00  7.59869910E+00
 -1.51973982E+01  7.59869910E+00  7.59869910E+00 -1.51973982E+01  7.59869910E+00
  7.59869910E+00 -1.51973982E+01  7.59869910E+00  7.59869910E+00 -1.51973982E+01
  7.59869910E+00  7.59869910E+00 -1.51973982E+01  7.59869910E+00  7.59869910E+00
 -1.51973982E+01  7.59869910E+00  7.59869910E+00 -1.51973982E+01  7.59869910E+00
  7.59869910E+00 -1.51973982E+01  7.59869910E+00  7.59869910E+00 -1.51973982E+01
  7.59869910E+00  7.59869910E+00 -1.51973982E+01  7.59869910E+00  7.59869910E+00
 -1.51973982E+01  7.59869910E+00  7.59869910E+00 -1.51973982E+01  7.59869910E+00
  7.59869910E+00 -1.51973982E+01  7.59869910E+00  7.59869910E+00 -1.51973982E+01
  7.59869910E+00  7.59869910E+00 -1.51973982E+01  7.59869910E+00  7.59869910E+00
 -1.51973982E+01  7.59869910E+00  7.59869910E+00 -1.51973982E+01  7.59869910E+00
  7.59869910E+00 -1.51973982E+01  7.59869910E+00  7.59869910E+00 -1.51973982E+01
  7.59869910E+00  7.59869910E+00 -1.51973982E+01  7.59869910E+00  7.59869910E+00
 -1.51973982E+01  7.59869910E+00  7.59869910E+00 -1.51973982E+01  7.59869910E+00
  7.59869910E+00 -1.51973982E+01  7.59869910E+00  7.59869910E+00 -1.51973982E+01
  7.59869910E+00  7.59869910E+00 -1.51973982E+01  7.59869910E+00  7.59869910E+00
 -1.51973982E+01  7.59869910E+00  7.59869910E+00 -1.51973982E+01  7.59869910E+00
  7.59869910E+00 -1.51973982E+01  7.59869910E+00  7.59869910E+00 -1.51973982E+01
  7.59869910E+00  7.59869910E+00 -1.51973982E+01  7.59869910E+00  7.59869910E+00
 -1.51973982E+01  7.59869910E+00  7.59869910E+00 -1.51973982E+01  7.59869910E+00
  7.59869910E+00 -1.51973982E+01  7.59869910E+00  7.59869910E+00 -1.51973982E+01
  7.59869910E+00  7.59869910E+00 -1.51973982E+01  7.59869910E+00  7.59869910E+00
 -1.51973982E+01  7.59869910E+00  7.59869910E+00 -1.51973982E+01  7.59869910E+00
  7.59869910E+00 -1.51973982E+01  7.59869910E+00  7.59869910E+00 -1.51973982E+01
  7.59869910E+00  7.59869910E+00 -1.51973982E+01  7.59869910E+00  7.59869910E+00
 -1.51973982E+01  7.59869910E+00  7.59869910E+00 -1.51973982E+01  7.59869910E+00
  7.59869910E+00 -1.51973982E+01  7.59869910E+00  7.59869910E+00 -1.51973982E+01
  7.59869910E+00  7.59869910E+00 -1.51973982E+01  7.59869910E+00  7.59869910E+00
 -1.51973982E+01  7.59869910E+00  7.59869910E+00 -1.51973982E+01  7.59869910E+00
  7.59869910E+00 -1.51973982E+01  7.59869910E+00  7.59869910E+00 -1.51973982E+01
  7.59869910E+00  7.59869910E+00 -1.51973982E+01  7.59869910E+00  7.59869910E+00
 -1.51973982E+01  7.59869910E+00  7.59869910E+00 -1.51973982E+01  7.59869910E+00
  7.59869910E+00 -1.51973982E+01  7.59869910E+00  7.59869910E+00 -1.51973982E+01
  7.59869910E+00  7.59869910E+00 -1.51973982E+01  7.59869910E+00  7.59869910E+00
 -1.51973982E+01  7.59869910E+00  7.59869910E+00 -1.51973982E+01  7.59869910E+00
  7.59869910E+00 -1.51973982E+01  7.59869910E+00  7.59869910E+00 -1.51973982E+01
  7.59869910E+00  7.59869910E+00 -1.51973982E+01  7.59869910E+00  7.59869910E+00
 -1.51973982E+01  7.59869910E+00  7.59869910E+00 -1.51973982E+01  7.59869910E+00
  7.59869910E+00 -1.51973982E+01  7.59869910E+00  7.59869910E+00 -1.51973982E+01
  7.59869910E+00  7.59869910E+00 -1.51973982E+01  7.59869910E+00  7.59869910E+00
 -1.51973982E+01  7.59869910E+00  7.59869910E+00 -1.51973982E+01  7.59869910E+00
  7.59869910E+00 -1.51973982E+01  7.59869910E+00  7.59869910E+00 -1.51973982E+01
  7.59869910E+00  7.59869910E+00 -1.51973982E+01  7.59869910E+00  7.59869910E+00
 -1.51973982E+01  7.59869910E+00  7.59869910E+00 -1.51973982E+01  7.59869910E+00
  7.59869910E+00 -1.51973982E+01  7.59869910E+00  7.59869910E+00 -1.51973982E+01
  7.59869910E+00  7.59869910E+00 -1.51973982E+01  7.59869910E+00  7.59869910E+00
 -1.51973982E+01  7.59869910E+00  7.59869910E+00 -1.51973982E+01  7.59869910E+00
  7.59869910E+00 -1.51973982E+01  7.59869910E+00  7.59869910E+00 -1.51973982E+01
  7.59869910E+00  7.59869910E+00 -1.51973982E+01  7.59869910E+00  7.59869910E+00
 -1.51973982E+01  7.59869910E+00  7.59869910E+00 -1.51973982E+01  7.59869910E+00
  7.59869910E+00 -1.51973982E+01  7.59869910E+00  7.59869910E+00 -1.51973982E+01
  7.59869910E+00  7.59869910E+00 -1.51973982E+01  7.59869910E+00  7.59869910E+00
 -1.51973982E+01  7.59869910E+00  7.59869910E+00 -1.51973982E+01  7.59869910E+00
  7.59869910E+00 -1.51973982E+01  7.59869910E+00  7.59869910E+00 -1.51973982E+01
  7.59869910E+00  7.59869910E+00 -1.51973982E+01  7.59869910E+00  7.59869910E+00
 -1.51973982E+01  7.59869910E+00  7.59869910E+00 -1.51973982E+01  7.59869910E+00
  7.59869910E+00 -1.51973982E+01  7.59869910E+00  7.59869910E+00 -1.51973982E+01
  7.59869910E+00  7.59869910E+00 -1.51973982E+01  7.59869910E+00  7.59869910E+00
 -1.51973982E+01  7.59869910E+00  7.59869910E+00 -1.51973982E+01  7.59869910E+00
  7.59869910E+00 -1.51973982E+01  7.59869910E+00  7.59869910E+00 -1.51973982E+01
  7.59869910E+00  7.59869910E+00 -1.51973982E+01  7.59869910E+00  7.59869910E+00
 -1.51973982E+01  7.59869910E+00  7.59869910E+00 -1.51973982E+01  7.59869910E+00
  7.59869910E+00 -1.51973982E+01  7.59869910E+00  7.59869910E+00 -1.51973982E+01
  7.59869910E+00  7.59869910E+00 -1.51973982E+01  7.59869910E+00  7.59869910E+00
 -1.51973982E+01  7.59869910E+00  7.59869910E+00 -1.51973982E+01  7.59869910E+00
  7.59869910E+00 -1.51973982E+01  7.59869910E+00  7.59869910E+00 -1.51973982E+01
  7.59869910E+00  7.59869910E+00 -1.51973982E+01  7.59869910E+00  7.59869910E+00
 -1.51973982E+01  7.59869910E+00  7.59869910E+00 -1.51973982E+01  7.59869910E+00
  7.59869910E+00 -1.51973982E+01  7.59869910E+00  7.59869910E+00 -1.51973982E+01
  7.59869910E+00  7.59869910E+00 -1.51973982E+01  7.59869910E+00  7.59869910E+00
 -1.51973982E+01  7.59869910E+00  7.59869910E+00 -1.51973982E+01  7.59869910E+00
  7.59869910E+00 -1.51973982E+01  7.59869910E+00  7.59869910E+00 -1.51973982E+01
  7.59869910E+00  7.59869910E+00 -1.51973982E+01  7.59869910E+00  7.59869910E+00
 -1.51973982E+01  7.59869910E+00  7.59869910E+00 -1.51973982E+01  7.59869910E+00
  7.59869910E+00 -1.51973982E+01  7.59869910E+00  7.59869910E+00 -1.51973982E+01
  7.59869910E+00  7.59869910E+00 -1.51973982E+01  7.59869910E+00  7.59869910E+00
 -1.51973982E+01  7.59869910E+00  7.59869910E+00 -1.51973982E+01  7.59869910E+00
  7.59869910E+00 -1.51973982E+01  7.59869910E+00  7.59869910E+00 -1.51973982E+01
  7.59869910E+00  7.59869910E+00 -1.51973982E+01  7.59869910E+00  7.59869910E+00
 -1.51973982E+01  7.59869910E+00  7.59869910E+00 -1.51973982E+01  7.59869910E+00
  7.59869910E+00 -1.51973982E+01  7.59869910E+00  7.59869910E+00 -1.51973982E+01
  7.59869910E+00  7.59869910E+00 -1.51973982E+01  7.59869910E+00  7.59869910E+00
 -1.51973982E+01  7.59869910E+00  7.59869910E+00 -1.51973982E+01  7.59869910E+00
  7.59869910E+00 -1.51973982E+01  7.59869910E+00  7.59869910E+00 -1.51973982E+01
  7.59869910E+00  7.59869910E+00 -1.51973982E+01  7.59869910E+00  7.59869910E+00
 -1.51973982E+01  7.59869910E+00  7.59869910E+00 -1.51973982E+01  7.59869910E+00
  7.59869910E+00 -1.51973982E+01  7.59869910E+00  7.59869910E+00 -1.51973982E+01
  7.59869910E+00  7.59869910E+00 -1.51973982E+01  7.59869910E+00  7.59869910E+00
 -1.51973982E+01  7.59869910E+00  7.59869910E+00 -1.51973982E+01  7.59869910E+00
  7.59869910E+00 -1.51973982E+01  7.59869910E+00  7.59869910E+00 -1.51973982E+01
  7.59869910E+00  7.59869910E+00 -1.51973982E+01  7.59869910E+00  7.59869910E+00
 -1.51973982E+01  7.59869910E+00  7.59869910E+00 -1.51973982E+01  7.59869910E+00
  7.59869910E+00 -1.51973982E+01  7.59869910E+00  7.59869910E+00 -1.51973982E+01
  7.59869910E+00  7.59869910E+00 -1.51973982E+01  7.59869910E+00  7.59869910E+00
 -1.51973982E+01  7.59869910E+00  7.59869910E+00 -1.51973982E+01  7.59869910E+00
  7.59869910E+00 -1.51973982E+01  7.59869910E+00  7.59869910E+00 -1.51973982E+01
  7.59869910E+00  7.59869910E+00 -1.51973982E+01  7.59869910E+00  7.59869910E+00
 -1.51973982E+01  7.59869910E+00  7.59869910E+00 -1.51973982E+01  7.59869910E+00
  7.59869910E+00 -1.51973982E+01  7.59869910E+00  7.59869910E+00 -1.51973982E+01
  7.59869910E+00  7.59869910E+00 -1.51973982E+01  7.59869910E+00  7.59869910E+00
 -1.51973982E+01  7.59869910E+00  7.59869910E+00 -1.51973982E+01  7.59869910E+00
  7.59869910E+00 -1.51973982E+01  7.59869910E+00  7.59869910E+00 -1.51973982E+01
  7.59869910E+00  7.59869910E+00 -1.51973982E+01  7.59869910E+00  7.59869910E+00
 -1.51973982E+01  7.59869910E+00  7.59869910E+00 -1.51973982E+01  7.59869910E+00
  7.59869910E+00 -1.51973982E+01  7.59869910E+00  7.59869910E+00 -1.51973982E+01
  7.59869910E+00  7.59869910E+00 -1.51973982E+01  7.59869910E+00  7.59869910E+00
 -1.51973982E+01  7.59869910E+00  7.59869910E+00 -1.51973982E+01  7.59869910E+00
  7.59869910E+00 -1.51973982E+01  7.59869910E+00  7.59869910E+00 -1.51973982E+01
  7.59869910E+00  7.59869910E+00 -1.51973982E+01  7.59869910E+00  7.59869910E+00
 -1.51973982E+01  7.59869910E+00  7.59869910E+00 -1.51973982E+01  7.59869910E+00
  7.59869910E+00 -1.51973982E+01  7.59869910E+00  7.59869910E+00 -1.51973982E+01
  7.59869910E+00  7.59869910E+00 -1.51973982E+01  7.59869910E+00  7.59869910E+00
 -1.51973982E+01  7.59869910E+00  7.59869910E+00 -1.51973982E+01  7.59869910E+00
  7.59869910E+00 -1.51973982E+01  7.59869910E+00  7.59869910E+00 -1.51973982E+01
  7.59869910E+00  7.59869910E+00 -1.51973982E+01  7.59869910E+00  7.59869910E+00
 -1.51973982E+01  7.59869910E+00  7.59869910E+00 -1.51973982E+01  7.59869910E+00
  7.59869910E+00 -1.51973982E+01  7.59869910E+00  7.59869910E+00 -1.51973982E+01
  7.59869910E+00  7.59869910E+00 -1.51973982E+01  7.59869910E+00  7.59869910E+00
 -1.51973982E+01  7.59869910E+00  7.59869910E+00 -1.51973982E+01  7.59869910E+00
  7.59869910E+00 -1.51973982E+01  7.59869910E+00  7.59869910E+00 -1.51973982E+01
  7.59869910E+00  7.59869910E+00 -1.51973982E+01  7.59869910E+00  7.59869910E+00
 -1.51973982E+01  7.59869910E+00  7.59869910E+00 -1.51973982E+01  7.59869910E+00
  7.59869910E+00 -1.51973982E+01  7.59869910E+00  7.59869910E+00 -1.51973982E+01
  7.59869910E+00  7.59869910E+00 -1.51973982E+01  7.59869910E+00  7.59869910E+00
 -1.51973982E+01  7.59869910E+00  7.59869910E+00 -1.51973982E+01  7.59869910E+00
  7.59869910E+00 -1.51973982E+01  7.59869910E+00  7.59869910E+00 -1.51973982E+01
  7.59869910E+00  7.59869910E+00 -1.51973982E+01  7.59869910E+00  7.59869910E+00
 -1.51973982E+01  7.59869910E+00  7.59869910E+00 -1.51973982E+01  7.59869910E+00
  7.59869910E+00 -1.51973982E+01  7.59869910E+00  7.59869910E+00 -1.51973982E+01
  7.59869910E+00  7.59869910E+00 -1.51973982E+01  7.59869910E+00  7.59869910E+00
 -1.51973982E+01  7.59869910E+00  7.59869910E+00 -1.51973982E+01  7.59869910E+00
  7.59869910E+00 -1.51973982E+01  7.59869910E+00  7.59869910E+00 -1.51973982E+01
  7.59869910E+00  7.59869910E+00 -1.51973982E+01  7.59869910E+00  7.59869910E+00
 -1.51973982E+01  7.59869910E+00  7.59869910E+00 -1.51973982E+01  7.59869910E+00
  7.59869910E+00 -1.51973982E+01  7.59869910E+00  7.59869910E+00 -1.51973982E+01
  7.59869910E+00  7.59869910E+00 -1.51973982E+01  7.59869910E+00  7.59869910E+00
 -1.51973982E+01  7.59869910E+00  7.59869910E+00 -1.51973982E+01  7.59869910E+00
  7.59869910E+00 -1.51973982E+01  7.59869910E+00  7.59869910E+00 -1.51973982E+01
  7.59869910E+00  7.59869910E+00 -1.51973982E+01  7.59869910E+00  7.59869910E+00
 -1.51973982E+01  7.59869910E+00  7.59869910E+00 -1.51973982E+01  7.59869910E+00
  7.59869910E+00 -1.51973982E+01  7.59869910E+00  7.59869910E+00 -1.51973982E+01
  7.59869910E+00  7.59869910E+00 -1.51973982E+01  7.59869910E+00  7.59869910E+00
 -1.51973982E+01  7.59869910E+00  7.59869910E+00 -1.51973982E+01  7.59869910E+00
  7.59869910E+00 -1.51973982E+01  7.59869910E+00  7.59869910E+00 -1.51973982E+01
  7.59869910E+00  7.59869910E+00 -1.51973982E+01  7.59869910E+00  7.59869910E+00
 -1.51973982E+01  7.59869910E+00  7.59869910E+00 -1.51973982E+01  7.59869910E+00
  7.59869910E+00 -1.51973982E+01  7.59869910E+00  7.59869910E+00 -1.51973982E+01
  7.59869910E+00  7.59869910E+00 -1.51973982E+01  7.59869910E+00  7.59869910E+00
 -1.51973982E+01  7.59869910E+00  7.59869910E+00 -1.51973982E+01  7.59869910E+00
  7.59869910E+00 -1.51973982E+01  7.59869910E+00  7.59869910E+00 -1.51973982E+01
  7.59869910E+00  7.59869910E+00 -1.51973982E+01  7.59869910E+00  7.59869910E+00
 -1.51973982E+01  7.59869910E+00  7.59869910E+00 -1.51973982E+01  7.59869910E+00
  7.59869910E+00 -1.51973982E+01  7.59869910E+00  7.59869910E+00 -1.51973982E+01
  7.59869910E+00  7.59869910E+00 -1.51973982E+01  7.59869910E+00  7.59869910E+00
 -1.51973982E+01  7.59869910E+00  7.59869910E+00 -1.51973982E+01  7.59869910E+00
  7.59869910E+00 -1.51973982E+01  7.59869910E+00  7.59869910E+00 -1.51973982E+01
  7.59869910E+00  7.59869910E+00 -1.51973982E+01  7.59869910E+00  7.59869910E+00
 -1.51973982E+01  7.59869910E+00  7.59869910E+00 -1.51973982E+01  7.59869910E+00
  7.59869910E+00 -1.51973982E+01  7.59869910E+00  7.59869910E+00 -1.51973982E+01
  7.59869910E+00  7.59869910E+00 -1.51973982E+01  7.59869910E+00  7.59869910E+00
 -1.51973982E+01  7.59869910E+00  7.59869910E+00 -1.51973982E+01  7.59869910E+00
  7.59869910E+00 -1.51973982E+01  7.59869910E+00  7.59869910E+00 -1.51973982E+01
  7.59869910E+00  7.59869910E+00 -1.51973982E+01  7.59869910E+00  7.59869910E+00
 -1.51973982E+01  7.59869910E+00  7.59869910E+00 -1.51973982E+01  7.59869910E+00
  7.59869910E+00 -1.51973982E+01  7.59869910E+00  7.59869910E+00 -1.51973982E+01
  7.59869910E+00  7.59869910E+00 -1.51973982E+01  7.59869910E+00  7.59869910E+00
 -1.51973982E+01  7.59869910E+00  7.59869910E+00 -1.51973982E+01  7.59869910E+00
  7.59869910E+00 -1.51973982E+01  7.59869910E+00  7.59869910E+00 -1.51973982E+01
  7.59869910E+00  7.59869910E+00 -1.51973982E+01  7.59869910E+00  7.59869910E+00
 -1.51973982E+01  7.59869910E+00  7.59869910E+00 -1.51973982E+01  7.59869910E+00
  7.59869910E+00 -1.51973982E+01  7.59869910E+00  7.59869910E+00 -1.51973982E+01
  7.59869910E+00  7.59869910E+00 -1.51973982E+01  7.59869910E+00  7.59869910E+00
 -1.51973982E+01  7.59869910E+00  7.59869910E+00 -1.51973982E+01  7.59869910E+00
  7.59869910E+00 -1.51973982E+01  7.59869910E+00  7.59869910E+00 -1.51973982E+01
  7.59869910E+00  7.59869910E+00 -1.51973982E+01  7.59869910E+00  7.59869910E+00
 -1.51973982E+01  7.59869910E+00  7.59869910E+00 -1.51973982E+01  7.59869910E+00
  7.59869910E+00 -1.51973982E+01  7.59869910E+00  7.59869910E+00 -1.51973982E+01
  7.59869910E+00  7.59869910E+00 -1.51973982E+01  7.59869910E+00  7.59869910E+00
 -1.51973982E+01  7.59869910E+00  7.59869910E+00 -1.51973982E+01  7.59869910E+00
  7.59869910E+00 -1.51973982E+01  7.59869910E+00  7.59869910E+00 -1.51973982E+01
  7.59869910E+00  7.59869910E+00 -1.51973982E+01  7.59869910E+00  7.59869910E+00
 -1.51973982E+01  7.59869910E+00  7.59869910E+00 -1.51973982E+01  7.59869910E+00
  7.59869910E+00 -1.51973982E+01  7.59869910E+00  7.59869910E+00 -1.51973982E+01
  7.59869910E+00  7.59869910E+00 -1.51973982E+01  7.59869910E+00  7.59869910E+00
 -1.51973982E+01  7.59869910E+00  7.59869910E+00 -1.51973982E+01  7.59869910E+00
  7.59869910E+00 -1.51973982E+01  7.59869910E+00  7.59869910E+00 -1.51973982E+01
  7.59869910E+00  7.59869910E+00 -1.51973982E+01  7.59869910E+00  7.59869910E+00
 -1.51973982E+01  7.59869910E+00  7.59869910E+00 -1.51973982E+01  7.59869910E+00
  7.59869910E+00 -1.51973982E+01  7.59869910E+00  7.59869910E+00 -1.51973982E+01
  7.59869910E+00  7.59869910E+00 -1.51973982E+01  7.59869910E+00  7.59869910E+00
 -1.51973982E+01  7.59869910E+00  7.59869910E+00 -1.51973982E+01  7.59869910E+00
  7.59869910E+00 -1.51973982E+01  7.59869910E+00  7.59869910E+00 -1.51973982E+01
  7.59869910E+00  7.59869910E+00 -1.51973982E+01  7.59869910E+00  7.59869910E+00
 -1.51973982E+01  7.59869910E+00  7.59869910E+00 -1.51973982E+01  7.59869910E+00
  7.59869910E+00 -1.51973982E+01  7.59869910E+00  7.59869910E+00 -1.51973982E+01
  7.59869910E+00  7.59869910E+00 -1.51973982E+01  7.59869910E+00  7.59869910E+00
 -1.51973982E+01  7.59869910E+00  7.59869910E+00 -1.51973982E+01  7.59869910E+00
  7.59869910E+00 -1.51973982E+01  7.59869910E+00  7.59869910E+00 -1.51973982E+01
  7.59869910E+00  7.59869910E+00 -1.51973982E+01  7.59869910E+00  7.59869910E+00
 -1.51973982E+01  7.59869910E+00  7.59869910E+00 -1.51973982E+01  7.59869910E+00
  7.59869910E+00 -1.51973982E+01  7.59869910E+00  7.59869910E+00 -1.51973982E+01
  7.59869910E+00  7.59869910E+00 -1.51973982E+01  7.59869910E+00  7.59869910E+00
 -1.51973982E+01  7.59869910E+00  7.59869910E+00 -1.51973982E+01  7.59869910E+00
  7.59869910E+00 -1.51973982E+01  7.59869910E+00  7.59869910E+00 -1.51973982E+01
  7.59869910E+00  7.59869910E+00 -1.51973982E+01  7.59869910E+00  7.59869910E+00
 -1.51973982E+01  7.59869910E+00  7.59869910E+00 -1.51973982E+01  7.59869910E+00
  7.59869910E+00 -1.51973982E+01  7.59869910E+00  7.59869910E+00 -1.51973982E+01
  7.59869910E+00  7.59869910E+00 -1.51973982E+01  7.59869910E+00  7.59869910E+00
 -1.51973982E+01  7.59869910E+00  7.59869910E+00 -1.51973982E+01  7.59869910E+00
  7.59869910E+00 -1.51973982E+01  7.59869910E+00  7.59869910E+00 -1.51973982E+01
  7.59869910E+00  7.59869910E+00 -1.51973982E+01  7.59869910E+00  7.59869910E+00
 -1.51973982E+01  7.59869910E+00  7.59869910E+00 -1.51973982E+01  7.59869910E+00
  7.59869910E+00 -1.51973982E+01  7.59869910E+00  7.59869910E+00 -1.51973982E+01
  7.59869910E+00  7.59869910E+00 -1.51973982E+01  7.59869910E+00  7.59869910E+00
 -1.51973982E+01  7.59869910E+00  7.59869910E+00 -1.51973982E+01  7.59869910E+00
  7.59869910E+00 -1.51973982E+01  7.59869910E+00  7.59869910E+00 -1.51973982E+01
  7.59869910E+00  7.59869910E+00 -1.51973982E+01  7.59869910E+00  7.59869910E+00
 -1.51973982E+01  7.59869910E+00  7.59869910E+00 -1.51973982E+01  7.59869910E+00
  7.59869910E+00 -1.51973982E+01  7.59869910E+00  7.59869910E+00 -1.51973982E+01
  7.59869910E+00  7.59869910E+00 -1.51973982E+01  7.59869910E+00  7.59869910E+00
 -1.51973982E+01  7.59869910E+00  7.59869910E+00 -1.51973982E+01  7.59869910E+00
  7.59869910E+00 -1.51973982E+01  7.59869910E+00  7.59869910E+00 -1.51973982E+01
  7.59869910E+00  7.59869910E+00 -1.51973982E+01  7.59869910E+00  7.59869910E+00
 -1.51973982E+01  7.59869910E+00  7.59869910E+00 -1.51973982E+01  7.59869910E+00
  7.59869910E+00 -1.51973982E+01  7.59869910E+00  7.59869910E+00 -1.51973982E+01
  7.59869910E+00  7.59869910E+00 -1.51973982E+01  7.59869910E+00  7.59869910E+00
 -1.51973982E+01  7.59869910E+00  7.59869910E+00 -1.51973982E+01  7.59869910E+00
  7.59869910E+00 -1.51973982E+01  7.59869910E+00  7.59869910E+00 -1.51973982E+01
  7.59869910E+00  7.59869910E+00 -1.51973982E+01  7.59869910E+00  7.59869910E+00
 -1.51973982E+01  7.59869910E+00  7.59869910E+00 -1.51973982E+01  7.59869910E+00
  7.59869910E+00 -1.51973982E+01  7.59869910E+00  7.59869910E+00 -1.51973982E+01
  7.59869910E+00  7.59869910E+00 -1.51973982E+01  7.59869910E+00  7.59869910E+00
 -1.51973982E+01  7.59869910E+00  7.59869910E+00 -1.51973982E+01  7.59869910E+00
  7.59869910E+00 -1.51973982E+01  7.59869910E+00  7.59869910E+00 -1.51973982E+01
  7.59869910E+00  7.59869910E+00 -1.51973982E+01  7.59869910E+00  7.59869910E+00
 -1.51973982E+01  7.59869910E+00  7.59869910E+00 -1.51973982E+01  7.59869910E+00
  7.59869910E+00 -1.51973982E+01  7.59869910E+00  7.59869910E+00 -1.51973982E+01
  7.59869910E+00  7.59869910E+00 -1.51973982E+01  7.59869910E+00  7.59869910E+00
 -1.51973982E+01  7.59869910E+00  7.59869910E+00 -1.51973982E+01  7.59869910E+00
  7.59869910E+00 -1.51973982E+01  7.59869910E+00  7.59869910E+00 -1.51973982E+01
  7.59869910E+00  7.59869910E+00 -1.51973982E+01  7.59869910E+00  7.59869910E+00
 -1.51973982E+01  7.59869910E+00  7.59869910E+00 -1.51973982E+01  7.59869910E+00
  7.59869910E+00 -1.51973982E+01  7.59869910E+00  7.59869910E+00 -1.51973982E+01
  7.59869910E+00  7.59869910E+00 -1.51973982E+01  7.59869910E+00  7.59869910E+00
 -1.51973982E+01  7.59869910E+00  7.59869910E+00 -1.51973982E+01  7.59869910E+00
  7.59869910E+00 -1.51973982E+01  7.59869910E+00  7.59869910E+00 -1.51973982E+01
  7.59869910E+00  7.59869910E+00 -1.51973982E+01  7.59869910E+00  7.59869910E+00
 -1.51973982E+01  7.59869910E+00  7.59869910E+00 -1.51973982E+01  7.59869910E+00
  7.59869910E+00 -1.51973982E+01  7.59869910E+00  7.59869910E+00 -1.51973982E+01
  7.59869910E+00  7.59869910E+00 -1.51973982E+01  7.59869910E+00  7.59869910E+00
 -1.51973982E+01  7.59869910E+00  7.59869910E+00 -1.51973982E+01  7.59869910E+00
  7.59869910E+00 -1.51973982E+01  7.59869910E+00  7.59869910E+00 -1.51973982E+01
  7.59869910E+00  7.59869910E+00 -1.51973982E+01  7.59869910E+00  7.59869910E+00
 -1.51973982E+01  7.59869910E+00  7.59869910E+00 -1.51973982E+01  7.59869910E+00
  7.59869910E+00 -1.51973982E+01  7.59869910E+00  7.59869910E+00 -1.51973982E+01
  7.59869910E+00  7.59869910E+00 -1.51973982E+01  7.59869910E+00  7.59869910E+00
 -1.51973982E+01  7.59869910E+00  7.59869910E+00 -1.51973982E+01  7.59869910E+00
  7.59869910E+00 -1.51973982E+01  7.59869910E+00  7.59869910E+00 -1.51973982E+01
  7.59869910E+00  7.59869910E+00 -1.51973982E+01  7.59869910E+00  7.59869910E+00
 -1.51973982E+01  7.59869910E+00  7.59869910E+00 -1.51973982E+01  7.59869910E+00
  7.59869910E+00 -1.51973982E+01  7.59869910E+00  7.59869910E+00 -1.51973982E+01
  7.59869910E+00  7.59869910E+00 -1.51973982E+01  7.59869910E+00  7.59869910E+00
 -1.51973982E+01  7.59869910E+00  7.59869910E+00 -1.51973982E+01  7.59869910E+00
  7.59869910E+00 -1.51973982E+01  7.59869910E+00  7.59869910E+00 -1.51973982E+01
  7.59869910E+00  7.59869910E+00 -1.51973982E+01  7.59869910E+00  7.59869910E+00
 -1.51973982E+01  7.59869910E+00  7.59869910E+00 -1.51973982E+01  7.59869910E+00
  7.59869910E+00 -1.51973982E+01  7.59869910E+00  7.59869910E+00 -1.51973982E+01
  7.59869910E+00  7.59869910E+00 -1.51973982E+01  7.59869910E+00  7.59869910E+00
 -1.51973982E+01  7.59869910E+00  7.59869910E+00 -1.51973982E+01  7.59869910E+00
  7.59869910E+00 -1.51973982E+01  7.59869910E+00  7.59869910E+00 -1.51973982E+01
  7.59869910E+00  7.59869910E+00 -1.51973982E+01  7.59869910E+00  7.59869910E+00
 -1.51973982E+01  7.59869910E+00  7.59869910E+00 -1.51973982E+01  7.59869910E+00
  7.59869910E+00 -1.51973982E+01  7.59869910E+00  7.59869910E+00 -1.51973982E+01
  7.59869910E+00  7.59869910E+00 -1.51973982E+01  7.59869910E+00  7.59869910E+00
 -1.51973982E+01  7.59869910E+00  7.59869910E+00 -1.51973982E+01  7.59869910E+00
  7.59869910E+00 -1.51973982E+01  7.59869910E+00  7.59869910E+00 -1.51973982E+01
  7.59869910E+00  7.59869910E+00 -1.51973982E+01  7.59869910E+00  7.59869910E+00
 -1.51973982E+01  7.59869910E+00  7.59869910E+00 -1.51973982E+01  7.59869910E+00
  7.59869910E+00 -1.51973982E+01  7.59869910E+00  7.59869910E+00 -1.51973982E+01
  7.59869910E+00  7.59869910E+00 -1.51973982E+01  7.59869910E+00  7.59869910E+00
 -1.51973982E+01  7.59869910E+00  7.59869910E+00 -1.51973982E+01  7.59869910E+00
  7.59869910E+00 -1.51973982E+01  7.59869910E+00  7.59869910E+00 -1.51973982E+01
  7.59869910E+00  7.59869910E+00 -1.51973982E+01  7.59869910E+00  7.59869910E+00
 -1.51973982E+01  7.59869910E+00  7.59869910E+00 -1.51973982E+01  7.59869910E+00
  7.59869910E+00 -1.51973982E+01  7.59869910E+00  7.59869910E+00 -1.51973982E+01
  7.59869910E+00  7.59869910E+00 -1.51973982E+01  7.59869910E+00  7.59869910E+00
 -1.51973982E+01  7.59869910E+00  7.59869910E+00 -1.51973982E+01  7.59869910E+00
  7.59869910E+00 -1.51973982E+01  7.59869910E+00  7.59869910E+00 -1.51973982E+01
  7.59869910E+00  7.59869910E+00 -1.51973982E+01  7.59869910E+00  7.59869910E+00
 -1.51973982E+01  7.59869910E+00  7.59869910E+00 -1.51973982E+01  7.59869910E+00
  7.59869910E+00 -1.51973982E+01  7.59869910E+00  7.59869910E+00 -1.51973982E+01
  7.59869910E+00  7.59869910E+00 -1.51973982E+01  7.59869910E+00  7.59869910E+00
 -1.51973982E+01  7.59869910E+00  7.59869910E+00 -1.51973982E+01  7.59869910E+00
  7.59869910E+00 -1.51973982E+01  7.59869910E+00  7.59869910E+00 -1.51973982E+01
  7.59869910E+00  7.59869910E+00 -1.51973982E+01  7.59869910E+00  7.59869910E+00
 -1.51973982E+01  7.59869910E+00  7.59869910E+00 -1.51973982E+01  7.59869910E+00
  7.59869910E+00 -1.51973982E+01  7.59869910E+00  7.59869910E+00 -1.51973982E+01
  7.59869910E+00  7.59869910E+00 -1.51973982E+01  7.59869910E+00  7.59869910E+00
 -1.51973982E+01  7.59869910E+00  7.59869910E+00 -1.51973982E+01  7.59869910E+00
  7.59869910E+00 -1.51973982E+01  7.59869910E+00  7.59869910E+00 -1.51973982E+01
  7.59869910E+00  7.59869910E+00 -1.51973982E+01  7.59869910E+00  7.59869910E+00
 -1.51973982E+01  7.59869910E+00  7.59869910E+00 -1.51973982E+01  7.59869910E+00
  7.59869910E+00 -1.51973982E+01  7.59869910E+00  7.59869910E+00 -1.51973982E+01
  7.59869910E+00  7.59869910E+00 -1.51973982E+01  7.59869910E+00  7.59869910E+00
 -1.51973982E+01  7.59869910E+00  7.59869910E+00 -1.51973982E+01  7.59869910E+00
  7.59869910E+00 -1.51973982E+01  7.59869910E+00  7.59869910E+00 -1.51973982E+01
  7.59869910E+00  7.59869910E+00 -1.51973982E+01  7.59869910E+00  7.59869910E+00
 -1.51973982E+01  7.59869910E+00  7.59869910E+00 -1.51973982E+01  7.59869910E+00
  7.59869910E+00 -1.51973982E+01  7.59869910E+00  7.59869910E+00 -1.51973982E+01
  7.59869910E+00  7.59869910E+00 -1.51973982E+01  7.59869910E+00  7.59869910E+00
 -1.51973982E+01  7.59869910E+00  7.59869910E+00 -1.51973982E+01  7.59869910E+00
  7.59869910E+00 -1.51973982E+01  7.59869910E+00  7.59869910E+00 -1.51973982E+01
  7.59869910E+00  7.59869910E+00 -1.51973982E+01  7.59869910E+00  7.59869910E+00
 -1.51973982E+01  7.59869910E+00  7.59869910E+00 -1.51973982E+01  7.59869910E+00
  7.59869910E+00 -1.51973982E+01  7.59869910E+00  7.59869910E+00 -1.51973982E+01
  7.59869910E+00  7.59869910E+00 -1.51973982E+01  7.59869910E+00  7.59869910E+00
 -1.51973982E+01  7.59869910E+00  7.59869910E+00 -1.51973982E+01  7.59869910E+00
  7.59869910E+00 -1.51973982E+01  7.59869910E+00  7.59869910E+00 -1.51973982E+01
  7.59869910E+00  7.59869910E+00 -1.51973982E+01  7.59869910E+00  7.59869910E+00
 -1.51973982E+01  7.59869910E+00  7.59869910E+00 -1.51973982E+01  7.59869910E+00
  7.59869910E+00 -1.51973982E+01  7.59869910E+00  7.59869910E+00 -1.51973982E+01
  7.59869910E+00  7.59869910E+00 -1.51973982E+01  7.59869910E+00  7.59869910E+00
 -1.51973982E+01  7.59869910E+00  7.59869910E+00 -1.51973982E+01  7.59869910E+00
  7.59869910E+00 -1.51973982E+01  7.59869910E+00  7.59869910E+00 -1.51973982E+01
  7.59869910E+00  7.59869910E+00 -1.51973982E+01  7.59869910E+00  7.59869910E+00
 -1.51973982E+01  7.59869910E+00  7.59869910E+00 -1.51973982E+01  7.59869910E+00
  7.59869910E+00 -1.51973982E+01  7.59869910E+00  7.59869910E+00 -1.51973982E+01
  7.59869910E+00  7.59869910E+00 -1.51973982E+01  7.59869910E+00  7.59869910E+00
 -1.51973982E+01  7.59869910E+00  7.59869910E+00 -1.51973982E+01  7.59869910E+00
  7.59869910E+00 -1.51973982E+01  7.59869910E+00  7.59869910E+00 -1.51973982E+01
  7.59869910E+00  7.59869910E+00 -1.51973982E+01  7.59869910E+00  7.59869910E+00
 -1.51973982E+01  7.59869910E+00  7.59869910E+00 -1.51973982E+01  7.59869910E+00
  7.59869910E+00 -1.51973982E+01  7.59869910E+00  7.59869910E+00 -1.51973982E+01
  7.59869910E+00  7.59869910E+00 -1.51973982E+01  7.59869910E+00  7.59869910E+00
 -1.51973982E+01  7.59869910E+00  7.59869910E+00 -1.51973982E+01  7.59869910E+00
  7.59869910E+00 -1.51973982E+01  7.59869910E+00  7.59869910E+00 -1.51973982E+01
  7.59869910E+00  7.59869910E+00 -1.51973982E+01  7.59869910E+00  7.59869910E+00
 -1.51973982E+01  7.59869910E+00  7.59869910E+00 -1.51973982E+01  7.59869910E+00
  7.59869910E+00 -1.51973982E+01  7.59869910E+00  7.59869910E+00 -1.51973982E+01
  7.59869910E+00  7.59869910E+00 -1.51973982E+01  7.59869910E+00  7.59869910E+00
 -1.51973982E+01  7.59869910E+00  7.59869910E+00 -1.51973982E+01  7.59869910E+00
  7.59869910E+00 -1.51973982E+01  7.59869910E+00  7.59869910E+00 -1.51973982E+01
  7.59869910E+00  7.59869910E+00 -1.51973982E+01  7.59869910E+00  7.59869910E+00
 -1.51973982E+01  7.59869910E+00  7.59869910E+00 -1.51973982E+01  7.59869910E+00
  7.59869910E+00 -1.51973982E+01  7.59869910E+00  7.59869910E+00 -1.51973982E+01
  7.59869910E+00  7.59869910E+00 -1.51973982E+01  7.59869910E+00  7.59869910E+00
 -1.51973982E+01  7.59869910E+00  7.59869910E+00 -1.51973982E+01  7.59869910E+00
  7.59869910E+00 -1.51973982E+01  7.59869910E+00  7.59869910E+00 -1.51973982E+01
  7.59869910E+00  7.59869910E+00 -1.51973982E+01  7.59869910E+00  7.59869910E+00
 -1.51973982E+01  7.59869910E+00  7.59869910E+00 -1.51973982E+01  7.59869910E+00
  7.59869910E+00 -1.51973982E+01  7.59869910E+00  7.59869910E+00 -1.51973982E+01
  7.59869910E+00  7.59869910E+00 -1.51973982E+01  7.59869910E+00  7.59869910E+00
 -1.51973982E+01  7.59869910E+00  7.59869910E+00 -1.51973982E+01  7.59869910E+00
  7.59869910E+00 -1.51973982E+01  7.59869910E+00  7.59869910E+00 -1.51973982E+01
  7.59869910E+00  7.59869910E+00 -1.51973982E+01  7.59869910E+00  7.59869910E+00
 -1.51973982E+01  7.59869910E+00  7.59869910E+00 -1.51973982E+01  7.59869910E+00
  7.59869910E+00 -1.51973982E+01  7.59869910E+00  7.59869910E+00 -1.51973982E+01
  7.59869910E+00  7.59869910E+00 -1.51973982E+01  7.59869910E+00  7.59869910E+00
 -1.51973982E+01  7.59869910E+00  7.59869910E+00 -1.51973982E+01  7.59869910E+00
  7.59869910E+00 -1.51973982E+01  7.59869910E+00  7.59869910E+00 -1.51973982E+01
  7.59869910E+00  7.59869910E+00 -1.51973982E+01  7.59869910E+00  7.59869910E+00
 -1.51973982E+01  7.59869910E+00  7.59869910E+00 -1.51973982E+01  7.59869910E+00
  7.59869910E+00 -1.51973982E+01  7.59869910E+00  7.59869910E+00 -1.51973982E+01
  7.59869910E+00  7.59869910E+00 -1.51973982E+01  7.59869910E+00  7.59869910E+00
 -1.51973982E+01  7.59869910E+00  7.59869910E+00 -1.51973982E+01  7.59869910E+00
  7.59869910E+00 -1.51973982E+01  7.59869910E+00  7.59869910E+00 -1.51973982E+01
  7.59869910E+00  7.59869910E+00 -1.51973982E+01  7.59869910E+00  7.59869910E+00
 -1.51973982E+01  7.59869910E+00  7.59869910E+00 -1.51973982E+01  7.59869910E+00
  7.59869910E+00 -1.51973982E+01  7.59869910E+00  7.59869910E+00 -1.51973982E+01
  7.59869910E+00  7.59869910E+00 -1.51973982E+01  7.59869910E+00  7.59869910E+00
 -1.51973982E+01  7.59869910E+00  7.59869910E+00 -1.51973982E+01  7.59869910E+00
  7.59869910E+00 -1.51973982E+01  7.59869910E+00  7.59869910E+00 -1.51973982E+01
  7.59869910E+00  7.59869910E+00 -1.51973982E+01  7.59869910E+00  7.59869910E+00
 -1.51973982E+01  7.59869910E+00  7.59869910E+00 -1.51973982E+01  7.59869910E+00
  7.59869910E+00 -1.51973982E+01  7.59869910E+00  7.59869910E+00 -1.51973982E+01
  7.59869910E+00  7.59869910E+00 -1.51973982E+01  7.59869910E+00  7.59869910E+00
 -1.51973982E+01  7.59869910E+00  7.59869910E+00 -1.51973982E+01  7.59869910E+00
  7.59869910E+00 -1.51973982E+01  7.59869910E+00  7.59869910E+00 -1.51973982E+01
  7.59869910E+00  7.59869910E+00 -1.51973982E+01  7.59869910E+00  7.59869910E+00
 -1.51973982E+01  7.59869910E+00  7.59869910E+00 -1.51973982E+01  7.59869910E+00
  7.59869910E+00 -1.51973982E+01  7.59869910E+00  7.59869910E+00 -1.51973982E+01
  7.59869910E+00  7.59869910E+00 -1.51973982E+01  7.59869910E+00  7.59869910E+00
 -1.51973982E+01  7.59869910E+00  7.59869910E+00 -1.51973982E+01  7.59869910E+00
  7.59869910E+00 -1.51973982E+01  7.59869910E+00  7.59869910E+00 -1.51973982E+01
  7.59869910E+00  7.59869910E+00 -1.51973982E+01  7.59869910E+00  7.59869910E+00
 -1.51973982E+01  7.59869910E+00  7.59869910E+00 -1.51973982E+01  7.59869910E+00
  7.59869910E+00 -1.51973982E+01  7.59869910E+00  7.59869910E+00 -1.51973982E+01
  7.59869910E+00  7.59869910E+00 -1.51973982E+01  7.59869910E+00  7.59869910E+00
 -1.51973982E+01  7.59869910E+00  7.59869910E+00 -1.51973982E+01  7.59869910E+00
  7.59869910E+00 -1.51973982E+01  7.59869910E+00  7.59869910E+00 -1.51973982E+01
  7.59869910E+00  7.59869910E+00 -1.51973982E+01  7.59869910E+00  7.59869910E+00
 -1.51973982E+01  7.59869910E+00  7.59869910E+00 -1.51973982E+01  7.59869910E+00
  7.59869910E+00 -1.51973982E+01  7.59869910E+00  7.59869910E+00 -1.51973982E+01
  7.59869910E+00  7.59869910E+00 -1.51973982E+01  7.59869910E+00  7.59869910E+00
 -1.51973982E+01  7.59869910E+00  7.59869910E+00 -1.51973982E+01  7.59869910E+00
  7.59869910E+00 -1.51973982E+01  7.59869910E+00  7.59869910E+00 -1.51973982E+01
  7.59869910E+00  7.59869910E+00 -1.51973982E+01  7.59869910E+00  7.59869910E+00
 -1.51973982E+01  7.59869910E+00  7.59869910E+00 -1.51973982E+01  7.59869910E+00
  7.59869910E+00 -1.51973982E+01  7.59869910E+00  7.59869910E+00 -1.51973982E+01
  7.59869910E+00  7.59869910E+00 -1.51973982E+01  7.59869910E+00  7.59869910E+00
 -1.51973982E+01  7.59869910E+00  7.59869910E+00 -1.51973982E+01  7.59869910E+00
  7.59869910E+00 -1.51973982E+01  7.59869910E+00  7.59869910E+00 -1.51973982E+01
  7.59869910E+00  7.59869910E+00 -1.51973982E+01  7.59869910E+00  7.59869910E+00
 -1.51973982E+01  7.59869910E+00  7.59869910E+00 -1.51973982E+01  7.59869910E+00
  7.59869910E+00 -1.51973982E+01  7.59869910E+00  7.59869910E+00 -1.51973982E+01
  7.59869910E+00  7.59869910E+00 -1.51973982E+01  7.59869910E+00  7.59869910E+00
 -1.51973982E+01  7.59869910E+00  7.59869910E+00 -1.51973982E+01  7.59869910E+00
  7.59869910E+00 -1.51973982E+01  7.59869910E+00  7.59869910E+00 -1.51973982E+01
  7.59869910E+00  7.59869910E+00 -1.51973982E+01  7.59869910E+00  7.59869910E+00
 -1.51973982E+01  7.59869910E+00  7.59869910E+00 -1.51973982E+01  7.59869910E+00
  7.59869910E+00 -1.51973982E+01  7.59869910E+00  7.59869910E+00 -1.51973982E+01
  7.59869910E+00  7.59869910E+00 -1.51973982E+01  7.59869910E+00  7.59869910E+00
 -1.51973982E+01  7.59869910E+00  7.59869910E+00 -1.51973982E+01  7.59869910E+00
  7.59869910E+00 -1.51973982E+01  7.59869910E+00  7.59869910E+00 -1.51973982E+01
  7.59869910E+00  7.59869910E+00 -1.51973982E+01  7.59869910E+00  7.59869910E+00
 -1.51973982E+01  7.59869910E+00  7.59869910E+00 -1.51973982E+01  7.59869910E+00
  7.59869910E+00 -1.51973982E+01  7.59869910E+00  7.59869910E+00 -1.51973982E+01
  7.59869910E+00  7.59869910E+00 -1.51973982E+01  7.59869910E+00  7.59869910E+00
 -1.51973982E+01  7.59869910E+00  7.59869910E+00 -1.51973982E+01  7.59869910E+00
  7.59869910E+00 -1.51973982E+01  7.59869910E+00  7.59869910E+00 -1.51973982E+01
  7.59869910E+00  7.59869910E+00 -1.51973982E+01  7.59869910E+00  7.59869910E+00
 -1.51973982E+01  7.59869910E+00  7.59869910E+00 -1.51973982E+01  7.59869910E+00
  7.59869910E+00 -1.51973982E+01  7.59869910E+00  7.59869910E+00 -1.51973982E+01
  7.59869910E+00  7.59869910E+00 -1.51973982E+01  7.59869910E+00  7.59869910E+00
 -1.51973982E+01  7.59869910E+00  7.59869910E+00 -1.51973982E+01  7.59869910E+00
  7.59869910E+00 -1.51973982E+01  7.59869910E+00  7.59869910E+00 -1.51973982E+01
  7.59869910E+00  7.59869910E+00 -1.51973982E+01  7.59869910E+00  7.59869910E+00
 -1.51973982E+01  7.59869910E+00  7.59869910E+00 -1.51973982E+01  7.59869910E+00
  7.59869910E+00 -1.51973982E+01  7.59869910E+00  7.59869910E+00 -1.51973982E+01
  7.59869910E+00  7.59869910E+00 -1.51973982E+01  7.59869910E+00  7.59869910E+00
 -1.51973982E+01  7.59869910E+00  7.59869910E+00 -1.51973982E+01  7.59869910E+00
  7.59869910E+00 -1.51973982E+01  7.59869910E+00  7.59869910E+00 -1.51973982E+01
  7.59869910E+00  7.59869910E+00 -1.51973982E+01  7.59869910E+00  7.59869910E+00
 -1.51973982E+01  7.59869910E+00  7.59869910E+00 -1.51973982E+01  7.59869910E+00
  7.59869910E+00 -1.51973982E+01  7.59869910E+00  7.59869910E+00 -1.51973982E+01
  7.59869910E+00  7.59869910E+00 -1.51973982E+01  7.59869910E+00  7.59869910E+00
 -1.51973982E+01  7.59869910E+00  7.59869910E+00 -1.51973982E+01  7.59869910E+00
  7.59869910E+00 -1.51973982E+01  7.59869910E+00  7.59869910E+00 -1.51973982E+01
  7.59869910E+00  7.59869910E+00 -1.51973982E+01  7.59869910E+00  7.59869910E+00
 -1.51973982E+01  7.59869910E+00  7.59869910E+00 -1.51973982E+01  7.59869910E+00
  7.59869910E+00 -1.51973982E+01  7.59869910E+00  7.59869910E+00 -1.51973982E+01
  7.59869910E+00  7.59869910E+00 -1.51973982E+01  7.59869910E+00  7.59869910E+00
 -1.51973982E+01  7.59869910E+00  7.59869910E+00 -1.51973982E+01  7.59869910E+00
  7.59869910E+00 -1.51973982E+01  7.59869910E+00  7.59869910E+00 -1.51973982E+01
  7.59869910E+00  7.59869910E+00 -1.51973982E+01  7.59869910E+00  7.59869910E+00
 -1.51973982E+01  7.59869910E+00  7.59869910E+00 -1.51973982E+01  7.59869910E+00
  7.59869910E+00 -1.51973982E+01  7.59869910E+00  7.59869910E+00 -1.51973982E+01
  7.59869910E+00  7.59869910E+00 -1.51973982E+01  7.59869910E+00  7.59869910E+00
 -1.51973982E+01  7.59869910E+00  7.59869910E+00 -1.51973982E+01  7.59869910E+00
  7.59869910E+00 -1.51973982E+01  7.59869910E+00  7.59869910E+00 -1.51973982E+01
  7.59869910E+00  7.59869910E+00 -1.51973982E+01  7.59869910E+00  7.59869910E+00
 -1.51973982E+01  7.59869910E+00  7.59869910E+00 -1.51973982E+01  7.59869910E+00
  7.59869910E+00 -1.51973982E+01  7.59869910E+00  7.59869910E+00 -1.51973982E+01
  7.59869910E+00  7.59869910E+00 -1.51973982E+01  7.59869910E+00  7.59869910E+00
 -1.51973982E+01  7.59869910E+00  7.59869910E+00 -1.51973982E+01  7.59869910E+00
  7.59869910E+00 -1.51973982E+01  7.59869910E+00  7.59869910E+00 -1.51973982E+01
  7.59869910E+00  7.59869910E+00 -1.51973982E+01  7.59869910E+00  7.59869910E+00
 -1.51973982E+01  7.59869910E+00  7.59869910E+00 -1.51973982E+01  7.59869910E+00
  7.59869910E+00 -1.51973982E+01  7.59869910E+00  7.59869910E+00 -1.51973982E+01
  7.59869910E+00  7.59869910E+00 -1.51973982E+01  7.59869910E+00  7.59869910E+00
 -1.51973982E+01  7.59869910E+00  7.59869910E+00 -1.51973982E+01  7.59869910E+00
  7.59869910E+00 -1.51973982E+01  7.59869910E+00  7.59869910E+00 -1.51973982E+01
  7.59869910E+00  7.59869910E+00 -1.51973982E+01  7.59869910E+00  7.59869910E+00
 -1.51973982E+01  7.59869910E+00  7.59869910E+00 -1.51973982E+01  7.59869910E+00
  7.59869910E+00 -1.51973982E+01  7.59869910E+00  7.59869910E+00 -1.51973982E+01
  7.59869910E+00  7.59869910E+00 -1.51973982E+01  7.59869910E+00  7.59869910E+00
 -1.51973982E+01  7.59869910E+00  7.59869910E+00 -1.51973982E+01  7.59869910E+00
  7.59869910E+00 -1.51973982E+01  7.59869910E+00  7.59869910E+00 -1.51973982E+01
  7.59869910E+00  7.59869910E+00 -1.51973982E+01  7.59869910E+00  7.59869910E+00
 -1.51973982E+01  7.59869910E+00  7.59869910E+00 -1.51973982E+01  7.59869910E+00
  7.59869910E+00 -1.51973982E+01  7.59869910E+00  7.59869910E+00 -1.51973982E+01
  7.59869910E+00  7.59869910E+00 -1.51973982E+01  7.59869910E+00  7.59869910E+00
 -1.51973982E+01  7.59869910E+00  7.59869910E+00 -1.51973982E+01  7.59869910E+00
  7.59869910E+00 -1.51973982E+01  7.59869910E+00  7.59869910E+00 -1.51973982E+01
  7.59869910E+00  7.59869910E+00 -1.51973982E+01  7.59869910E+00  7.59869910E+00
 -1.51973982E+01  7.59869910E+00  7.59869910E+00 -1.51973982E+01  7.59869910E+00
  7.59869910E+00 -1.51973982E+01  7.59869910E+00  7.59869910E+00 -1.51973982E+01
  7.59869910E+00  7.59869910E+00 -1.51973982E+01  7.59869910E+00  7.59869910E+00
 -1.51973982E+01  7.59869910E+00  7.59869910E+00 -1.51973982E+01  7.59869910E+00
  7.59869910E+00 -1.51973982E+01  7.59869910E+00  7.59869910E+00 -1.51973982E+01
  7.59869910E+00  7.59869910E+00 -1.51973982E+01  7.59869910E+00  7.59869910E+00
 -1.51973982E+01  7.59869910E+00  7.59869910E+00 -1.51973982E+01  7.59869910E+00
  7.59869910E+00 -1.51973982E+01  7.59869910E+00  7.59869910E+00 -1.51973982E+01
  7.59869910E+00  7.59869910E+00 -1.51973982E+01  7.59869910E+00  7.59869910E+00
 -1.51973982E+01  7.59869910E+00  7.59869910E+00 -1.51973982E+01  7.59869910E+00
  7.59869910E+00 -1.51973982E+01  7.59869910E+00  7.59869910E+00 -1.51973982E+01
  7.59869910E+00  7.59869910E+00 -1.51973982E+01  7.59869910E+00  7.59869910E+00
 -1.51973982E+01  7.59869910E+00  7.59869910E+00 -1.51973982E+01  7.59869910E+00
  7.59869910E+00 -1.51973982E+01  7.59869910E+00  7.59869910E+00 -1.51973982E+01
  7.59869910E+00  7.59869910E+00 -1.51973982E+01  7.59869910E+00  7.59869910E+00
 -1.51973982E+01  7.59869910E+00  7.59869910E+00 -1.51973982E+01  7.59869910E+00
  7.59869910E+00 -1.51973982E+01  7.59869910E+00  7.59869910E+00 -1.51973982E+01
  7.59869910E+00  7.59869910E+00 -1.51973982E+01  7.59869910E+00  7.59869910E+00
 -1.51973982E+01  7.59869910E+00  7.59869910E+00 -1.51973982E+01  7.59869910E+00
  7.59869910E+00 -1.51973982E+01  7.59869910E+00  7.59869910E+00 -1.51973982E+01
  7.59869910E+00  7.59869910E+00 -1.51973982E+01  7.59869910E+00  7.59869910E+00
 -1.51973982E+01  7.59869910E+00  7.59869910E+00 -1.51973982E+01  7.59869910E+00
  7.59869910E+00 -1.51973982E+01  7.59869910E+00  7.59869910E+00 -1.51973982E+01
  7.59869910E+00  7.59869910E+00 -1.51973982E+01  7.59869910E+00  7.59869910E+00
 -1.51973982E+01  7.59869910E+00  7.59869910E+00 -1.51973982E+01  7.59869910E+00
  7.59869910E+00 -1.51973982E+01  7.59869910E+00  7.59869910E+00 -1.51973982E+01
  7.59869910E+00  7.59869910E+00 -1.51973982E+01  7.59869910E+00  7.59869910E+00
 -1.51973982E+01  7.59869910E+00  7.59869910E+00 -1.51973982E+01  7.59869910E+00
  7.59869910E+00 -1.51973982E+01  7.59869910E+00  7.59869910E+00 -1.51973982E+01
  7.59869910E+00  7.59869910E+00 -1.51973982E+01  7.59869910E+00  7.59869910E+00
 -1.51973982E+01  7.59869910E+00  7.59869910E+00 -1.51973982E+01  7.59869910E+00
  7.59869910E+00 -1.51973982E+01  7.59869910E+00  7.59869910E+00 -1.51973982E+01
  7.59869910E+00  7.59869910E+00 -1.51973982E+01  7.59869910E+00  7.59869910E+00
 -1.51973982E+01  7.59869910E+00  7.59869910E+00 -1.51973982E+01  7.59869910E+00
  7.59869910E+00 -1.51973982E+01  7.59869910E+00  7.59869910E+00 -1.51973982E+01
  7.59869910E+00  7.59869910E+00 -1.51973982E+01  7.59869910E+00  7.59869910E+00
 -1.51973982E+01  7.59869910E+00  7.59869910E+00 -1.51973982E+01  7.59869910E+00
  7.59869910E+00 -1.51973982E+01  7.59869910E+00  7.59869910E+00 -1.51973982E+01
  7.59869910E+00  7.59869910E+00 -1.51973982E+01  7.59869910E+00  7.59869910E+00
 -1.51973982E+01  7.59869910E+00  7.59869910E+00 -1.51973982E+01  7.59869910E+00
  7.59869910E+00 -1.51973982E+01  7.59869910E+00  7.59869910E+00 -1.51973982E+01
  7.59869910E+00  7.59869910E+00 -1.51973982E+01  7.59869910E+00  7.59869910E+00
 -1.51973982E+01  7.59869910E+00  7.59869910E+00 -1.51973982E+01  7.59869910E+00
  7.59869910E+00 -1.51973982E+01  7.59869910E+00  7.59869910E+00 -1.51973982E+01
  7.59869910E+00  7.59869910E+00 -1.51973982E+01  7.59869910E+00  7.59869910E+00
 -1.51973982E+01  7.59869910E+00  7.59869910E+00 -1.51973982E+01  7.59869910E+00
  7.59869910E+00 -1.51973982E+01  7.59869910E+00  7.59869910E+00 -1.51973982E+01
  7.59869910E+00  7.59869910E+00 -1.51973982E+01  7.59869910E+00  7.59869910E+00
 -1.51973982E+01  7.59869910E+00  7.59869910E+00 -1.51973982E+01  7.59869910E+00
  7.59869910E+00 -1.51973982E+01  7.59869910E+00  7.59869910E+00 -1.51973982E+01
  7.59869910E+00  7.59869910E+00 -1.51973982E+01  7.59869910E+00  7.59869910E+00
 -1.51973982E+01  7.59869910E+00  7.59869910E+00 -1.51973982E+01  7.59869910E+00
  7.59869910E+00 -1.51973982E+01  7.59869910E+00  7.59869910E+00 -1.51973982E+01
  7.59869910E+00  7.59869910E+00 -1.51973982E+01  7.59869910E+00  7.59869910E+00
 -1.51973982E+01  7.59869910E+00  7.59869910E+00 -1.51973982E+01  7.59869910E+00
  7.59869910E+00 -1.51973982E+01  7.59869910E+00  7.59869910E+00 -1.51973982E+01
  7.59869910E+00  7.59869910E+00 -1.51973982E+01  7.59869910E+00  7.59869910E+00
 -1.51973982E+01  7.59869910E+00  7.59869910E+00 -1.51973982E+01  7.59869910E+00
  7.59869910E+00 -1.51973982E+01  7.59869910E+00  7.59869910E+00 -1.51973982E+01
  7.59869910E+00  7.59869910E+00 -1.51973982E+01  7.59869910E+00  7.59869910E+00
 -1.51973982E+01  7.59869910E+00  7.59869910E+00 -1.51973982E+01  7.59869910E+00
  7.59869910E+00 -1.51973982E+01  7.59869910E+00  7.59869910E+00 -1.51973982E+01
  7.59869910E+00  7.59869910E+00 -1.51973982E+01  7.59869910E+00  7.59869910E+00
 -1.51973982E+01  7.59869910E+00  7.59869910E+00 -1.51973982E+01  7.59869910E+00
  7.59869910E+00 -1.51973982E+01  7.59869910E+00  7.59869910E+00 -1.51973982E+01
  7.59869910E+00  7.59869910E+00 -1.51973982E+01  7.59869910E+00  7.59869910E+00
 -1.51973982E+01  7.59869910E+00  7.59869910E+00 -1.51973982E+01  7.59869910E+00
  7.59869910E+00 -1.51973982E+01  7.59869910E+00  7.59869910E+00 -1.51973982E+01
  7.59869910E+00  7.59869910E+00 -1.51973982E+01  7.59869910E+00  7.59869910E+00
 -1.51973982E+01  7.59869910E+00  7.59869910E+00 -1.51973982E+01  7.59869910E+00
  7.59869910E+00 -1.51973982E+01  7.59869910E+00  7.59869910E+00 -1.51973982E+01
  7.59869910E+00  7.59869910E+00 -1.51973982E+01  7.59869910E+00  7.59869910E+00
 -1.51973982E+01  7.59869910E+00  7.59869910E+00 -1.51973982E+01  7.59869910E+00
  7.59869910E+00 -1.51973982E+01  7.59869910E+00  7.59869910E+00 -1.51973982E+01
  7.59869910E+00  7.59869910E+00 -1.51973982E+01  7.59869910E+00  7.59869910E+00
 -1.51973982E+01  7.59869910E+00  7.59869910E+00 -1.51973982E+01  7.59869910E+00
  7.59869910E+00 -1.51973982E+01  7.59869910E+00  7.59869910E+00 -1.51973982E+01
  7.59869910E+00  7.59869910E+00 -1.51973982E+01  7.59869910E+00  7.59869910E+00
 -1.51973982E+01  7.59869910E+00  7.59869910E+00 -1.51973982E+01  7.59869910E+00
  7.59869910E+00 -1.51973982E+01  7.59869910E+00  7.59869910E+00 -1.51973982E+01
  7.59869910E+00  7.59869910E+00 -1.51973982E+01  7.59869910E+00  7.59869910E+00
 -1.51973982E+01  7.59869910E+00  7.59869910E+00 -1.51973982E+01  7.59869910E+00
  7.59869910E+00 -1.51973982E+01  7.59869910E+00  7.59869910E+00 -1.51973982E+01
  7.59869910E+00  7.59869910E+00 -1.51973982E+01  7.59869910E+00  7.59869910E+00
 -1.51973982E+01  7.59869910E+00  7.59869910E+00 -1.51973982E+01  7.59869910E+00
  7.59869910E+00 -1.51973982E+01  7.59869910E+00  7.59869910E+00 -1.51973982E+01
  7.59869910E+00  7.59869910E+00 -1.51973982E+01  7.59869910E+00  7.59869910E+00
 -1.51973982E+01  7.59869910E+00  7.59869910E+00 -1.51973982E+01  7.59869910E+00
  7.59869910E+00 -1.51973982E+01  7.59869910E+00  7.59869910E+00 -1.51973982E+01
  7.59869910E+00  7.59869910E+00 -1.51973982E+01  7.59869910E+00  7.59869910E+00
 -1.51973982E+01  7.59869910E+00  7.59869910E+00 -1.51973982E+01  7.59869910E+00
  7.59869910E+00 -1.51973982E+01  7.59869910E+00  7.59869910E+00 -1.51973982E+01
  7.59869910E+00  7.59869910E+00 -1.51973982E+01  7.59869910E+00  7.59869910E+00
 -1.51973982E+01  7.59869910E+00  7.59869910E+00 -1.51973982E+01  7.59869910E+00
  7.59869910E+00 -1.51973982E+01  7.59869910E+00  7.59869910E+00 -1.51973982E+01
  7.59869910E+00  7.59869910E+00 -1.51973982E+01  7.59869910E+00  7.59869910E+00
 -1.51973982E+01  7.59869910E+00  7.59869910E+00 -1.51973982E+01  7.59869910E+00
  7.59869910E+00 -1.51973982E+01  7.59869910E+00  7.59869910E+00 -1.51973982E+01
  7.59869910E+00  7.59869910E+00 -1.51973982E+01  7.59869910E+00  7.59869910E+00
 -1.51973982E+01  7.59869910E+00  7.59869910E+00 -1.51973982E+01  7.59869910E+00
  7.59869910E+00 -1.51973982E+01  7.59869910E+00  7.59869910E+00 -1.51973982E+01
  7.59869910E+00  7.59869910E+00 -1.51973982E+01  7.59869910E+00  7.59869910E+00
 -1.51973982E+01  7.59869910E+00  7.59869910E+00 -1.51973982E+01  7.59869910E+00
  7.59869910E+00 -1.51973982E+01  7.59869910E+00  7.59869910E+00 -1.51973982E+01
  7.59869910E+00  7.59869910E+00 -1.51973982E+01  7.59869910E+00  7.59869910E+00
 -1.51973982E+01  7.59869910E+00  7.59869910E+00 -1.51973982E+01  7.59869910E+00
  7.59869910E+00 -1.51973982E+01  7.59869910E+00  7.59869910E+00 -1.51973982E+01
  7.59869910E+00  7.59869910E+00 -1.51973982E+01  7.59869910E+00  7.59869910E+00
 -1.51973982E+01  7.59869910E+00  7.59869910E+00 -1.51973982E+01  7.59869910E+00
  7.59869910E+00 -1.51973982E+01  7.59869910E+00  7.59869910E+00 -1.51973982E+01
  7.59869910E+00  7.59869910E+00 -1.51973982E+01  7.59869910E+00  7.59869910E+00
 -1.51973982E+01  7.59869910E+00  7.59869910E+00 -1.51973982E+01  7.59869910E+00
  7.59869910E+00 -1.51973982E+01  7.59869910E+00  7.59869910E+00 -1.51973982E+01
  7.59869910E+00  7.59869910E+00 -1.51973982E+01  7.59869910E+00  7.59869910E+00
 -1.51973982E+01  7.59869910E+00  7.59869910E+00 -1.51973982E+01  7.59869910E+00
  7.59869910E+00 -1.51973982E+01  7.59869910E+00  7.59869910E+00 -1.51973982E+01
  7.59869910E+00  7.59869910E+00 -1.51973982E+01  7.59869910E+00  7.59869910E+00
 -1.51973982E+01  7.59869910E+00  7.59869910E+00 -1.51973982E+01  7.59869910E+00
  7.59869910E+00 -1.51973982E+01  7.59869910E+00  7.59869910E+00 -1.51973982E+01
  7.59869910E+00  7.59869910E+00 -1.51973982E+01  7.59869910E+00  7.59869910E+00
 -1.51973982E+01  7.59869910E+00  7.59869910E+00 -1.51973982E+01  7.59869910E+00
  7.59869910E+00 -1.51973982E+01  7.59869910E+00  7.59869910E+00 -1.51973982E+01
  7.59869910E+00  7.59869910E+00 -1.51973982E+01  7.59869910E+00  7.59869910E+00
 -1.51973982E+01  7.59869910E+00  7.59869910E+00 -1.51973982E+01  7.59869910E+00
  7.59869910E+00 -1.51973982E+01  7.59869910E+00  7.59869910E+00 -1.51973982E+01
  7.59869910E+00  7.59869910E+00 -1.51973982E+01  7.59869910E+00  7.59869910E+00
 -1.51973982E+01  7.59869910E+00  7.59869910E+00 -1.51973982E+01  7.59869910E+00
  7.59869910E+00 -1.51973982E+01  7.59869910E+00  7.59869910E+00 -1.51973982E+01
  7.59869910E+00  7.59869910E+00 -1.51973982E+01  7.59869910E+00  7.59869910E+00
 -1.51973982E+01  7.59869910E+00  7.59869910E+00 -1.51973982E+01  7.59869910E+00
  7.59869910E+00 -1.51973982E+01  7.59869910E+00  7.59869910E+00 -1.51973982E+01
  7.59869910E+00  7.59869910E+00 -1.51973982E+01  7.59869910E+00  7.59869910E+00
 -1.51973982E+01  7.59869910E+00  7.59869910E+00 -1.51973982E+01  7.59869910E+00
  7.59869910E+00 -1.51973982E+01  7.59869910E+00  7.59869910E+00 -1.51973982E+01
  7.59869910E+00  7.59869910E+00 -1.51973982E+01  7.59869910E+00  7.59869910E+00
 -1.51973982E+01  7.59869910E+00  7.59869910E+00 -1.51973982E+01  7.59869910E+00
  7.59869910E+00 -1.51973982E+01  7.59869910E+00  7.59869910E+00 -1.51973982E+01
  7.59869910E+00  7.59869910E+00 -1.51973982E+01  7.59869910E+00  7.59869910E+00
 -1.51973982E+01  7.59869910E+00  7.59869910E+00 -1.51973982E+01  7.59869910E+00
  7.59869910E+00 -1.51973982E+01  7.59869910E+00  7.59869910E+00 -1.51973982E+01
  7.59869910E+00  7.59869910E+00 -1.51973982E+01  7.59869910E+00  7.59869910E+00
 -1.51973982E+01  7.59869910E+00  7.59869910E+00 -1.51973982E+01  7.59869910E+00
  7.59869910E+00 -1.51973982E+01  7.59869910E+00  7.59869910E+00 -1.51973982E+01
  7.59869910E+00  7.59869910E+00 -1.51973982E+01  7.59869910E+00  7.59869910E+00
 -1.51973982E+01  7.59869910E+00  7.59869910E+00 -1.51973982E+01  7.59869910E+00
  7.59869910E+00 -1.51973982E+01  7.59869910E+00  7.59869910E+00 -1.51973982E+01
  7.59869910E+00  7.59869910E+00 -1.51973982E+01  7.59869910E+00  7.59869910E+00
 -1.51973982E+01  7.59869910E+00  7.59869910E+00 -1.51973982E+01  7.59869910E+00
  7.59869910E+00 -1.51973982E+01  7.59869910E+00  7.59869910E+00 -1.51973982E+01
  7.59869910E+00  7.59869910E+00 -1.51973982E+01  7.59869910E+00  7.59869910E+00
 -1.51973982E+01  7.59869910E+00  7.59869910E+00 -1.51973982E+01  7.59869910E+00
  7.59869910E+00 -1.51973982E+01  7.59869910E+00  7.59869910E+00 -1.51973982E+01
  7.59869910E+00  7.59869910E+00 -1.51973982E+01  7.59869910E+00  7.59869910E+00
 -1.51973982E+01  7.59869910E+00  7.59869910E+00 -1.51973982E+01  7.59869910E+00
  7.59869910E+00 -1.51973982E+01  7.59869910E+00  7.59869910E+00 -1.51973982E+01
  7.59869910E+00  7.59869910E+00 -1.51973982E+01  7.59869910E+00  7.59869910E+00
 -1.51973982E+01  7.59869910E+00  7.59869910E+00 -1.51973982E+01  7.59869910E+00
  7.59869910E+00 -1.51973982E+01  7.59869910E+00  7.59869910E+00 -1.51973982E+01
  7.59869910E+00  7.59869910E+00 -1.51973982E+01  7.59869910E+00  7.59869910E+00
 -1.51973982E+01  7.59869910E+00  7.59869910E+00 -1.51973982E+01  7.59869910E+00
  7.59869910E+00 -1.51973982E+01  7.59869910E+00  7.59869910E+00 -1.51973982E+01
  7.59869910E+00  7.59869910E+00 -1.51973982E+01  7.59869910E+00  7.59869910E+00
 -1.51973982E+01  7.59869910E+00  7.59869910E+00 -1.51973982E+01  7.59869910E+00
  7.59869910E+00 -1.51973982E+01  7.59869910E+00  7.59869910E+00 -1.51973982E+01
  7.59869910E+00  7.59869910E+00 -1.51973982E+01  7.59869910E+00  7.59869910E+00
 -1.51973982E+01  7.59869910E+00  7.59869910E+00 -1.51973982E+01  7.59869910E+00
  7.59869910E+00 -1.51973982E+01  7.59869910E+00  7.59869910E+00 -1.51973982E+01
  7.59869910E+00  7.59869910E+00 -1.51973982E+01  7.59869910E+00  7.59869910E+00
 -1.51973982E+01  7.59869910E+00  7.59869910E+00 -1.51973982E+01  7.59869910E+00
  7.59869910E+00 -1.51973982E+01  7.59869910E+00  7.59869910E+00 -1.51973982E+01
  7.59869910E+00  7.59869910E+00 -1.51973982E+01  7.59869910E+00  7.59869910E+00
 -1.51973982E+01  7.59869910E+00  7.59869910E+00 -1.51973982E+01  7.59869910E+00
  7.59869910E+00 -1.51973982E+01  7.59869910E+00  7.59869910E+00 -1.51973982E+01
  7.59869910E+00  7.59869910E+00 -1.51973982E+01  7.59869910E+00  7.59869910E+00
 -1.51973982E+01  7.59869910E+00  7.59869910E+00 -1.51973982E+01  7.59869910E+00
  7.59869910E+00 -1.51973982E+01  7.59869910E+00  7.59869910E+00 -1.51973982E+01
  7.59869910E+00  7.59869910E+00 -1.51973982E+01  7.59869910E+00  7.59869910E+00
 -1.51973982E+01  7.59869910E+00  7.59869910E+00 -1.51973982E+01  7.59869910E+00
  7.59869910E+00 -1.51973982E+01  7.59869910E+00  7.59869910E+00 -1.51973982E+01
  7.59869910E+00  7.59869910E+00 -1.51973982E+01  7.59869910E+00  7.59869910E+00
 -1.51973982E+01  7.59869910E+00  7.59869910E+00 -1.51973982E+01  7.59869910E+00
  7.59869910E+00 -1.51973982E+01  7.59869910E+00  7.59869910E+00 -1.51973982E+01
  7.59869910E+00  7.59869910E+00 -1.51973982E+01  7.59869910E+00  7.59869910E+00
 -1.51973982E+01  7.59869910E+00  7.59869910E+00 -1.51973982E+01  7.59869910E+00
  7.59869910E+00 -1.51973982E+01  7.59869910E+00  7.59869910E+00 -1.51973982E+01
  7.59869910E+00  7.59869910E+00 -1.51973982E+01  7.59869910E+00  7.59869910E+00
 -1.51973982E+01  7.59869910E+00  7.59869910E+00 -1.51973982E+01  7.59869910E+00
  7.59869910E+00 -1.51973982E+01  7.59869910E+00  7.59869910E+00 -1.51973982E+01
  7.59869910E+00  7.59869910E+00 -1.51973982E+01  7.59869910E+00  7.59869910E+00
 -1.51973982E+01  7.59869910E+00  7.59869910E+00 -1.51973982E+01  7.59869910E+00
  7.59869910E+00 -1.51973982E+01  7.59869910E+00  7.59869910E+00 -1.51973982E+01
  7.59869910E+00  7.59869910E+00 -1.51973982E+01  7.59869910E+00  7.59869910E+00
 -1.51973982E+01  7.59869910E+00  7.59869910E+00 -1.51973982E+01  7.59869910E+00
  7.59869910E+00 -1.51973982E+01  7.59869910E+00  7.59869910E+00 -1.51973982E+01
  7.59869910E+00  7.59869910E+00 -1.51973982E+01  7.59869910E+00  7.59869910E+00
 -1.51973982E+01  7.59869910E+00  7.59869910E+00 -1.51973982E+01  7.59869910E+00
  7.59869910E+00 -1.51973982E+01  7.59869910E+00  7.59869910E+00 -1.51973982E+01
  7.59869910E+00  7.59869910E+00 -1.51973982E+01  7.59869910E+00  7.59869910E+00
 -1.51973982E+01  7.59869910E+00  7.59869910E+00 -1.51973982E+01  7.59869910E+00
  7.59869910E+00 -1.51973982E+01  7.59869910E+00  7.59869910E+00 -1.51973982E+01
  7.59869910E+00  7.59869910E+00 -1.51973982E+01  7.59869910E+00  7.59869910E+00
 -1.51973982E+01  7.59869910E+00  7.59869910E+00 -1.51973982E+01  7.59869910E+00
  7.59869910E+00 -1.51973982E+01  7.59869910E+00  7.59869910E+00 -1.51973982E+01
  7.59869910E+00  7.59869910E+00 -1.51973982E+01  7.59869910E+00  7.59869910E+00
 -1.51973982E+01  7.59869910E+00  7.59869910E+00 -1.51973982E+01  7.59869910E+00
  7.59869910E+00 -1.51973982E+01  7.59869910E+00  7.59869910E+00 -1.51973982E+01
  7.59869910E+00  7.59869910E+00 -1.51973982E+01  7.59869910E+00  7.59869910E+00
 -1.51973982E+01  7.59869910E+00  7.59869910E+00 -1.51973982E+01  7.59869910E+00
  7.59869910E+00 -1.51973982E+01  7.59869910E+00  7.59869910E+00 -1.51973982E+01
  7.59869910E+00  7.59869910E+00 -1.51973982E+01  7.59869910E+00  7.59869910E+00
 -1.51973982E+01  7.59869910E+00  7.59869910E+00 -1.51973982E+01  7.59869910E+00
  7.59869910E+00 -1.51973982E+01  7.59869910E+00  7.59869910E+00 -1.51973982E+01
  7.59869910E+00  7.59869910E+00 -1.51973982E+01  7.59869910E+00  7.59869910E+00
 -1.51973982E+01  7.59869910E+00  7.59869910E+00 -1.51973982E+01  7.59869910E+00
  7.59869910E+00 -1.51973982E+01  7.59869910E+00  7.59869910E+00 -1.51973982E+01
  7.59869910E+00  7.59869910E+00 -1.51973982E+01  7.59869910E+00  7.59869910E+00
 -1.51973982E+01  7.59869910E+00  7.59869910E+00 -1.51973982E+01  7.59869910E+00
  7.59869910E+00 -1.51973982E+01  7.59869910E+00  7.59869910E+00 -1.51973982E+01
  7.59869910E+00  7.59869910E+00 -1.51973982E+01  7.59869910E+00  7.59869910E+00
 -1.51973982E+01  7.59869910E+00  7.59869910E+00 -1.51973982E+01  7.59869910E+00
  7.59869910E+00 -1.51973982E+01  7.59869910E+00  7.59869910E+00 -1.51973982E+01
  7.59869910E+00  7.59869910E+00 -1.51973982E+01  7.59869910E+00  7.59869910E+00
 -1.51973982E+01  7.59869910E+00  7.59869910E+00 -1.51973982E+01  7.59869910E+00
  7.59869910E+00 -1.51973982E+01  7.59869910E+00  7.59869910E+00 -1.51973982E+01
  7.59869910E+00  7.59869910E+00 -1.51973982E+01  7.59869910E+00  7.59869910E+00
 -1.51973982E+01  7.59869910E+00  7.59869910E+00 -1.51973982E+01  7.59869910E+00
  7.59869910E+00 -1.51973982E+01  7.59869910E+00  7.59869910E+00 -1.51973982E+01
  7.59869910E+00  7.59869910E+00 -1.51973982E+01  7.59869910E+00  7.59869910E+00
 -1.51973982E+01  7.59869910E+00  7.59869910E+00 -1.51973982E+01  7.59869910E+00
  7.59869910E+00 -1.51973982E+01  7.59869910E+00  7.59869910E+00 -1.51973982E+01
  7.59869910E+00  7.59869910E+00 -1.51973982E+01  7.59869910E+00  7.59869910E+00
 -1.51973982E+01  7.59869910E+00  7.59869910E+00 -1.51973982E+01  7.59869910E+00
  7.59869910E+00 -1.51973982E+01  7.59869910E+00  7.59869910E+00 -1.51973982E+01
  7.59869910E+00  7.59869910E+00 -1.51973982E+01  7.59869910E+00  7.59869910E+00
 -1.51973982E+01  7.59869910E+00  7.59869910E+00 -1.51973982E+01  7.59869910E+00
  7.59869910E+00 -1.51973982E+01  7.59869910E+00  7.59869910E+00 -1.51973982E+01
  7.59869910E+00  7.59869910E+00 -1.51973982E+01  7.59869910E+00  7.59869910E+00
 -1.51973982E+01  7.59869910E+00  7.59869910E+00 -1.51973982E+01  7.59869910E+00
  7.59869910E+00 -1.51973982E+01  7.59869910E+00  7.59869910E+00 -1.51973982E+01
  7.59869910E+00  7.59869910E+00 -1.51973982E+01  7.59869910E+00  7.59869910E+00
 -1.51973982E+01  7.59869910E+00  7.59869910E+00 -1.51973982E+01  7.59869910E+00
  7.59869910E+00 -1.51973982E+01  7.59869910E+00  7.59869910E+00 -1.51973982E+01
  7.59869910E+00  7.59869910E+00 -1.51973982E+01  7.59869910E+00  7.59869910E+00
 -1.51973982E+01  7.59869910E+00  7.59869910E+00 -1.51973982E+01  7.59869910E+00
  7.59869910E+00 -1.51973982E+01  7.59869910E+00  7.59869910E+00 -1.51973982E+01
  7.59869910E+00  7.59869910E+00 -1.51973982E+01  7.59869910E+00  7.59869910E+00
 -1.51973982E+01  7.59869910E+00  7.59869910E+00 -1.51973982E+01  7.59869910E+00
  7.59869910E+00 -1.51973982E+01  7.59869910E+00  7.59869910E+00 -1.51973982E+01
  7.59869910E+00  7.59869910E+00 -1.51973982E+01  7.59869910E+00  7.59869910E+00
 -1.51973982E+01  7.59869910E+00  7.59869910E+00 -1.51973982E+01  7.59869910E+00
  7.59869910E+00 -1.51973982E+01  7.59869910E+00  7.59869910E+00 -1.51973982E+01
  7.59869910E+00  7.59869910E+00 -1.51973982E+01  7.59869910E+00  7.59869910E+00
 -1.51973982E+01  7.59869910E+00  7.59869910E+00 -1.51973982E+01  7.59869910E+00
  7.59869910E+00 -1.51973982E+01  7.59869910E+00  7.59869910E+00 -1.51973982E+01
  7.59869910E+00  7.59869910E+00 -1.51973982E+01  7.59869910E+00  7.59869910E+00
 -1.51973982E+01  7.59869910E+00  7.59869910E+00 -1.51973982E+01  7.59869910E+00
  7.59869910E+00 -1.51973982E+01  7.59869910E+00  7.59869910E+00 -1.51973982E+01
  7.59869910E+00  7.59869910E+00 -1.51973982E+01  7.59869910E+00  7.59869910E+00
 -1.51973982E+01  7.59869910E+00  7.59869910E+00 -1.51973982E+01  7.59869910E+00
  7.59869910E+00 -1.51973982E+01  7.59869910E+00  7.59869910E+00 -1.51973982E+01
  7.59869910E+00  7.59869910E+00 -1.51973982E+01  7.59869910E+00  7.59869910E+00
 -1.51973982E+01  7.59869910E+00  7.59869910E+00 -1.51973982E+01  7.59869910E+00
  7.59869910E+00 -1.51973982E+01  7.59869910E+00  7.59869910E+00 -1.51973982E+01
  7.59869910E+00  7.59869910E+00 -1.51973982E+01  7.59869910E+00  7.59869910E+00
 -1.51973982E+01  7.59869910E+00  7.59869910E+00 -1.51973982E+01  7.59869910E+00
  7.59869910E+00 -1.51973982E+01  7.59869910E+00  7.59869910E+00 -1.51973982E+01
  7.59869910E+00  7.59869910E+00 -1.51973982E+01  7.59869910E+00  7.59869910E+00
 -1.51973982E+01  7.59869910E+00  7.59869910E+00 -1.51973982E+01  7.59869910E+00
  7.59869910E+00 -1.51973982E+01  7.59869910E+00  7.59869910E+00 -1.51973982E+01
  7.59869910E+00  7.59869910E+00 -1.51973982E+01  7.59869910E+00  7.59869910E+00
 -1.51973982E+01  7.59869910E+00  7.59869910E+00 -1.51973982E+01  7.59869910E+00
  7.59869910E+00 -1.51973982E+01  7.59869910E+00  7.59869910E+00 -1.51973982E+01
  7.59869910E+00  7.59869910E+00 -1.51973982E+01  7.59869910E+00  7.59869910E+00
 -1.51973982E+01  7.59869910E+00  7.59869910E+00 -1.51973982E+01  7.59869910E+00
  7.59869910E+00 -1.51973982E+01  7.59869910E+00  7.59869910E+00 -1.51973982E+01
  7.59869910E+00  7.59869910E+00 -1.51973982E+01  7.59869910E+00  7.59869910E+00
 -1.51973982E+01  7.59869910E+00  7.59869910E+00 -1.51973982E+01  7.59869910E+00
  7.59869910E+00 -1.51973982E+01  7.59869910E+00  7.59869910E+00 -1.51973982E+01
  7.59869910E+00  7.59869910E+00 -1.51973982E+01  7.59869910E+00  7.59869910E+00
 -1.51973982E+01  7.59869910E+00  7.59869910E+00 -1.51973982E+01  7.59869910E+00
  7.59869910E+00 -1.51973982E+01  7.59869910E+00  7.59869910E+00 -1.51973982E+01
  7.59869910E+00  7.59869910E+00 -1.51973982E+01  7.59869910E+00  7.59869910E+00
 -1.51973982E+01  7.59869910E+00  7.59869910E+00 -1.51973982E+01  7.59869910E+00
  7.59869910E+00 -1.51973982E+01  7.59869910E+00  7.59869910E+00 -1.51973982E+01
  7.59869910E+00  7.59869910E+00 -1.51973982E+01  7.59869910E+00  7.59869910E+00
 -1.51973982E+01  7.59869910E+00  7.59869910E+00 -1.51973982E+01  7.59869910E+00
  7.59869910E+00 -1.51973982E+01  7.59869910E+00  7.59869910E+00 -1.51973982E+01
  7.59869910E+00  7.59869910E+00 -1.51973982E+01  7.59869910E+00  7.59869910E+00
 -1.51973982E+01  7.59869910E+00  7.59869910E+00 -1.51973982E+01  7.59869910E+00
  7.59869910E+00 -1.51973982E+01  7.59869910E+00  7.59869910E+00 -1.51973982E+01
  7.59869910E+00  7.59869910E+00 -1.51973982E+01  7.59869910E+00  7.59869910E+00
 -1.51973982E+01  7.59869910E+00  7.59869910E+00 -1.51973982E+01  7.59869910E+00
  7.59869910E+00 -1.51973982E+01  7.59869910E+00  7.59869910E+00 -1.51973982E+01
  7.59869910E+00  7.59869910E+00 -1.51973982E+01  7.59869910E+00  7.59869910E+00
 -1.51973982E+01  7.59869910E+00  7.59869910E+00 -1.51973982E+01  7.59869910E+00
  7.59869910E+00 -1.51973982E+01  7.59869910E+00  7.59869910E+00 -1.51973982E+01
  7.59869910E+00  7.59869910E+00 -1.51973982E+01  7.59869910E+00  7.59869910E+00
 -1.51973982E+01  7.59869910E+00  7.59869910E+00 -1.51973982E+01  7.59869910E+00
  7.59869910E+00 -1.51973982E+01  7.59869910E+00  7.59869910E+00 -1.51973982E+01
  7.59869910E+00  7.59869910E+00 -1.51973982E+01  7.59869910E+00  7.59869910E+00
 -1.51973982E+01  7.59869910E+00  7.59869910E+00 -1.51973982E+01  7.59869910E+00
  7.59869910E+00 -1.51973982E+01  7.59869910E+00  7.59869910E+00 -1.51973982E+01
  7.59869910E+00  7.59869910E+00 -1.51973982E+01  7.59869910E+00  7.59869910E+00
 -1.51973982E+01  7.59869910E+00  7.59869910E+00 -1.51973982E+01  7.59869910E+00
  7.59869910E+00 -1.51973982E+01  7.59869910E+00  7.59869910E+00 -1.51973982E+01
  7.59869910E+00  7.59869910E+00 -1.51973982E+01  7.59869910E+00  7.59869910E+00
 -1.51973982E+01  7.59869910E+00  7.59869910E+00 -1.51973982E+01  7.59869910E+00
  7.59869910E+00 -1.51973982E+01  7.59869910E+00  7.59869910E+00 -1.51973982E+01
  7.59869910E+00  7.59869910E+00 -1.51973982E+01  7.59869910E+00  7.59869910E+00
 -1.51973982E+01  7.59869910E+00  7.59869910E+00 -1.51973982E+01  7.59869910E+00
  7.59869910E+00 -1.51973982E+01  7.59869910E+00  7.59869910E+00 -1.51973982E+01
  7.59869910E+00  7.59869910E+00 -1.51973982E+01  7.59869910E+00  7.59869910E+00
 -1.51973982E+01  7.59869910E+00  7.59869910E+00 -1.51973982E+01  7.59869910E+00
  7.59869910E+00 -1.51973982E+01  7.59869910E+00  7.59869910E+00 -1.51973982E+01
  7.59869910E+00  7.59869910E+00 -1.51973982E+01  7.59869910E+00  7.59869910E+00
 -1.51973982E+01  7.59869910E+00  7.59869910E+00 -1.51973982E+01  7.59869910E+00
  7.59869910E+00 -1.51973982E+01  7.59869910E+00  7.59869910E+00 -1.51973982E+01
  7.59869910E+00  7.59869910E+00 -1.51973982E+01  7.59869910E+00  7.59869910E+00
 -1.51973982E+01  7.59869910E+00  7.59869910E+00 -1.51973982E+01  7.59869910E+00
  7.59869910E+00 -1.51973982E+01  7.59869910E+00  7.59869910E+00 -1.51973982E+01
  7.59869910E+00  7.59869910E+00 -1.51973982E+01  7.59869910E+00  7.59869910E+00
 -1.51973982E+01  7.59869910E+00  7.59869910E+00 -1.51973982E+01  7.59869910E+00
  7.59869910E+00 -1.51973982E+01  7.59869910E+00  7.59869910E+00 -1.51973982E+01
  7.59869910E+00  7.59869910E+00 -1.51973982E+01  7.59869910E+00  7.59869910E+00
 -1.51973982E+01  7.59869910E+00  7.59869910E+00 -1.51973982E+01  7.59869910E+00
  7.59869910E+00 -1.51973982E+01  7.59869910E+00  7.59869910E+00 -1.51973982E+01
  7.59869910E+00  7.59869910E+00 -1.51973982E+01  7.59869910E+00  7.59869910E+00
 -1.51973982E+01  7.59869910E+00  7.59869910E+00 -1.51973982E+01  7.59869910E+00
  7.59869910E+00 -1.51973982E+01  7.59869910E+00  7.59869910E+00 -1.51973982E+01
  7.59869910E+00  7.59869910E+00 -1.51973982E+01  7.59869910E+00  7.59869910E+00
 -1.51973982E+01  7.59869910E+00  7.59869910E+00 -1.51973982E+01  7.59869910E+00
  7.59869910E+00 -1.51973982E+01  7.59869910E+00  7.59869910E+00 -1.51973982E+01
  7.59869910E+00  7.59869910E+00 -1.51973982E+01  7.59869910E+00  7.59869910E+00
 -1.51973982E+01  7.59869910E+00  7.59869910E+00 -1.51973982E+01  7.59869910E+00
  7.59869910E+00 -1.51973982E+01  7.59869910E+00  7.59869910E+00 -1.51973982E+01
  7.59869910E+00  7.59869910E+00 -1.51973982E+01  7.59869910E+00  7.59869910E+00
 -1.51973982E+01  7.59869910E+00  7.59869910E+00 -1.51973982E+01  7.59869910E+00
  7.59869910E+00 -1.51973982E+01  7.59869910E+00  7.59869910E+00 -1.51973982E+01
  7.59869910E+00  7.59869910E+00 -1.51973982E+01  7.59869910E+00  7.59869910E+00
 -1.51973982E+01  7.59869910E+00  7.59869910E+00 -1.51973982E+01  7.59869910E+00
  7.59869910E+00 -1.51973982E+01  7.59869910E+00  7.59869910E+00 -1.51973982E+01
  7.59869910E+00  7.59869910E+00 -1.51973982E+01  7.59869910E+00  7.59869910E+00
 -1.51973982E+01  7.59869910E+00  7.59869910E+00 -1.51973982E+01  7.59869910E+00
  7.59869910E+00 -1.51973982E+01  7.59869910E+00  7.59869910E+00 -1.51973982E+01
  7.59869910E+00  7.59869910E+00 -1.51973982E+01  7.59869910E+00  7.59869910E+00
 -1.51973982E+01  7.59869910E+00  7.59869910E+00 -1.51973982E+01  7.59869910E+00
  7.59869910E+00 -1.51973982E+01  7.59869910E+00  7.59869910E+00 -1.51973982E+01
  7.59869910E+00  7.59869910E+00 -1.51973982E+01  7.59869910E+00  7.59869910E+00
 -1.51973982E+01  7.59869910E+00  7.59869910E+00 -1.51973982E+01  7.59869910E+00
  7.59869910E+00 -1.51973982E+01  7.59869910E+00  7.59869910E+00 -1.51973982E+01
  7.59869910E+00  7.59869910E+00 -1.51973982E+01  7.59869910E+00  7.59869910E+00
 -1.51973982E+01  7.59869910E+00  7.59869910E+00 -1.51973982E+01  7.59869910E+00
  7.59869910E+00 -1.51973982E+01  7.59869910E+00  7.59869910E+00 -1.51973982E+01
  7.59869910E+00  7.59869910E+00 -1.51973982E+01  7.59869910E+00  7.59869910E+00
 -1.51973982E+01  7.59869910E+00  7.59869910E+00 -1.51973982E+01  7.59869910E+00
  7.59869910E+00 -1.51973982E+01  7.59869910E+00  7.59869910E+00 -1.51973982E+01
  7.59869910E+00  7.59869910E+00 -1.51973982E+01  7.59869910E+00  7.59869910E+00
 -1.51973982E+01  7.59869910E+00  7.59869910E+00 -1.51973982E+01  7.59869910E+00
  7.59869910E+00 -1.51973982E+01  7.59869910E+00  7.59869910E+00 -1.51973982E+01
  7.59869910E+00  7.59869910E+00 -1.51973982E+01  7.59869910E+00  7.59869910E+00
 -1.51973982E+01  7.59869910E+00  7.59869910E+00 -1.51973982E+01  7.59869910E+00
  7.59869910E+00 -1.51973982E+01  7.59869910E+00  7.59869910E+00 -1.51973982E+01
  7.59869910E+00  7.59869910E+00 -1.51973982E+01  7.59869910E+00  7.59869910E+00
 -1.51973982E+01  7.59869910E+00  7.59869910E+00 -1.51973982E+01  7.59869910E+00
  7.59869910E+00 -1.51973982E+01  7.59869910E+00  7.59869910E+00 -1.51973982E+01
  7.59869910E+00  7.59869910E+00 -1.51973982E+01  7.59869910E+00  7.59869910E+00
 -1.51973982E+01  7.59869910E+00  7.59869910E+00 -1.51973982E+01  7.59869910E+00
  7.59869910E+00 -1.51973982E+01  7.59869910E+00  7.59869910E+00 -1.51973982E+01
  7.59869910E+00  7.59869910E+00 -1.51973982E+01  7.59869910E+00  7.59869910E+00
 -1.51973982E+01  7.59869910E+00  7.59869910E+00 -1.51973982E+01  7.59869910E+00
  7.59869910E+00 -1.51973982E+01  7.59869910E+00  7.59869910E+00 -1.51973982E+01
  7.59869910E+00  7.59869910E+00 -1.51973982E+01  7.59869910E+00  7.59869910E+00
 -1.51973982E+01  7.59869910E+00  7.59869910E+00 -1.51973982E+01  7.59869910E+00
  7.59869910E+00 -1.51973982E+01  7.59869910E+00  7.59869910E+00 -1.51973982E+01
  7.59869910E+00  7.59869910E+00 -1.51973982E+01  7.59869910E+00  7.59869910E+00
 -1.51973982E+01  7.59869910E+00  7.59869910E+00 -1.51973982E+01  7.59869910E+00
  7.59869910E+00 -1.51973982E+01  7.59869910E+00  7.59869910E+00 -1.51973982E+01
  7.59869910E+00  7.59869910E+00 -1.51973982E+01  7.59869910E+00  7.59869910E+00
 -1.51973982E+01  7.59869910E+00  7.59869910E+00 -1.51973982E+01  7.59869910E+00
  7.59869910E+00 -1.51973982E+01  7.59869910E+00  7.59869910E+00 -1.51973982E+01
  7.59869910E+00  7.59869910E+00 -1.51973982E+01  7.59869910E+00  7.59869910E+00
 -1.51973982E+01  7.59869910E+00  7.59869910E+00 -1.51973982E+01  7.59869910E+00
  7.59869910E+00 -1.51973982E+01  7.59869910E+00  7.59869910E+00 -1.51973982E+01
  7.59869910E+00  7.59869910E+00 -1.51973982E+01  7.59869910E+00  7.59869910E+00
 -1.51973982E+01  7.59869910E+00  7.59869910E+00 -1.51973982E+01  7.59869910E+00
  7.59869910E+00 -1.51973982E+01  7.59869910E+00  7.59869910E+00 -1.51973982E+01
  7.59869910E+00  7.59869910E+00 -1.51973982E+01  7.59869910E+00  7.59869910E+00
 -1.51973982E+01  7.59869910E+00  7.59869910E+00 -1.51973982E+01  7.59869910E+00
  7.59869910E+00 -1.51973982E+01  7.59869910E+00  7.59869910E+00 -1.51973982E+01
  7.59869910E+00  7.59869910E+00 -1.51973982E+01  7.59869910E+00  7.59869910E+00
 -1.51973982E+01  7.59869910E+00  7.59869910E+00 -1.51973982E+01  7.59869910E+00
  7.59869910E+00 -1.51973982E+01  7.59869910E+00  7.59869910E+00 -1.51973982E+01
  7.59869910E+00  7.59869910E+00 -1.51973982E+01  7.59869910E+00  7.59869910E+00
 -1.51973982E+01  7.59869910E+00  7.59869910E+00 -1.51973982E+01  7.59869910E+00
  7.59869910E+00 -1.51973982E+01  7.59869910E+00  7.59869910E+00 -1.51973982E+01
  7.59869910E+00  7.59869910E+00 -1.51973982E+01  7.59869910E+00  7.59869910E+00
 -1.51973982E+01  7.59869910E+00  7.59869910E+00 -1.51973982E+01  7.59869910E+00
  7.59869910E+00 -1.51973982E+01  7.59869910E+00  7.59869910E+00 -1.51973982E+01
  7.59869910E+00  7.59869910E+00 -1.51973982E+01  7.59869910E+00  7.59869910E+00
 -1.51973982E+01  7.59869910E+00  7.59869910E+00 -1.51973982E+01  7.59869910E+00
  7.59869910E+00 -1.51973982E+01  7.59869910E+00  7.59869910E+00 -1.51973982E+01
  7.59869910E+00  7.59869910E+00 -1.51973982E+01  7.59869910E+00  7.59869910E+00
 -1.51973982E+01  7.59869910E+00  7.59869910E+00 -1.51973982E+01  7.59869910E+00
  7.59869910E+00 -1.51973982E+01  7.59869910E+00  7.59869910E+00 -1.51973982E+01
  7.59869910E+00  7.59869910E+00 -1.51973982E+01  7.59869910E+00  7.59869910E+00
 -1.51973982E+01  7.59869910E+00  7.59869910E+00 -1.51973982E+01  7.59869910E+00
  7.59869910E+00 -1.51973982E+01  7.59869910E+00  7.59869910E+00 -1.51973982E+01
  7.59869910E+00  7.59869910E+00 -1.51973982E+01  7.59869910E+00  7.59869910E+00
 -1.51973982E+01  7.59869910E+00  7.59869910E+00 -1.51973982E+01  7.59869910E+00
  7.59869910E+00 -1.51973982E+01  7.59869910E+00  7.59869910E+00 -1.51973982E+01
  7.59869910E+00  7.59869910E+00 -1.51973982E+01  7.59869910E+00  7.59869910E+00
 -1.51973982E+01  7.59869910E+00  7.59869910E+00 -1.51973982E+01  7.59869910E+00
  7.59869910E+00 -1.51973982E+01  7.59869910E+00  7.59869910E+00 -1.51973982E+01
  7.59869910E+00  7.59869910E+00 -1.51973982E+01  7.59869910E+00  7.59869910E+00
 -1.51973982E+01  7.59869910E+00  7.59869910E+00 -1.51973982E+01  7.59869910E+00
  7.59869910E+00 -1.51973982E+01  7.59869910E+00  7.59869910E+00 -1.51973982E+01
  7.59869910E+00  7.59869910E+00 -1.51973982E+01  7.59869910E+00  7.59869910E+00
 -1.51973982E+01  7.59869910E+00  7.59869910E+00 -1.51973982E+01  7.59869910E+00
  7.59869910E+00 -1.51973982E+01  7.59869910E+00  7.59869910E+00 -1.51973982E+01
  7.59869910E+00  7.59869910E+00 -1.51973982E+01  7.59869910E+00  7.59869910E+00
 -1.51973982E+01  7.59869910E+00  7.59869910E+00 -1.51973982E+01  7.59869910E+00
  7.59869910E+00 -1.51973982E+01  7.59869910E+00  7.59869910E+00 -1.51973982E+01
  7.59869910E+00  7.59869910E+00 -1.51973982E+01  7.59869910E+00  7.59869910E+00
 -1.51973982E+01  7.59869910E+00  7.59869910E+00 -1.51973982E+01  7.59869910E+00
  7.59869910E+00 -1.51973982E+01  7.59869910E+00  7.59869910E+00 -1.51973982E+01
  7.59869910E+00  7.59869910E+00 -1.51973982E+01  7.59869910E+00  7.59869910E+00
 -1.51973982E+01  7.59869910E+00  7.59869910E+00 -1.51973982E+01  7.59869910E+00
  7.59869910E+00 -1.51973982E+01  7.59869910E+00  7.59869910E+00 -1.51973982E+01
  7.59869910E+00  7.59869910E+00 -1.51973982E+01  7.59869910E+00  7.59869910E+00
 -1.51973982E+01  7.59869910E+00  7.59869910E+00 -1.51973982E+01  7.59869910E+00
  7.59869910E+00 -1.51973982E+01  7.59869910E+00  7.59869910E+00 -1.51973982E+01
  7.59869910E+00  7.59869910E+00 -1.51973982E+01  7.59869910E+00  7.59869910E+00
 -1.51973982E+01  7.59869910E+00  7.59869910E+00 -1.51973982E+01  7.59869910E+00
  7.59869910E+00 -1.51973982E+01  7.59869910E+00  7.59869910E+00 -1.51973982E+01
  7.59869910E+00  7.59869910E+00 -1.51973982E+01  7.59869910E+00  7.59869910E+00
 -1.51973982E+01  7.59869910E+00  7.59869910E+00 -1.51973982E+01  7.59869910E+00
  7.59869910E+00 -1.51973982E+01  7.59869910E+00  7.59869910E+00 -1.51973982E+01
  7.59869910E+00  7.59869910E+00 -1.51973982E+01  7.59869910E+00  7.59869910E+00
 -1.51973982E+01  7.59869910E+00  7.59869910E+00 -1.51973982E+01  7.59869910E+00
  7.59869910E+00 -1.51973982E+01  7.59869910E+00  7.59869910E+00 -1.51973982E+01
  7.59869910E+00  7.59869910E+00 -1.51973982E+01  7.59869910E+00  7.59869910E+00
 -1.51973982E+01  7.59869910E+00  7.59869910E+00 -1.51973982E+01  7.59869910E+00
  7.59869910E+00 -1.51973982E+01  7.59869910E+00  7.59869910E+00 -1.51973982E+01
  7.59869910E+00  7.59869910E+00 -1.51973982E+01  7.59869910E+00  7.59869910E+00
 -1.51973982E+01  7.59869910E+00  7.59869910E+00 -1.51973982E+01  7.59869910E+00
  7.59869910E+00 -1.51973982E+01  7.59869910E+00  7.59869910E+00 -1.51973982E+01
  7.59869910E+00  7.59869910E+00 -1.51973982E+01  7.59869910E+00  7.59869910E+00
 -1.51973982E+01  7.59869910E+00  7.59869910E+00 -1.51973982E+01  7.59869910E+00
  7.59869910E+00 -1.51973982E+01  7.59869910E+00  7.59869910E+00 -1.51973982E+01
  7.59869910E+00  7.59869910E+00 -1.51973982E+01  7.59869910E+00  7.59869910E+00
 -1.51973982E+01  7.59869910E+00  7.59869910E+00 -1.51973982E+01  7.59869910E+00
  7.59869910E+00 -1.51973982E+01  7.59869910E+00  7.59869910E+00 -1.51973982E+01
  7.59869910E+00  7.59869910E+00 -1.51973982E+01  7.59869910E+00  7.59869910E+00
 -1.51973982E+01  7.59869910E+00  7.59869910E+00 -1.51973982E+01  7.59869910E+00
  7.59869910E+00 -1.51973982E+01  7.59869910E+00  7.59869910E+00 -1.51973982E+01
  7.59869910E+00  7.59869910E+00 -1.51973982E+01  7.59869910E+00  7.59869910E+00
 -1.51973982E+01  7.59869910E+00  7.59869910E+00 -1.51973982E+01  7.59869910E+00
  7.59869910E+00 -1.51973982E+01  7.59869910E+00  7.59869910E+00 -1.51973982E+01
  7.59869910E+00  7.59869910E+00 -1.51973982E+01  7.59869910E+00  7.59869910E+00
 -1.51973982E+01  7.59869910E+00  7.59869910E+00 -1.51973982E+01  7.59869910E+00
  7.59869910E+00 -1.51973982E+01  7.59869910E+00  7.59869910E+00 -1.51973982E+01
  7.59869910E+00  7.59869910E+00 -1.51973982E+01  7.59869910E+00  7.59869910E+00
 -1.51973982E+01  7.59869910E+00  7.59869910E+00 -1.51973982E+01  7.59869910E+00
  7.59869910E+00 -1.51973982E+01  7.59869910E+00  7.59869910E+00 -1.51973982E+01
  7.59869910E+00  7.59869910E+00 -1.51973982E+01  7.59869910E+00  7.59869910E+00
 -1.51973982E+01  7.59869910E+00  7.59869910E+00 -1.51973982E+01  7.59869910E+00
  7.59869910E+00 -1.51973982E+01  7.59869910E+00  7.59869910E+00 -1.51973982E+01
  7.59869910E+00  7.59869910E+00 -1.51973982E+01  7.59869910E+00  7.59869910E+00
 -1.51973982E+01  7.59869910E+00  7.59869910E+00 -1.51973982E+01  7.59869910E+00
  7.59869910E+00 -1.51973982E+01  7.59869910E+00  7.59869910E+00 -1.51973982E+01
  7.59869910E+00  7.59869910E+00 -1.51973982E+01  7.59869910E+00  7.59869910E+00
 -1.51973982E+01  7.59869910E+00  7.59869910E+00 -1.51973982E+01  7.59869910E+00
  7.59869910E+00 -1.51973982E+01  7.59869910E+00  7.59869910E+00 -1.51973982E+01
  7.59869910E+00  7.59869910E+00 -1.51973982E+01  7.59869910E+00  7.59869910E+00
 -1.51973982E+01  7.59869910E+00  7.59869910E+00 -1.51973982E+01  7.59869910E+00
  7.59869910E+00 -1.51973982E+01  7.59869910E+00  7.59869910E+00 -1.51973982E+01
  7.59869910E+00  7.59869910E+00 -1.51973982E+01  7.59869910E+00  7.59869910E+00
 -1.51973982E+01  7.59869910E+00  7.59869910E+00 -1.51973982E+01  7.59869910E+00
  7.59869910E+00 -1.51973982E+01  7.59869910E+00  7.59869910E+00 -1.51973982E+01
  7.59869910E+00  7.59869910E+00 -1.51973982E+01  7.59869910E+00  7.59869910E+00
 -1.51973982E+01  7.59869910E+00  7.59869910E+00 -1.51973982E+01  7.59869910E+00
  7.59869910E+00 -1.51973982E+01  7.59869910E+00  7.59869910E+00 -1.51973982E+01
  7.59869910E+00  7.59869910E+00 -1.51973982E+01  7.59869910E+00  7.59869910E+00
 -1.51973982E+01  7.59869910E+00  7.59869910E+00 -1.51973982E+01  7.59869910E+00
  7.59869910E+00 -1.51973982E+01  7.59869910E+00  7.59869910E+00 -1.51973982E+01
  7.59869910E+00  7.59869910E+00 -1.51973982E+01  7.59869910E+00  7.59869910E+00
 -1.51973982E+01  7.59869910E+00  7.59869910E+00 -1.51973982E+01  7.59869910E+00
  7.59869910E+00 -1.51973982E+01  7.59869910E+00  7.59869910E+00 -1.51973982E+01
  7.59869910E+00  7.59869910E+00 -1.51973982E+01  7.59869910E+00  7.59869910E+00
 -1.51973982E+01  7.59869910E+00  7.59869910E+00 -1.51973982E+01  7.59869910E+00
  7.59869910E+00 -1.51973982E+01  7.59869910E+00  7.59869910E+00 -1.51973982E+01
  7.59869910E+00  7.59869910E+00 -1.51973982E+01  7.59869910E+00  7.59869910E+00
 -1.51973982E+01  7.59869910E+00  7.59869910E+00 -1.51973982E+01  7.59869910E+00
  7.59869910E+00 -1.51973982E+01  7.59869910E+00  7.59869910E+00 -1.51973982E+01
  7.59869910E+00  7.59869910E+00 -1.51973982E+01  7.59869910E+00  7.59869910E+00
 -1.51973982E+01  7.59869910E+00  7.59869910E+00 -1.51973982E+01  7.59869910E+00
  7.59869910E+00 -1.51973982E+01  7.59869910E+00  7.59869910E+00 -1.51973982E+01
  7.59869910E+00  7.59869910E+00 -1.51973982E+01  7.59869910E+00  7.59869910E+00
 -1.51973982E+01  7.59869910E+00  7.59869910E+00 -1.51973982E+01  7.59869910E+00
  7.59869910E+00 -1.51973982E+01  7.59869910E+00  7.59869910E+00 -1.51973982E+01
  7.59869910E+00  7.59869910E+00 -1.51973982E+01  7.59869910E+00  7.59869910E+00
 -1.51973982E+01  7.59869910E+00  7.59869910E+00 -1.51973982E+01  7.59869910E+00
  7.59869910E+00 -1.51973982E+01  7.59869910E+00  7.59869910E+00 -1.51973982E+01
  7.59869910E+00  7.59869910E+00 -1.51973982E+01  7.59869910E+00  7.59869910E+00
 -1.51973982E+01  7.59869910E+00  7.59869910E+00 -1.51973982E+01  7.59869910E+00
  7.59869910E+00 -1.51973982E+01  7.59869910E+00  7.59869910E+00 -1.51973982E+01
  7.59869910E+00  7.59869910E+00 -1.51973982E+01  7.59869910E+00  7.59869910E+00
 -1.51973982E+01  7.59869910E+00  7.59869910E+00 -1.51973982E+01  7.59869910E+00
  7.59869910E+00 -1.51973982E+01  7.59869910E+00  7.59869910E+00 -1.51973982E+01
  7.59869910E+00  7.59869910E+00 -1.51973982E+01  7.59869910E+00  7.59869910E+00
 -1.51973982E+01  7.59869910E+00  7.59869910E+00 -1.51973982E+01  7.59869910E+00
  7.59869910E+00 -1.51973982E+01  7.59869910E+00  7.59869910E+00 -1.51973982E+01
  7.59869910E+00  7.59869910E+00 -1.51973982E+01  7.59869910E+00  7.59869910E+00
 -1.51973982E+01  7.59869910E+00  7.59869910E+00 -1.51973982E+01  7.59869910E+00
  7.59869910E+00 -1.51973982E+01  7.59869910E+00  7.59869910E+00 -1.51973982E+01
  7.59869910E+00  7.59869910E+00 -1.51973982E+01  7.59869910E+00  7.59869910E+00
 -1.51973982E+01  7.59869910E+00  7.59869910E+00 -1.51973982E+01  7.59869910E+00
  7.59869910E+00 -1.51973982E+01  7.59869910E+00  7.59869910E+00 -1.51973982E+01
  7.59869910E+00  7.59869910E+00 -1.51973982E+01  7.59869910E+00  7.59869910E+00
 -1.51973982E+01  7.59869910E+00  7.59869910E+00 -1.51973982E+01  7.59869910E+00
  7.59869910E+00 -1.51973982E+01  7.59869910E+00  7.59869910E+00 -1.51973982E+01
  7.59869910E+00  7.59869910E+00 -1.51973982E+01  7.59869910E+00  7.59869910E+00
 -1.51973982E+01  7.59869910E+00  7.59869910E+00 -1.51973982E+01  7.59869910E+00
  7.59869910E+00 -1.51973982E+01  7.59869910E+00  7.59869910E+00 -1.51973982E+01
  7.59869910E+00  7.59869910E+00 -1.51973982E+01  7.59869910E+00  7.59869910E+00
 -1.51973982E+01  7.59869910E+00  7.59869910E+00 -1.51973982E+01  7.59869910E+00
  7.59869910E+00 -1.51973982E+01  7.59869910E+00  7.59869910E+00 -1.51973982E+01
  7.59869910E+00  7.59869910E+00 -1.51973982E+01  7.59869910E+00  7.59869910E+00
 -1.51973982E+01  7.59869910E+00  7.59869910E+00 -1.51973982E+01  7.59869910E+00
  7.59869910E+00 -1.51973982E+01  7.59869910E+00  7.59869910E+00 -1.51973982E+01
  7.59869910E+00  7.59869910E+00 -1.51973982E+01  7.59869910E+00  7.59869910E+00
 -1.51973982E+01  7.59869910E+00  7.59869910E+00 -1.51973982E+01  7.59869910E+00
  7.59869910E+00 -1.51973982E+01  7.59869910E+00  7.59869910E+00 -1.51973982E+01
  7.59869910E+00  7.59869910E+00 -1.51973982E+01  7.59869910E+00  7.59869910E+00
 -1.51973982E+01  7.59869910E+00  7.59869910E+00 -1.51973982E+01  7.59869910E+00
  7.59869910E+00 -1.51973982E+01  7.59869910E+00  7.59869910E+00 -1.51973982E+01
  7.59869910E+00  7.59869910E+00 -1.51973982E+01  7.59869910E+00  7.59869910E+00
 -1.51973982E+01  7.59869910E+00  7.59869910E+00 -1.51973982E+01  7.59869910E+00
  7.59869910E+00 -1.51973982E+01  7.59869910E+00  7.59869910E+00 -1.51973982E+01
  7.59869910E+00  7.59869910E+00 -1.51973982E+01  7.59869910E+00  7.59869910E+00
 -1.51973982E+01  7.59869910E+00  7.59869910E+00 -1.51973982E+01  7.59869910E+00
  7.59869910E+00 -1.51973982E+01  7.59869910E+00  7.59869910E+00 -1.51973982E+01
  7.59869910E+00  7.59869910E+00 -1.51973982E+01  7.59869910E+00  7.59869910E+00
 -1.51973982E+01  7.59869910E+00  7.59869910E+00 -1.51973982E+01  7.59869910E+00
  7.59869910E+00 -1.51973982E+01  7.59869910E+00  7.59869910E+00 -1.51973982E+01
  7.59869910E+00  7.59869910E+00 -1.51973982E+01  7.59869910E+00  7.59869910E+00
 -1.51973982E+01  7.59869910E+00  7.59869910E+00 -1.51973982E+01  7.59869910E+00
  7.59869910E+00 -1.51973982E+01  7.59869910E+00  7.59869910E+00 -1.51973982E+01
  7.59869910E+00  7.59869910E+00 -1.51973982E+01  7.59869910E+00  7.59869910E+00
 -1.51973982E+01  7.59869910E+00  7.59869910E+00 -1.51973982E+01  7.59869910E+00
  7.59869910E+00 -1.51973982E+01  7.59869910E+00  7.59869910E+00 -1.51973982E+01
  7.59869910E+00  7.59869910E+00 -1.51973982E+01  7.59869910E+00  7.59869910E+00
 -1.51973982E+01  7.59869910E+00  7.59869910E+00 -1.51973982E+01  7.59869910E+00
  7.59869910E+00 -1.51973982E+01  7.59869910E+00  7.59869910E+00 -1.51973982E+01
  7.59869910E+00  7.59869910E+00 -1.51973982E+01  7.59869910E+00  7.59869910E+00
 -1.51973982E+01  7.59869910E+00  7.59869910E+00 -1.51973982E+01  7.59869910E+00
  7.59869910E+00 -1.51973982E+01  7.59869910E+00  7.59869910E+00 -1.51973982E+01
  7.59869910E+00  7.59869910E+00 -1.51973982E+01  7.59869910E+00  7.59869910E+00
 -1.51973982E+01  7.59869910E+00  7.59869910E+00 -1.51973982E+01  7.59869910E+00
  7.59869910E+00 -1.51973982E+01  7.59869910E+00  7.59869910E+00 -1.51973982E+01
  7.59869910E+00  7.59869910E+00 -1.51973982E+01  7.59869910E+00  7.59869910E+00
 -1.51973982E+01  7.59869910E+00  7.59869910E+00 -1.51973982E+01  7.59869910E+00
  7.59869910E+00 -1.51973982E+01  7.59869910E+00  7.59869910E+00 -1.51973982E+01
  7.59869910E+00  7.59869910E+00 -1.51973982E+01  7.59869910E+00  7.59869910E+00
 -1.51973982E+01  7.59869910E+00  7.59869910E+00 -1.51973982E+01  7.59869910E+00
  7.59869910E+00 -1.51973982E+01  7.59869910E+00  7.59869910E+00 -1.51973982E+01
  7.59869910E+00  7.59869910E+00 -1.51973982E+01  7.59869910E+00  7.59869910E+00
 -1.51973982E+01  7.59869910E+00  7.59869910E+00 -1.51973982E+01  7.59869910E+00
  7.59869910E+00 -1.51973982E+01  7.59869910E+00  7.59869910E+00 -1.51973982E+01
  7.59869910E+00  7.59869910E+00 -1.51973982E+01  7.59869910E+00  7.59869910E+00
 -1.51973982E+01  7.59869910E+00  7.59869910E+00 -1.51973982E+01  7.59869910E+00
  7.59869910E+00 -1.51973982E+01  7.59869910E+00  7.59869910E+00 -1.51973982E+01
  7.59869910E+00  7.59869910E+00 -1.51973982E+01  7.59869910E+00  7.59869910E+00
 -1.51973982E+01  7.59869910E+00  7.59869910E+00 -1.51973982E+01  7.59869910E+00
  7.59869910E+00 -1.51973982E+01  7.59869910E+00  7.59869910E+00 -1.51973982E+01
  7.59869910E+00  7.59869910E+00 -1.51973982E+01  7.59869910E+00  7.59869910E+00
 -1.51973982E+01  7.59869910E+00  7.59869910E+00 -1.51973982E+01  7.59869910E+00
  7.59869910E+00 -1.51973982E+01  7.59869910E+00  7.59869910E+00 -1.51973982E+01
  7.59869910E+00  7.59869910E+00 -1.51973982E+01  7.59869910E+00  7.59869910E+00
 -1.51973982E+01  7.59869910E+00  7.59869910E+00 -1.51973982E+01  7.59869910E+00
  7.59869910E+00 -1.51973982E+01  7.59869910E+00  7.59869910E+00 -1.51973982E+01
  7.59869910E+00  7.59869910E+00 -1.51973982E+01  7.59869910E+00  7.59869910E+00
 -1.51973982E+01  7.59869910E+00  7.59869910E+00 -1.51973982E+01  7.59869910E+00
  7.59869910E+00 -1.51973982E+01  7.59869910E+00  7.59869910E+00 -1.51973982E+01
  7.59869910E+00  7.59869910E+00 -1.51973982E+01  7.59869910E+00  7.59869910E+00
 -1.51973982E+01  7.59869910E+00  7.59869910E+00 -1.51973982E+01  7.59869910E+00
  7.59869910E+00 -1.51973982E+01  7.59869910E+00  7.59869910E+00 -1.51973982E+01
  7.59869910E+00  7.59869910E+00 -1.51973982E+01  7.59869910E+00  7.59869910E+00
 -1.51973982E+01  7.59869910E+00  7.59869910E+00 -1.51973982E+01  7.59869910E+00
  7.59869910E+00 -1.51973982E+01  7.59869910E+00  7.59869910E+00 -1.51973982E+01
  7.59869910E+00  7.59869910E+00 -1.51973982E+01  7.59869910E+00  7.59869910E+00
 -1.51973982E+01  7.59869910E+00  7.59869910E+00 -1.51973982E+01  7.59869910E+00
  7.59869910E+00 -1.51973982E+01  7.59869910E+00  7.59869910E+00 -1.51973982E+01
  7.59869910E+00  7.59869910E+00 -1.51973982E+01  7.59869910E+00  7.59869910E+00
 -1.51973982E+01  7.59869910E+00  7.59869910E+00 -1.51973982E+01  7.59869910E+00
  7.59869910E+00 -1.51973982E+01  7.59869910E+00  7.59869910E+00 -1.51973982E+01
  7.59869910E+00  7.59869910E+00 -1.51973982E+01  7.59869910E+00  7.59869910E+00
 -1.51973982E+01  7.59869910E+00  7.59869910E+00 -1.51973982E+01  7.59869910E+00
  7.59869910E+00 -1.51973982E+01  7.59869910E+00  7.59869910E+00 -1.51973982E+01
  7.59869910E+00  7.59869910E+00 -1.51973982E+01  7.59869910E+00  7.59869910E+00
 -1.51973982E+01  7.59869910E+00  7.59869910E+00 -1.51973982E+01  7.59869910E+00
  7.59869910E+00 -1.51973982E+01  7.59869910E+00  7.59869910E+00 -1.51973982E+01
  7.59869910E+00  7.59869910E+00 -1.51973982E+01  7.59869910E+00  7.59869910E+00
 -1.51973982E+01  7.59869910E+00  7.59869910E+00 -1.51973982E+01  7.59869910E+00
  7.59869910E+00 -1.51973982E+01  7.59869910E+00  7.59869910E+00 -1.51973982E+01
  7.59869910E+00  7.59869910E+00 -1.51973982E+01  7.59869910E+00  7.59869910E+00
 -1.51973982E+01  7.59869910E+00  7.59869910E+00 -1.51973982E+01  7.59869910E+00
  7.59869910E+00 -1.51973982E+01  7.59869910E+00  7.59869910E+00 -1.51973982E+01
  7.59869910E+00  7.59869910E+00 -1.51973982E+01  7.59869910E+00  7.59869910E+00
 -1.51973982E+01  7.59869910E+00  7.59869910E+00 -1.51973982E+01  7.59869910E+00
  7.59869910E+00 -1.51973982E+01  7.59869910E+00  7.59869910E+00 -1.51973982E+01
  7.59869910E+00  7.59869910E+00 -1.51973982E+01  7.59869910E+00  7.59869910E+00
 -1.51973982E+01  7.59869910E+00  7.59869910E+00 -1.51973982E+01  7.59869910E+00
  7.59869910E+00 -1.51973982E+01  7.59869910E+00  7.59869910E+00 -1.51973982E+01
  7.59869910E+00  7.59869910E+00 -1.51973982E+01  7.59869910E+00  7.59869910E+00
 -1.51973982E+01  7.59869910E+00  7.59869910E+00 -1.51973982E+01  7.59869910E+00
  7.59869910E+00 -1.51973982E+01  7.59869910E+00  7.59869910E+00 -1.51973982E+01
  7.59869910E+00  7.59869910E+00 -1.51973982E+01  7.59869910E+00  7.59869910E+00
 -1.51973982E+01  7.59869910E+00  7.59869910E+00 -1.51973982E+01  7.59869910E+00
  7.59869910E+00 -1.51973982E+01  7.59869910E+00  7.59869910E+00 -1.51973982E+01
  7.59869910E+00  7.59869910E+00 -1.51973982E+01  7.59869910E+00  7.59869910E+00
 -1.51973982E+01  7.59869910E+00  7.59869910E+00 -1.51973982E+01  7.59869910E+00
  7.59869910E+00 -1.51973982E+01  7.59869910E+00  7.59869910E+00 -1.51973982E+01
  7.59869910E+00  7.59869910E+00 -1.51973982E+01  7.59869910E+00  7.59869910E+00
 -1.51973982E+01  7.59869910E+00  7.59869910E+00 -1.51973982E+01  7.59869910E+00
  7.59869910E+00 -1.51973982E+01  7.59869910E+00  7.59869910E+00 -1.51973982E+01
  7.59869910E+00  7.59869910E+00 -1.51973982E+01  7.59869910E+00  7.59869910E+00
 -1.51973982E+01  7.59869910E+00  7.59869910E+00 -1.51973982E+01  7.59869910E+00
  7.59869910E+00 -1.51973982E+01  7.59869910E+00  7.59869910E+00 -1.51973982E+01
  7.59869910E+00  7.59869910E+00 -1.51973982E+01  7.59869910E+00  7.59869910E+00
 -1.51973982E+01  7.59869910E+00  7.59869910E+00 -1.51973982E+01  7.59869910E+00
  7.59869910E+00 -1.51973982E+01  7.59869910E+00  7.59869910E+00 -1.51973982E+01
  7.59869910E+00  7.59869910E+00 -1.51973982E+01  7.59869910E+00  7.59869910E+00
 -1.51973982E+01  7.59869910E+00  7.59869910E+00 -1.51973982E+01  7.59869910E+00
  7.59869910E+00 -1.51973982E+01  7.59869910E+00  7.59869910E+00 -1.51973982E+01
  7.59869910E+00  7.59869910E+00 -1.51973982E+01  7.59869910E+00  7.59869910E+00
 -1.51973982E+01  7.59869910E+00  7.59869910E+00 -1.51973982E+01  7.59869910E+00
  7.59869910E+00 -1.51973982E+01  7.59869910E+00  7.59869910E+00 -1.51973982E+01
  7.59869910E+00  7.59869910E+00 -1.51973982E+01  7.59869910E+00  7.59869910E+00
 -1.51973982E+01  7.59869910E+00  7.59869910E+00 -1.51973982E+01  7.59869910E+00
  7.59869910E+00 -1.51973982E+01  7.59869910E+00  7.59869910E+00 -1.51973982E+01
  7.59869910E+00  7.59869910E+00 -1.51973982E+01  7.59869910E+00  7.59869910E+00
 -1.51973982E+01  7.59869910E+00  7.59869910E+00 -1.51973982E+01  7.59869910E+00
  7.59869910E+00 -1.51973982E+01  7.59869910E+00  7.59869910E+00 -1.51973982E+01
  7.59869910E+00  7.59869910E+00 -1.51973982E+01  7.59869910E+00  7.59869910E+00
 -1.51973982E+01  7.59869910E+00  7.59869910E+00 -1.51973982E+01  7.59869910E+00
  7.59869910E+00 -1.51973982E+01  7.59869910E+00  7.59869910E+00 -1.51973982E+01
  7.59869910E+00  7.59869910E+00 -1.51973982E+01  7.59869910E+00  7.59869910E+00
 -1.51973982E+01  7.59869910E+00  7.59869910E+00 -1.51973982E+01  7.59869910E+00
  7.59869910E+00 -1.51973982E+01  7.59869910E+00  7.59869910E+00 -1.51973982E+01
  7.59869910E+00  7.59869910E+00 -1.51973982E+01  7.59869910E+00  7.59869910E+00
 -1.51973982E+01  7.59869910E+00  7.59869910E+00 -1.51973982E+01  7.59869910E+00
  7.59869910E+00 -1.51973982E+01  7.59869910E+00  7.59869910E+00 -1.51973982E+01
  7.59869910E+00  7.59869910E+00 -1.51973982E+01  7.59869910E+00  7.59869910E+00
 -1.51973982E+01  7.59869910E+00  7.59869910E+00 -1.51973982E+01  7.59869910E+00
  7.59869910E+00 -1.51973982E+01  7.59869910E+00  7.59869910E+00 -1.51973982E+01
  7.59869910E+00  7.59869910E+00 -1.51973982E+01  7.59869910E+00  7.59869910E+00
 -1.51973982E+01  7.59869910E+00  7.59869910E+00 -1.51973982E+01  7.59869910E+00
  7.59869910E+00 -1.51973982E+01  7.59869910E+00  7.59869910E+00 -1.51973982E+01
  7.59869910E+00  7.59869910E+00 -1.51973982E+01  7.59869910E+00  7.59869910E+00
 -1.51973982E+01  7.59869910E+00  7.59869910E+00 -1.51973982E+01  7.59869910E+00
  7.59869910E+00 -1.51973982E+01  7.59869910E+00  7.59869910E+00 -1.51973982E+01
  7.59869910E+00  7.59869910E+00 -1.51973982E+01  7.59869910E+00  7.59869910E+00
 -1.51973982E+01  7.59869910E+00  7.59869910E+00 -1.51973982E+01  7.59869910E+00
  7.59869910E+00 -1.51973982E+01  7.59869910E+00  7.59869910E+00 -1.51973982E+01
  7.59869910E+00  7.59869910E+00 -1.51973982E+01  7.59869910E+00  7.59869910E+00
 -1.51973982E+01  7.59869910E+00  7.59869910E+00 -1.51973982E+01  7.59869910E+00
  7.59869910E+00 -1.51973982E+01  7.59869910E+00  7.59869910E+00 -1.51973982E+01
  7.59869910E+00  7.59869910E+00 -1.51973982E+01  7.59869910E+00  7.59869910E+00
 -1.51973982E+01  7.59869910E+00  7.59869910E+00 -1.51973982E+01  7.59869910E+00
  7.59869910E+00 -1.51973982E+01  7.59869910E+00  7.59869910E+00 -1.51973982E+01
  7.59869910E+00  7.59869910E+00 -1.51973982E+01  7.59869910E+00  7.59869910E+00
 -1.51973982E+01  7.59869910E+00  7.59869910E+00 -1.51973982E+01  7.59869910E+00
  7.59869910E+00 -1.51973982E+01  7.59869910E+00  7.59869910E+00 -1.51973982E+01
  7.59869910E+00  7.59869910E+00 -1.51973982E+01  7.59869910E+00  7.59869910E+00
 -1.51973982E+01  7.59869910E+00  7.59869910E+00 -1.51973982E+01  7.59869910E+00
  7.59869910E+00 -1.51973982E+01  7.59869910E+00  7.59869910E+00 -1.51973982E+01
  7.59869910E+00  7.59869910E+00 -1.51973982E+01  7.59869910E+00  7.59869910E+00
 -1.51973982E+01  7.59869910E+00  7.59869910E+00 -1.51973982E+01  7.59869910E+00
  7.59869910E+00 -1.51973982E+01  7.59869910E+00  7.59869910E+00 -1.51973982E+01
  7.59869910E+00  7.59869910E+00 -1.51973982E+01  7.59869910E+00  7.59869910E+00
 -1.51973982E+01  7.59869910E+00  7.59869910E+00 -1.51973982E+01  7.59869910E+00
  7.59869910E+00 -1.51973982E+01  7.59869910E+00  7.59869910E+00 -1.51973982E+01
  7.59869910E+00  7.59869910E+00 -1.51973982E+01  7.59869910E+00  7.59869910E+00
 -1.51973982E+01  7.59869910E+00  7.59869910E+00 -1.51973982E+01  7.59869910E+00
  7.59869910E+00 -1.51973982E+01  7.59869910E+00  7.59869910E+00 -1.51973982E+01
  7.59869910E+00  7.59869910E+00 -1.51973982E+01  7.59869910E+00  7.59869910E+00
 -1.51973982E+01  7.59869910E+00  7.59869910E+00 -1.51973982E+01  7.59869910E+00
  7.59869910E+00 -1.51973982E+01  7.59869910E+00  7.59869910E+00 -1.51973982E+01
  7.59869910E+00  7.59869910E+00 -1.51973982E+01  7.59869910E+00  7.59869910E+00
 -1.51973982E+01  7.59869910E+00  7.59869910E+00 -1.51973982E+01  7.59869910E+00
  7.59869910E+00 -1.51973982E+01  7.59869910E+00  7.59869910E+00 -1.51973982E+01
  7.59869910E+00  7.59869910E+00 -1.51973982E+01  7.59869910E+00  7.59869910E+00
 -1.51973982E+01  7.59869910E+00  7.59869910E+00 -1.51973982E+01  7.59869910E+00
  7.59869910E+00 -1.51973982E+01  7.59869910E+00  7.59869910E+00 -1.51973982E+01
  7.59869910E+00  7.59869910E+00 -1.51973982E+01  7.59869910E+00  7.59869910E+00
 -1.51973982E+01  7.59869910E+00  7.59869910E+00 -1.51973982E+01  7.59869910E+00
  7.59869910E+00 -1.51973982E+01  7.59869910E+00  7.59869910E+00 -1.51973982E+01
  7.59869910E+00  7.59869910E+00 -1.51973982E+01  7.59869910E+00  7.59869910E+00
 -1.51973982E+01  7.59869910E+00  7.59869910E+00 -1.51973982E+01  7.59869910E+00
  7.59869910E+00 -1.51973982E+01  7.59869910E+00  7.59869910E+00 -1.51973982E+01
  7.59869910E+00  7.59869910E+00 -1.51973982E+01  7.59869910E+00  7.59869910E+00
 -1.51973982E+01  7.59869910E+00  7.59869910E+00 -1.51973982E+01  7.59869910E+00
  7.59869910E+00 -1.51973982E+01  7.59869910E+00  7.59869910E+00 -1.51973982E+01
  7.59869910E+00  7.59869910E+00 -1.51973982E+01  7.59869910E+00  7.59869910E+00
 -1.51973982E+01  7.59869910E+00  7.59869910E+00 -1.51973982E+01  7.59869910E+00
  7.59869910E+00 -1.51973982E+01  7.59869910E+00  7.59869910E+00 -1.51973982E+01
  7.59869910E+00  7.59869910E+00 -1.51973982E+01  7.59869910E+00  7.59869910E+00
 -1.51973982E+01  7.59869910E+00  7.59869910E+00 -1.51973982E+01  7.59869910E+00
  7.59869910E+00 -1.51973982E+01  7.59869910E+00  7.59869910E+00 -1.51973982E+01
  7.59869910E+00  7.59869910E+00 -1.51973982E+01  7.59869910E+00  7.59869910E+00
 -1.51973982E+01  7.59869910E+00  7.59869910E+00 -1.51973982E+01  7.59869910E+00
  7.59869910E+00 -1.51973982E+01  7.59869910E+00  7.59869910E+00 -1.51973982E+01
  7.59869910E+00  7.59869910E+00 -1.51973982E+01  7.59869910E+00  7.59869910E+00
 -1.51973982E+01  7.59869910E+00  7.59869910E+00 -1.51973982E+01  7.59869910E+00
  7.59869910E+00 -1.51973982E+01  7.59869910E+00  7.59869910E+00 -1.51973982E+01
  7.59869910E+00  7.59869910E+00 -1.51973982E+01  7.59869910E+00  7.59869910E+00
 -1.51973982E+01  7.59869910E+00  7.59869910E+00 -1.51973982E+01  7.59869910E+00
  7.59869910E+00 -1.51973982E+01  7.59869910E+00  7.59869910E+00 -1.51973982E+01
  7.59869910E+00  7.59869910E+00 -1.51973982E+01  7.59869910E+00  7.59869910E+00
 -1.51973982E+01  7.59869910E+00  7.59869910E+00 -1.51973982E+01  7.59869910E+00
  7.59869910E+00 -1.51973982E+01  7.59869910E+00  7.59869910E+00 -1.51973982E+01
  7.59869910E+00  7.59869910E+00 -1.51973982E+01  7.59869910E+00  7.59869910E+00
 -1.51973982E+01  7.59869910E+00  7.59869910E+00 -1.51973982E+01  7.59869910E+00
  7.59869910E+00 -1.51973982E+01  7.59869910E+00  7.59869910E+00 -1.51973982E+01
  7.59869910E+00  7.59869910E+00 -1.51973982E+01  7.59869910E+00  7.59869910E+00
 -1.51973982E+01  7.59869910E+00  7.59869910E+00 -1.51973982E+01  7.59869910E+00
  7.59869910E+00 -1.51973982E+01  7.59869910E+00  7.59869910E+00 -1.51973982E+01
  7.59869910E+00  7.59869910E+00 -1.51973982E+01  7.59869910E+00  7.59869910E+00
 -1.51973982E+01  7.59869910E+00  7.59869910E+00 -1.51973982E+01  7.59869910E+00
  7.59869910E+00 -1.51973982E+01  7.59869910E+00  7.59869910E+00 -1.51973982E+01
  7.59869910E+00  7.59869910E+00 -1.51973982E+01  7.59869910E+00  7.59869910E+00
 -1.51973982E+01  7.59869910E+00  7.59869910E+00 -1.51973982E+01  7.59869910E+00
  7.59869910E+00 -1.51973982E+01  7.59869910E+00  7.59869910E+00 -1.51973982E+01
  7.59869910E+00  7.59869910E+00 -1.51973982E+01  7.59869910E+00  7.59869910E+00
 -1.51973982E+01  7.59869910E+00  7.59869910E+00 -1.51973982E+01  7.59869910E+00
  7.59869910E+00 -1.51973982E+01  7.59869910E+00  7.59869910E+00 -1.51973982E+01
  7.59869910E+00  7.59869910E+00 -1.51973982E+01  7.59869910E+00  7.59869910E+00
 -1.51973982E+01  7.59869910E+00  7.59869910E+00 -1.51973982E+01  7.59869910E+00
  7.59869910E+00 -1.51973982E+01  7.59869910E+00  7.59869910E+00 -1.51973982E+01
  7.59869910E+00  7.59869910E+00 -1.51973982E+01  7.59869910E+00  7.59869910E+00
 -1.51973982E+01  7.59869910E+00  7.59869910E+00 -1.51973982E+01  7.59869910E+00
  7.59869910E+00 -1.51973982E+01  7.59869910E+00  7.59869910E+00 -1.51973982E+01
  7.59869910E+00  7.59869910E+00 -1.51973982E+01  7.59869910E+00  7.59869910E+00
 -1.51973982E+01  7.59869910E+00  7.59869910E+00 -1.51973982E+01  7.59869910E+00
  7.59869910E+00 -1.51973982E+01  7.59869910E+00  7.59869910E+00 -1.51973982E+01
  7.59869910E+00  7.59869910E+00 -1.51973982E+01  7.59869910E+00  7.59869910E+00
 -1.51973982E+01  7.59869910E+00  7.59869910E+00 -1.51973982E+01  7.59869910E+00
  7.59869910E+00 -1.51973982E+01  7.59869910E+00  7.59869910E+00 -1.51973982E+01
  7.59869910E+00  7.59869910E+00 -1.51973982E+01  7.59869910E+00  7.59869910E+00
 -1.51973982E+01  7.59869910E+00  7.59869910E+00 -1.51973982E+01  7.59869910E+00
  7.59869910E+00 -1.51973982E+01  7.59869910E+00  7.59869910E+00 -1.51973982E+01
  7.59869910E+00  7.59869910E+00 -1.51973982E+01  7.59869910E+00  7.59869910E+00
 -1.51973982E+01  7.59869910E+00  7.59869910E+00 -1.51973982E+01  7.59869910E+00
  7.59869910E+00 -1.51973982E+01  7.59869910E+00  7.59869910E+00 -1.51973982E+01
  7.59869910E+00  7.59869910E+00 -1.51973982E+01  7.59869910E+00  7.59869910E+00
 -1.51973982E+01  7.59869910E+00  7.59869910E+00 -1.51973982E+01  7.59869910E+00
  7.59869910E+00 -1.51973982E+01  7.59869910E+00  7.59869910E+00 -1.51973982E+01
  7.59869910E+00  7.59869910E+00 -1.51973982E+01  7.59869910E+00  7.59869910E+00
 -1.51973982E+01  7.59869910E+00  7.59869910E+00 -1.51973982E+01  7.59869910E+00
  7.59869910E+00 -1.51973982E+01  7.59869910E+00  7.59869910E+00 -1.51973982E+01
  7.59869910E+00  7.59869910E+00 -1.51973982E+01  7.59869910E+00  7.59869910E+00
 -1.51973982E+01  7.59869910E+00  7.59869910E+00 -1.51973982E+01  7.59869910E+00
  7.59869910E+00 -1.51973982E+01  7.59869910E+00  7.59869910E+00 -1.51973982E+01
  7.59869910E+00  7.59869910E+00 -1.51973982E+01  7.59869910E+00  7.59869910E+00
 -1.51973982E+01  7.59869910E+00  7.59869910E+00 -1.51973982E+01  7.59869910E+00
  7.59869910E+00 -1.51973982E+01  7.59869910E+00  7.59869910E+00 -1.51973982E+01
  7.59869910E+00  7.59869910E+00 -1.51973982E+01  7.59869910E+00  7.59869910E+00
 -1.51973982E+01  7.59869910E+00  7.59869910E+00 -1.51973982E+01  7.59869910E+00
  7.59869910E+00 -1.51973982E+01  7.59869910E+00  7.59869910E+00 -1.51973982E+01
  7.59869910E+00  7.59869910E+00 -1.51973982E+01  7.59869910E+00  7.59869910E+00
 -1.51973982E+01  7.59869910E+00  7.59869910E+00 -1.51973982E+01  7.59869910E+00
  7.59869910E+00 -1.51973982E+01  7.59869910E+00  7.59869910E+00 -1.51973982E+01
  7.59869910E+00  7.59869910E+00 -1.51973982E+01  7.59869910E+00  7.59869910E+00
 -1.51973982E+01  7.59869910E+00  7.59869910E+00 -1.51973982E+01  7.59869910E+00
  7.59869910E+00 -1.51973982E+01  7.59869910E+00  7.59869910E+00 -1.51973982E+01
  7.59869910E+00  7.59869910E+00 -1.51973982E+01  7.59869910E+00  7.59869910E+00
 -1.51973982E+01  7.59869910E+00  7.59869910E+00 -1.51973982E+01  7.59869910E+00
  7.59869910E+00 -1.51973982E+01  7.59869910E+00  7.59869910E+00 -1.51973982E+01
  7.59869910E+00  7.59869910E+00 -1.51973982E+01  7.59869910E+00  7.59869910E+00
 -1.51973982E+01  7.59869910E+00  7.59869910E+00 -1.51973982E+01  7.59869910E+00
  7.59869910E+00 -1.51973982E+01  7.59869910E+00  7.59869910E+00 -1.51973982E+01
  7.59869910E+00  7.59869910E+00 -1.51973982E+01  7.59869910E+00  7.59869910E+00
 -1.51973982E+01  7.59869910E+00  7.59869910E+00 -1.51973982E+01  7.59869910E+00
  7.59869910E+00 -1.51973982E+01  7.59869910E+00  7.59869910E+00 -1.51973982E+01
  7.59869910E+00  7.59869910E+00 -1.51973982E+01  7.59869910E+00  7.59869910E+00
 -1.51973982E+01  7.59869910E+00  7.59869910E+00 -1.51973982E+01  7.59869910E+00
  7.59869910E+00 -1.51973982E+01  7.59869910E+00  7.59869910E+00 -1.51973982E+01
  7.59869910E+00  7.59869910E+00 -1.51973982E+01  7.59869910E+00  7.59869910E+00
 -1.51973982E+01  7.59869910E+00  7.59869910E+00 -1.51973982E+01  7.59869910E+00
  7.59869910E+00 -1.51973982E+01  7.59869910E+00  7.59869910E+00 -1.51973982E+01
  7.59869910E+00  7.59869910E+00 -1.51973982E+01  7.59869910E+00  7.59869910E+00
 -1.51973982E+01  7.59869910E+00  7.59869910E+00 -1.51973982E+01  7.59869910E+00
  7.59869910E+00 -1.51973982E+01  7.59869910E+00  7.59869910E+00 -1.51973982E+01
  7.59869910E+00  7.59869910E+00 -1.51973982E+01  7.59869910E+00  7.59869910E+00
 -1.51973982E+01  7.59869910E+00  7.59869910E+00 -1.51973982E+01  7.59869910E+00
  7.59869910E+00 -1.51973982E+01  7.59869910E+00  7.59869910E+00 -1.51973982E+01
  7.59869910E+00  7.59869910E+00 -1.51973982E+01  7.59869910E+00  7.59869910E+00
 -1.51973982E+01  7.59869910E+00  7.59869910E+00 -1.51973982E+01  7.59869910E+00
  7.59869910E+00 -1.51973982E+01  7.59869910E+00  7.59869910E+00 -1.51973982E+01
  7.59869910E+00  7.59869910E+00 -1.51973982E+01  7.59869910E+00  7.59869910E+00
 -1.51973982E+01  7.59869910E+00  7.59869910E+00 -1.51973982E+01  7.59869910E+00
  7.59869910E+00 -1.51973982E+01  7.59869910E+00  7.59869910E+00 -1.51973982E+01
  7.59869910E+00  7.59869910E+00 -1.51973982E+01  7.59869910E+00  7.59869910E+00
 -1.51973982E+01  7.59869910E+00  7.59869910E+00 -1.51973982E+01  7.59869910E+00
  7.59869910E+00 -1.51973982E+01  7.59869910E+00  7.59869910E+00 -1.51973982E+01
  7.59869910E+00  7.59869910E+00 -1.51973982E+01  7.59869910E+00  7.59869910E+00
 -1.51973982E+01  7.59869910E+00  7.59869910E+00 -1.51973982E+01  7.59869910E+00
  7.59869910E+00 -1.51973982E+01  7.59869910E+00  7.59869910E+00 -1.51973982E+01
  7.59869910E+00  7.59869910E+00 -1.51973982E+01  7.59869910E+00  7.59869910E+00
 -1.51973982E+01  7.59869910E+00  7.59869910E+00 -1.51973982E+01  7.59869910E+00
  7.59869910E+00 -1.51973982E+01  7.59869910E+00  7.59869910E+00 -1.51973982E+01
  7.59869910E+00  7.59869910E+00 -1.51973982E+01  7.59869910E+00  7.59869910E+00
 -1.51973982E+01  7.59869910E+00  7.59869910E+00 -1.51973982E+01  7.59869910E+00
  7.59869910E+00 -1.51973982E+01  7.59869910E+00  7.59869910E+00 -1.51973982E+01
  7.59869910E+00  7.59869910E+00 -1.51973982E+01  7.59869910E+00  7.59869910E+00
 -1.51973982E+01  7.59869910E+00  7.59869910E+00 -1.51973982E+01  7.59869910E+00
  7.59869910E+00 -1.51973982E+01  7.59869910E+00  7.59869910E+00 -1.51973982E+01
  7.59869910E+00  7.59869910E+00 -1.51973982E+01  7.59869910E+00  7.59869910E+00
 -1.51973982E+01  7.59869910E+00  7.59869910E+00 -1.51973982E+01  7.59869910E+00
  7.59869910E+00 -1.51973982E+01  7.59869910E+00  7.59869910E+00 -1.51973982E+01
  7.59869910E+00  7.59869910E+00 -1.51973982E+01  7.59869910E+00  7.59869910E+00
 -1.51973982E+01  7.59869910E+00  7.59869910E+00 -1.51973982E+01  7.59869910E+00
  7.59869910E+00 -1.51973982E+01  7.59869910E+00  7.59869910E+00 -1.51973982E+01
  7.59869910E+00  7.59869910E+00 -1.51973982E+01  7.59869910E+00  7.59869910E+00
 -1.51973982E+01  7.59869910E+00  7.59869910E+00 -1.51973982E+01  7.59869910E+00
  7.59869910E+00 -1.51973982E+01  7.59869910E+00  7.59869910E+00 -1.51973982E+01
  7.59869910E+00  7.59869910E+00 -1.51973982E+01  7.59869910E+00  7.59869910E+00
 -1.51973982E+01  7.59869910E+00  7.59869910E+00 -1.51973982E+01  7.59869910E+00
  7.59869910E+00 -1.51973982E+01  7.59869910E+00  7.59869910E+00 -1.51973982E+01
  7.59869910E+00  7.59869910E+00 -1.51973982E+01  7.59869910E+00  7.59869910E+00
 -1.51973982E+01  7.59869910E+00  7.59869910E+00 -1.51973982E+01  7.59869910E+00
  7.59869910E+00 -1.51973982E+01  7.59869910E+00  7.59869910E+00 -1.51973982E+01
  7.59869910E+00  7.59869910E+00 -1.51973982E+01  7.59869910E+00  7.59869910E+00
 -1.51973982E+01  7.59869910E+00  7.59869910E+00 -1.51973982E+01  7.59869910E+00
  7.59869910E+00 -1.51973982E+01  7.59869910E+00  7.59869910E+00 -1.51973982E+01
  7.59869910E+00  7.59869910E+00 -1.51973982E+01  7.59869910E+00  7.59869910E+00
 -1.51973982E+01  7.59869910E+00  7.59869910E+00 -1.51973982E+01  7.59869910E+00
  7.59869910E+00 -1.51973982E+01  7.59869910E+00  7.59869910E+00 -1.51973982E+01
  7.59869910E+00  7.59869910E+00 -1.51973982E+01  7.59869910E+00  7.59869910E+00
 -1.51973982E+01  7.59869910E+00  7.59869910E+00 -1.51973982E+01  7.59869910E+00
  7.59869910E+00 -1.51973982E+01  7.59869910E+00  7.59869910E+00 -1.51973982E+01
  7.59869910E+00  7.59869910E+00 -1.51973982E+01  7.59869910E+00  7.59869910E+00
 -1.51973982E+01  7.59869910E+00  7.59869910E+00 -1.51973982E+01  7.59869910E+00
  7.59869910E+00 -1.51973982E+01  7.59869910E+00  7.59869910E+00 -1.51973982E+01
  7.59869910E+00  7.59869910E+00 -1.51973982E+01  7.59869910E+00  7.59869910E+00
 -1.51973982E+01  7.59869910E+00  7.59869910E+00 -1.51973982E+01  7.59869910E+00
  7.59869910E+00 -1.51973982E+01  7.59869910E+00  7.59869910E+00 -1.51973982E+01
  7.59869910E+00  7.59869910E+00 -1.51973982E+01  7.59869910E+00  7.59869910E+00
 -1.51973982E+01  7.59869910E+00  7.59869910E+00 -1.51973982E+01  7.59869910E+00
  7.59869910E+00 -1.51973982E+01  7.59869910E+00  7.59869910E+00 -1.51973982E+01
  7.59869910E+00  7.59869910E+00 -1.51973982E+01  7.59869910E+00  7.59869910E+00
 -1.51973982E+01  7.59869910E+00  7.59869910E+00 -1.51973982E+01  7.59869910E+00
  7.59869910E+00 -1.51973982E+01  7.59869910E+00  7.59869910E+00 -1.51973982E+01
  7.59869910E+00  7.59869910E+00 -1.51973982E+01  7.59869910E+00  7.59869910E+00
 -1.51973982E+01  7.59869910E+00  7.59869910E+00 -1.51973982E+01  7.59869910E+00
  7.59869910E+00 -1.51973982E+01  7.59869910E+00  7.59869910E+00 -1.51973982E+01
  7.59869910E+00  7.59869910E+00 -1.51973982E+01  7.59869910E+00  7.59869910E+00
 -1.51973982E+01  7.59869910E+00  7.59869910E+00 -1.51973982E+01  7.59869910E+00
  7.59869910E+00 -1.51973982E+01  7.59869910E+00  7.59869910E+00 -1.51973982E+01
  7.59869910E+00  7.59869910E+00 -1.51973982E+01  7.59869910E+00  7.59869910E+00
 -1.51973982E+01  7.59869910E+00  7.59869910E+00 -1.51973982E+01  7.59869910E+00
  7.59869910E+00 -1.51973982E+01  7.59869910E+00  7.59869910E+00 -1.51973982E+01
  7.59869910E+00  7.59869910E+00 -1.51973982E+01  7.59869910E+00  7.59869910E+00
 -1.51973982E+01  7.59869910E+00  7.59869910E+00 -1.51973982E+01  7.59869910E+00
  7.59869910E+00 -1.51973982E+01  7.59869910E+00  7.59869910E+00 -1.51973982E+01
  7.59869910E+00  7.59869910E+00 -1.51973982E+01  7.59869910E+00  7.59869910E+00
 -1.51973982E+01  7.59869910E+00  7.59869910E+00 -1.51973982E+01  7.59869910E+00
  7.59869910E+00 -1.51973982E+01  7.59869910E+00  7.59869910E+00 -1.51973982E+01
  7.59869910E+00  7.59869910E+00 -1.51973982E+01  7.59869910E+00  7.59869910E+00
 -1.51973982E+01  7.59869910E+00  7.59869910E+00 -1.51973982E+01  7.59869910E+00
  7.59869910E+00 -1.51973982E+01  7.59869910E+00  7.59869910E+00 -1.51973982E+01
  7.59869910E+00  7.59869910E+00 -1.51973982E+01  7.59869910E+00  7.59869910E+00
 -1.51973982E+01  7.59869910E+00  7.59869910E+00 -1.51973982E+01  7.59869910E+00
  7.59869910E+00 -1.51973982E+01  7.59869910E+00  7.59869910E+00 -1.51973982E+01
  7.59869910E+00  7.59869910E+00 -1.51973982E+01  7.59869910E+00  7.59869910E+00
 -1.51973982E+01  7.59869910E+00  7.59869910E+00 -1.51973982E+01  7.59869910E+00
  7.59869910E+00 -1.51973982E+01  7.59869910E+00  7.59869910E+00 -1.51973982E+01
  7.59869910E+00  7.59869910E+00 -1.51973982E+01  7.59869910E+00  7.59869910E+00
 -1.51973982E+01  7.59869910E+00  7.59869910E+00 -1.51973982E+01  7.59869910E+00
  7.59869910E+00 -1.51973982E+01  7.59869910E+00  7.59869910E+00 -1.51973982E+01
  7.59869910E+00  7.59869910E+00 -1.51973982E+01  7.59869910E+00  7.59869910E+00
 -1.51973982E+01  7.59869910E+00  7.59869910E+00 -1.51973982E+01  7.59869910E+00
  7.59869910E+00 -1.51973982E+01  7.59869910E+00  7.59869910E+00 -1.51973982E+01
  7.59869910E+00  7.59869910E+00 -1.51973982E+01  7.59869910E+00  7.59869910E+00
 -1.51973982E+01  7.59869910E+00  7.59869910E+00 -1.51973982E+01  7.59869910E+00
  7.59869910E+00 -1.51973982E+01  7.59869910E+00  7.59869910E+00 -1.51973982E+01
  7.59869910E+00  7.59869910E+00 -1.51973982E+01  7.59869910E+00  7.59869910E+00
 -1.51973982E+01  7.59869910E+00  7.59869910E+00 -1.51973982E+01  7.59869910E+00
  7.59869910E+00 -1.51973982E+01  7.59869910E+00  7.59869910E+00 -1.51973982E+01
  7.59869910E+00  7.59869910E+00 -1.51973982E+01  7.59869910E+00  7.59869910E+00
 -1.51973982E+01  7.59869910E+00  7.59869910E+00 -1.51973982E+01  7.59869910E+00
  7.59869910E+00 -1.51973982E+01  7.59869910E+00  7.59869910E+00 -1.51973982E+01
  7.59869910E+00  7.59869910E+00 -1.51973982E+01  7.59869910E+00  7.59869910E+00
 -1.51973982E+01  7.59869910E+00  7.59869910E+00 -1.51973982E+01  7.59869910E+00
  7.59869910E+00 -1.51973982E+01  7.59869910E+00  7.59869910E+00 -1.51973982E+01
  7.59869910E+00  7.59869910E+00 -1.51973982E+01  7.59869910E+00  7.59869910E+00
 -1.51973982E+01  7.59869910E+00  7.59869910E+00 -1.51973982E+01  7.59869910E+00
  7.59869910E+00 -1.51973982E+01  7.59869910E+00  7.59869910E+00 -1.51973982E+01
  7.59869910E+00  7.59869910E+00 -1.51973982E+01  7.59869910E+00  7.59869910E+00
 -1.51973982E+01  7.59869910E+00  7.59869910E+00 -1.51973982E+01  7.59869910E+00
  7.59869910E+00 -1.51973982E+01  7.59869910E+00  7.59869910E+00 -1.51973982E+01
  7.59869910E+00  7.59869910E+00 -1.51973982E+01  7.59869910E+00  7.59869910E+00
 -1.51973982E+01  7.59869910E+00  7.59869910E+00 -1.51973982E+01  7.59869910E+00
  7.59869910E+00 -1.51973982E+01  7.59869910E+00  7.59869910E+00 -1.51973982E+01
  7.59869910E+00  7.59869910E+00 -1.51973982E+01  7.59869910E+00  7.59869910E+00
 -1.51973982E+01  7.59869910E+00  7.59869910E+00 -1.51973982E+01  7.59869910E+00
  7.59869910E+00 -1.51973982E+01  7.59869910E+00  7.59869910E+00 -1.51973982E+01
  7.59869910E+00  7.59869910E+00 -1.51973982E+01  7.59869910E+00  7.59869910E+00
 -1.51973982E+01  7.59869910E+00  7.59869910E+00 -1.51973982E+01  7.59869910E+00
  7.59869910E+00 -1.51973982E+01  7.59869910E+00  7.59869910E+00 -1.51973982E+01
  7.59869910E+00  7.59869910E+00 -1.51973982E+01  7.59869910E+00  7.59869910E+00
 -1.51973982E+01  7.59869910E+00  7.59869910E+00 -1.51973982E+01  7.59869910E+00
  7.59869910E+00 -1.51973982E+01  7.59869910E+00  7.59869910E+00 -1.51973982E+01
  7.59869910E+00  7.59869910E+00 -1.51973982E+01  7.59869910E+00  7.59869910E+00
 -1.51973982E+01  7.59869910E+00  7.59869910E+00 -1.51973982E+01  7.59869910E+00
  7.59869910E+00 -1.51973982E+01  7.59869910E+00  7.59869910E+00 -1.51973982E+01
  7.59869910E+00  7.59869910E+00 -1.51973982E+01  7.59869910E+00  7.59869910E+00
 -1.51973982E+01  7.59869910E+00  7.59869910E+00 -1.51973982E+01  7.59869910E+00
  7.59869910E+00 -1.51973982E+01  7.59869910E+00  7.59869910E+00 -1.51973982E+01
  7.59869910E+00  7.59869910E+00 -1.51973982E+01  7.59869910E+00  7.59869910E+00
 -1.51973982E+01  7.59869910E+00  7.59869910E+00 -1.51973982E+01  7.59869910E+00
  7.59869910E+00 -1.51973982E+01  7.59869910E+00  7.59869910E+00 -1.51973982E+01
  7.59869910E+00  7.59869910E+00 -1.51973982E+01  7.59869910E+00  7.59869910E+00
 -1.51973982E+01  7.59869910E+00  7.59869910E+00 -1.51973982E+01  7.59869910E+00
  7.59869910E+00 -1.51973982E+01  7.59869910E+00  7.59869910E+00 -1.51973982E+01
  7.59869910E+00  7.59869910E+00 -1.51973982E+01  7.59869910E+00  7.59869910E+00
 -1.51973982E+01  7.59869910E+00  7.59869910E+00 -1.51973982E+01  7.59869910E+00
  7.59869910E+00 -1.51973982E+01  7.59869910E+00  7.59869910E+00 -1.51973982E+01
  7.59869910E+00  7.59869910E+00 -1.51973982E+01  7.59869910E+00  7.59869910E+00
 -1.51973982E+01  7.59869910E+00  7.59869910E+00 -1.51973982E+01  7.59869910E+00
  7.59869910E+00 -1.51973982E+01  7.59869910E+00  7.59869910E+00 -1.51973982E+01
  7.59869910E+00  7.59869910E+00 -1.51973982E+01  7.59869910E+00  7.59869910E+00
 -1.51973982E+01  7.59869910E+00  7.59869910E+00 -1.51973982E+01  7.59869910E+00
  7.59869910E+00 -1.51973982E+01  7.59869910E+00  7.59869910E+00 -1.51973982E+01
  7.59869910E+00  7.59869910E+00 -1.51973982E+01  7.59869910E+00  7.59869910E+00
 -1.51973982E+01  7.59869910E+00  7.59869910E+00 -1.51973982E+01  7.59869910E+00
  7.59869910E+00 -1.51973982E+01  7.59869910E+00  7.59869910E+00 -1.51973982E+01
  7.59869910E+00  7.59869910E+00 -1.51973982E+01  7.59869910E+00  7.59869910E+00
 -1.51973982E+01  7.59869910E+00  7.59869910E+00 -1.51973982E+01  7.59869910E+00
  7.59869910E+00 -1.51973982E+01  7.59869910E+00  7.59869910E+00 -1.51973982E+01
  7.59869910E+00  7.59869910E+00 -1.51973982E+01  7.59869910E+00  7.59869910E+00
 -1.51973982E+01  7.59869910E+00  7.59869910E+00 -1.51973982E+01  7.59869910E+00
  7.59869910E+00 -1.51973982E+01  7.59869910E+00  7.59869910E+00 -1.51973982E+01
  7.59869910E+00  7.59869910E+00 -1.51973982E+01  7.59869910E+00  7.59869910E+00
 -1.51973982E+01  7.59869910E+00  7.59869910E+00 -1.51973982E+01  7.59869910E+00
  7.59869910E+00 -1.51973982E+01  7.59869910E+00  7.59869910E+00 -1.51973982E+01
  7.59869910E+00  7.59869910E+00 -1.51973982E+01  7.59869910E+00  7.59869910E+00
 -1.51973982E+01  7.59869910E+00  7.59869910E+00 -1.51973982E+01  7.59869910E+00
  7.59869910E+00 -1.51973982E+01  7.59869910E+00  7.59869910E+00 -1.51973982E+01
  7.59869910E+00  7.59869910E+00 -1.51973982E+01  7.59869910E+00  7.59869910E+00
 -1.51973982E+01  7.59869910E+00  7.59869910E+00 -1.51973982E+01  7.59869910E+00
  7.59869910E+00 -1.51973982E+01  7.59869910E+00  7.59869910E+00 -1.51973982E+01
  7.59869910E+00  7.59869910E+00 -1.51973982E+01  7.59869910E+00  7.59869910E+00
 -1.51973982E+01  7.59869910E+00  7.59869910E+00 -1.51973982E+01  7.59869910E+00
  7.59869910E+00 -1.51973982E+01  7.59869910E+00  7.59869910E+00 -1.51973982E+01
  7.59869910E+00  7.59869910E+00 -1.51973982E+01  7.59869910E+00  7.59869910E+00
 -1.51973982E+01  7.59869910E+00  7.59869910E+00 -1.51973982E+01  7.59869910E+00
  7.59869910E+00 -1.51973982E+01  7.59869910E+00  7.59869910E+00 -1.51973982E+01
  7.59869910E+00  7.59869910E+00 -1.51973982E+01  7.59869910E+00  7.59869910E+00
 -1.51973982E+01  7.59869910E+00  7.59869910E+00 -1.51973982E+01  7.59869910E+00
  7.59869910E+00 -1.51973982E+01  7.59869910E+00  7.59869910E+00 -1.51973982E+01
  7.59869910E+00  7.59869910E+00 -1.51973982E+01  7.59869910E+00  7.59869910E+00
 -1.51973982E+01  7.59869910E+00  7.59869910E+00 -1.51973982E+01  7.59869910E+00
  7.59869910E+00 -1.51973982E+01  7.59869910E+00  7.59869910E+00 -1.51973982E+01
  7.59869910E+00  7.59869910E+00 -1.51973982E+01  7.59869910E+00  7.59869910E+00
 -1.51973982E+01  7.59869910E+00  7.59869910E+00 -1.51973982E+01  7.59869910E+00
  7.59869910E+00 -1.51973982E+01  7.59869910E+00  7.59869910E+00 -1.51973982E+01
  7.59869910E+00  7.59869910E+00 -1.51973982E+01  7.59869910E+00  7.59869910E+00
 -1.51973982E+01  7.59869910E+00  7.59869910E+00 -1.51973982E+01  7.59869910E+00
  7.59869910E+00 -1.51973982E+01  7.59869910E+00  7.59869910E+00 -1.51973982E+01
  7.59869910E+00  7.59869910E+00 -1.51973982E+01  7.59869910E+00  7.59869910E+00
 -1.51973982E+01  7.59869910E+00  7.59869910E+00 -1.51973982E+01  7.59869910E+00
  7.59869910E+00 -1.51973982E+01  7.59869910E+00  7.59869910E+00 -1.51973982E+01
  7.59869910E+00  7.59869910E+00 -1.51973982E+01  7.59869910E+00  7.59869910E+00
 -1.51973982E+01  7.59869910E+00  7.59869910E+00 -1.51973982E+01  7.59869910E+00
  7.59869910E+00 -1.51973982E+01  7.59869910E+00  7.59869910E+00 -1.51973982E+01
  7.59869910E+00  7.59869910E+00 -1.51973982E+01  7.59869910E+00  7.59869910E+00
 -1.51973982E+01  7.59869910E+00  7.59869910E+00 -1.51973982E+01  7.59869910E+00
  7.59869910E+00 -1.51973982E+01  7.59869910E+00  7.59869910E+00 -1.51973982E+01
  7.59869910E+00  7.59869910E+00 -1.51973982E+01  7.59869910E+00  7.59869910E+00
 -1.51973982E+01  7.59869910E+00  7.59869910E+00 -1.51973982E+01  7.59869910E+00
  7.59869910E+00 -1.51973982E+01  7.59869910E+00  7.59869910E+00 -1.51973982E+01
  7.59869910E+00  7.59869910E+00 -1.51973982E+01  7.59869910E+00  7.59869910E+00
 -1.51973982E+01  7.59869910E+00  7.59869910E+00 -1.51973982E+01  7.59869910E+00
  7.59869910E+00 -1.51973982E+01  7.59869910E+00  7.59869910E+00 -1.51973982E+01
  7.59869910E+00  7.59869910E+00 -1.51973982E+01  7.59869910E+00  7.59869910E+00
 -1.51973982E+01  7.59869910E+00  7.59869910E+00 -1.51973982E+01  7.59869910E+00
  7.59869910E+00 -1.51973982E+01  7.59869910E+00  7.59869910E+00 -1.51973982E+01
  7.59869910E+00  7.59869910E+00 -1.51973982E+01  7.59869910E+00  7.59869910E+00
 -1.51973982E+01  7.59869910E+00  7.59869910E+00 -1.51973982E+01  7.59869910E+00
  7.59869910E+00 -1.51973982E+01  7.59869910E+00  7.59869910E+00 -1.51973982E+01
  7.59869910E+00  7.59869910E+00 -1.51973982E+01  7.59869910E+00  7.59869910E+00
 -1.51973982E+01  7.59869910E+00  7.59869910E+00 -1.51973982E+01  7.59869910E+00
  7.59869910E+00 -1.51973982E+01  7.59869910E+00  7.59869910E+00 -1.51973982E+01
  7.59869910E+00  7.59869910E+00 -1.51973982E+01  7.59869910E+00  7.59869910E+00
 -1.51973982E+01  7.59869910E+00  7.59869910E+00 -1.51973982E+01  7.59869910E+00
  7.59869910E+00 -1.51973982E+01  7.59869910E+00  7.59869910E+00 -1.51973982E+01
  7.59869910E+00  7.59869910E+00 -1.51973982E+01  7.59869910E+00  7.59869910E+00
 -1.51973982E+01  7.59869910E+00  7.59869910E+00 -1.51973982E+01  7.59869910E+00
  7.59869910E+00 -1.51973982E+01  7.59869910E+00  7.59869910E+00 -1.51973982E+01
  7.59869910E+00  7.59869910E+00 -1.51973982E+01  7.59869910E+00  7.59869910E+00
 -1.51973982E+01  7.59869910E+00  7.59869910E+00 -1.51973982E+01  7.59869910E+00
  7.59869910E+00 -1.51973982E+01  7.59869910E+00  7.59869910E+00 -1.51973982E+01
  7.59869910E+00  7.59869910E+00 -1.51973982E+01  7.59869910E+00  7.59869910E+00
 -1.51973982E+01  7.59869910E+00  7.59869910E+00 -1.51973982E+01  7.59869910E+00
  7.59869910E+00 -1.51973982E+01  7.59869910E+00  7.59869910E+00 -1.51973982E+01
  7.59869910E+00  7.59869910E+00 -1.51973982E+01  7.59869910E+00  7.59869910E+00
 -1.51973982E+01  7.59869910E+00  7.59869910E+00 -1.51973982E+01  7.59869910E+00
  7.59869910E+00 -1.51973982E+01  7.59869910E+00  7.59869910E+00 -1.51973982E+01
  7.59869910E+00  7.59869910E+00 -1.51973982E+01  7.59869910E+00  7.59869910E+00
 -1.51973982E+01  7.59869910E+00  7.59869910E+00 -1.51973982E+01  7.59869910E+00
  7.59869910E+00 -1.51973982E+01  7.59869910E+00  7.59869910E+00 -1.51973982E+01
  7.59869910E+00  7.59869910E+00 -1.51973982E+01  7.59869910E+00  7.59869910E+00
 -1.51973982E+01  7.59869910E+00  7.59869910E+00 -1.51973982E+01  7.59869910E+00
  7.59869910E+00 -1.51973982E+01  7.59869910E+00  7.59869910E+00 -1.51973982E+01
  7.59869910E+00  7.59869910E+00 -1.51973982E+01  7.59869910E+00  7.59869910E+00
 -1.51973982E+01  7.59869910E+00  7.59869910E+00 -1.51973982E+01  7.59869910E+00
  7.59869910E+00 -1.51973982E+01  7.59869910E+00  7.59869910E+00 -1.51973982E+01
  7.59869910E+00  7.59869910E+00 -1.51973982E+01  7.59869910E+00  7.59869910E+00
 -1.51973982E+01  7.59869910E+00  7.59869910E+00 -1.51973982E+01  7.59869910E+00
  7.59869910E+00 -1.51973982E+01  7.59869910E+00  7.59869910E+00 -1.51973982E+01
  7.59869910E+00  7.59869910E+00 -1.51973982E+01  7.59869910E+00  7.59869910E+00
 -1.51973982E+01  7.59869910E+00  7.59869910E+00 -1.51973982E+01  7.59869910E+00
  7.59869910E+00 -1.51973982E+01  7.59869910E+00  7.59869910E+00 -1.51973982E+01
  7.59869910E+00  7.59869910E+00 -1.51973982E+01  7.59869910E+00  7.59869910E+00
 -1.51973982E+01  7.59869910E+00  7.59869910E+00 -1.51973982E+01  7.59869910E+00
  7.59869910E+00 -1.51973982E+01  7.59869910E+00  7.59869910E+00 -1.51973982E+01
  7.59869910E+00  7.59869910E+00 -1.51973982E+01  7.59869910E+00  7.59869910E+00
 -1.51973982E+01  7.59869910E+00  7.59869910E+00 -1.51973982E+01  7.59869910E+00
  7.59869910E+00 -1.51973982E+01  7.59869910E+00  7.59869910E+00 -1.51973982E+01
  7.59869910E+00  7.59869910E+00 -1.51973982E+01  7.59869910E+00  7.59869910E+00
 -1.51973982E+01  7.59869910E+00  7.59869910E+00 -1.51973982E+01  7.59869910E+00
  7.59869910E+00 -1.51973982E+01  7.59869910E+00  7.59869910E+00 -1.51973982E+01
  7.59869910E+00  7.59869910E+00 -1.51973982E+01  7.59869910E+00  7.59869910E+00
 -1.51973982E+01  7.59869910E+00  7.59869910E+00 -1.51973982E+01  7.59869910E+00
  7.59869910E+00 -1.51973982E+01  7.59869910E+00  7.59869910E+00 -1.51973982E+01
  7.59869910E+00  7.59869910E+00 -1.51973982E+01  7.59869910E+00  7.59869910E+00
 -1.51973982E+01  7.59869910E+00  7.59869910E+00 -1.51973982E+01  7.59869910E+00
  7.59869910E+00 -1.51973982E+01  7.59869910E+00  7.59869910E+00 -1.51973982E+01
  7.59869910E+00  7.59869910E+00 -1.51973982E+01  7.59869910E+00  7.59869910E+00
 -1.51973982E+01  7.59869910E+00  7.59869910E+00 -1.51973982E+01  7.59869910E+00
  7.59869910E+00 -1.51973982E+01  7.59869910E+00  7.59869910E+00 -1.51973982E+01
  7.59869910E+00  7.59869910E+00 -1.51973982E+01  7.59869910E+00  7.59869910E+00
 -1.51973982E+01  7.59869910E+00  7.59869910E+00 -1.51973982E+01  7.59869910E+00
  7.59869910E+00 -1.51973982E+01  7.59869910E+00  7.59869910E+00 -1.51973982E+01
  7.59869910E+00  7.59869910E+00 -1.51973982E+01  7.59869910E+00  7.59869910E+00
 -1.51973982E+01  7.59869910E+00  7.59869910E+00 -1.51973982E+01  7.59869910E+00
  7.59869910E+00 -1.51973982E+01  7.59869910E+00  7.59869910E+00 -1.51973982E+01
  7.59869910E+00  7.59869910E+00 -1.51973982E+01  7.59869910E+00  7.59869910E+00
 -1.51973982E+01  7.59869910E+00  7.59869910E+00 -1.51973982E+01  7.59869910E+00
  7.59869910E+00 -1.51973982E+01  7.59869910E+00  7.59869910E+00 -1.51973982E+01
  7.59869910E+00  7.59869910E+00 -1.51973982E+01  7.59869910E+00  7.59869910E+00
 -1.51973982E+01  7.59869910E+00  7.59869910E+00 -1.51973982E+01  7.59869910E+00
  7.59869910E+00 -1.51973982E+01  7.59869910E+00  7.59869910E+00 -1.51973982E+01
  7.59869910E+00  7.59869910E+00 -1.51973982E+01  7.59869910E+00  7.59869910E+00
 -1.51973982E+01  7.59869910E+00  7.59869910E+00 -1.51973982E+01  7.59869910E+00
  7.59869910E+00 -1.51973982E+01  7.59869910E+00  7.59869910E+00 -1.51973982E+01
  7.59869910E+00  7.59869910E+00 -1.51973982E+01  7.59869910E+00  7.59869910E+00
 -1.51973982E+01  7.59869910E+00  7.59869910E+00 -1.51973982E+01  7.59869910E+00
  7.59869910E+00 -1.51973982E+01  7.59869910E+00  7.59869910E+00 -1.51973982E+01
  7.59869910E+00  7.59869910E+00 -1.51973982E+01  7.59869910E+00  7.59869910E+00
 -1.51973982E+01  7.59869910E+00  7.59869910E+00 -1.51973982E+01  7.59869910E+00
  7.59869910E+00 -1.51973982E+01  7.59869910E+00  7.59869910E+00 -1.51973982E+01
  7.59869910E+00  7.59869910E+00 -1.51973982E+01  7.59869910E+00  7.59869910E+00
 -1.51973982E+01  7.59869910E+00  7.59869910E+00 -1.51973982E+01  7.59869910E+00
  7.59869910E+00 -1.51973982E+01  7.59869910E+00  7.59869910E+00 -1.51973982E+01
  7.59869910E+00  7.59869910E+00 -1.51973982E+01  7.59869910E+00  7.59869910E+00
 -1.51973982E+01  7.59869910E+00  7.59869910E+00 -1.51973982E+01  7.59869910E+00
  7.59869910E+00 -1.51973982E+01  7.59869910E+00  7.59869910E+00 -1.51973982E+01
  7.59869910E+00  7.59869910E+00 -1.51973982E+01  7.59869910E+00  7.59869910E+00
 -1.51973982E+01  7.59869910E+00  7.59869910E+00 -1.51973982E+01  7.59869910E+00
  7.59869910E+00 -1.51973982E+01  7.59869910E+00  7.59869910E+00 -1.51973982E+01
  7.59869910E+00  7.59869910E+00 -1.51973982E+01  7.59869910E+00  7.59869910E+00
 -1.51973982E+01  7.59869910E+00  7.59869910E+00 -1.51973982E+01  7.59869910E+00
  7.59869910E+00 -1.51973982E+01  7.59869910E+00  7.59869910E+00 -1.51973982E+01
  7.59869910E+00  7.59869910E+00 -1.51973982E+01  7.59869910E+00  7.59869910E+00
 -1.51973982E+01  7.59869910E+00  7.59869910E+00 -1.51973982E+01  7.59869910E+00
  7.59869910E+00 -1.51973982E+01  7.59869910E+00  7.59869910E+00 -1.51973982E+01
  7.59869910E+00  7.59869910E+00 -1.51973982E+01  7.59869910E+00  7.59869910E+00
 -1.51973982E+01  7.59869910E+00  7.59869910E+00 -1.51973982E+01  7.59869910E+00
  7.59869910E+00 -1.51973982E+01  7.59869910E+00  7.59869910E+00 -1.51973982E+01
  7.59869910E+00  7.59869910E+00 -1.51973982E+01  7.59869910E+00  7.59869910E+00
 -1.51973982E+01  7.59869910E+00  7.59869910E+00 -1.51973982E+01  7.59869910E+00
  7.59869910E+00 -1.51973982E+01  7.59869910E+00  7.59869910E+00 -1.51973982E+01
  7.59869910E+00  7.59869910E+00 -1.51973982E+01  7.59869910E+00  7.59869910E+00
 -1.51973982E+01  7.59869910E+00  7.59869910E+00 -1.51973982E+01  7.59869910E+00
  7.59869910E+00 -1.51973982E+01  7.59869910E+00  7.59869910E+00 -1.51973982E+01
  7.59869910E+00  7.59869910E+00 -1.51973982E+01  7.59869910E+00  7.59869910E+00
 -1.51973982E+01  7.59869910E+00  7.59869910E+00 -1.51973982E+01  7.59869910E+00
  7.59869910E+00 -1.51973982E+01  7.59869910E+00  7.59869910E+00 -1.51973982E+01
  7.59869910E+00  7.59869910E+00 -1.51973982E+01  7.59869910E+00  7.59869910E+00
 -1.51973982E+01  7.59869910E+00  7.59869910E+00 -1.51973982E+01  7.59869910E+00
  7.59869910E+00 -1.51973982E+01  7.59869910E+00  7.59869910E+00 -1.51973982E+01
  7.59869910E+00  7.59869910E+00 -1.51973982E+01  7.59869910E+00  7.59869910E+00
 -1.51973982E+01  7.59869910E+00  7.59869910E+00 -1.51973982E+01  7.59869910E+00
  7.59869910E+00 -1.51973982E+01  7.59869910E+00  7.59869910E+00 -1.51973982E+01
  7.59869910E+00  7.59869910E+00 -1.51973982E+01  7.59869910E+00  7.59869910E+00
 -1.51973982E+01  7.59869910E+00  7.59869910E+00 -1.51973982E+01  7.59869910E+00
  7.59869910E+00 -1.51973982E+01  7.59869910E+00  7.59869910E+00 -1.51973982E+01
  7.59869910E+00  7.59869910E+00 -1.51973982E+01  7.59869910E+00  7.59869910E+00
 -1.51973982E+01  7.59869910E+00  7.59869910E+00 -1.51973982E+01  7.59869910E+00
  7.59869910E+00 -1.51973982E+01  7.59869910E+00  7.59869910E+00 -1.51973982E+01
  7.59869910E+00  7.59869910E+00 -1.51973982E+01  7.59869910E+00  7.59869910E+00
 -1.51973982E+01  7.59869910E+00  7.59869910E+00 -1.51973982E+01  7.59869910E+00
  7.59869910E+00 -1.51973982E+01  7.59869910E+00  7.59869910E+00 -1.51973982E+01
  7.59869910E+00  7.59869910E+00 -1.51973982E+01  7.59869910E+00  7.59869910E+00
 -1.51973982E+01  7.59869910E+00  7.59869910E+00 -1.51973982E+01  7.59869910E+00
  7.59869910E+00 -1.51973982E+01  7.59869910E+00  7.59869910E+00 -1.51973982E+01
  7.59869910E+00  7.59869910E+00 -1.51973982E+01  7.59869910E+00  7.59869910E+00
 -1.51973982E+01  7.59869910E+00  7.59869910E+00 -1.51973982E+01  7.59869910E+00
  7.59869910E+00 -1.51973982E+01  7.59869910E+00  7.59869910E+00 -1.51973982E+01
  7.59869910E+00  7.59869910E+00 -1.51973982E+01  7.59869910E+00  7.59869910E+00
 -1.51973982E+01  7.59869910E+00  7.59869910E+00 -1.51973982E+01  7.59869910E+00
  7.59869910E+00 -1.51973982E+01  7.59869910E+00  7.59869910E+00 -1.51973982E+01
  7.59869910E+00  7.59869910E+00 -1.51973982E+01  7.59869910E+00  7.59869910E+00
 -1.51973982E+01  7.59869910E+00  7.59869910E+00 -1.51973982E+01  7.59869910E+00
  7.59869910E+00 -1.51973982E+01  7.59869910E+00  7.59869910E+00 -1.51973982E+01
  7.59869910E+00  7.59869910E+00 -1.51973982E+01  7.59869910E+00  7.59869910E+00
 -1.51973982E+01  7.59869910E+00  7.59869910E+00 -1.51973982E+01  7.59869910E+00
  7.59869910E+00 -1.51973982E+01  7.59869910E+00  7.59869910E+00 -1.51973982E+01
  7.59869910E+00  7.59869910E+00 -1.51973982E+01  7.59869910E+00  7.59869910E+00
 -1.51973982E+01  7.59869910E+00  7.59869910E+00 -1.51973982E+01  7.59869910E+00
  7.59869910E+00 -1.51973982E+01  7.59869910E+00  7.59869910E+00 -1.51973982E+01
  7.59869910E+00  7.59869910E+00 -1.51973982E+01  7.59869910E+00  7.59869910E+00
 -1.51973982E+01  7.59869910E+00  7.59869910E+00 -1.51973982E+01  7.59869910E+00
  7.59869910E+00 -1.51973982E+01  7.59869910E+00  7.59869910E+00 -1.51973982E+01
  7.59869910E+00  7.59869910E+00 -1.51973982E+01  7.59869910E+00  7.59869910E+00
 -1.51973982E+01  7.59869910E+00  7.59869910E+00 -1.51973982E+01  7.59869910E+00
  7.59869910E+00 -1.51973982E+01  7.59869910E+00  7.59869910E+00 -1.51973982E+01
  7.59869910E+00  7.59869910E+00 -1.51973982E+01  7.59869910E+00  7.59869910E+00
 -1.51973982E+01  7.59869910E+00  7.59869910E+00 -1.51973982E+01  7.59869910E+00
  7.59869910E+00 -1.51973982E+01  7.59869910E+00  7.59869910E+00 -1.51973982E+01
  7.59869910E+00  7.59869910E+00 -1.51973982E+01  7.59869910E+00  7.59869910E+00
 -1.51973982E+01  7.59869910E+00  7.59869910E+00 -1.51973982E+01  7.59869910E+00
  7.59869910E+00 -1.51973982E+01  7.59869910E+00  7.59869910E+00 -1.51973982E+01
  7.59869910E+00  7.59869910E+00 -1.51973982E+01  7.59869910E+00  7.59869910E+00
 -1.51973982E+01  7.59869910E+00  7.59869910E+00 -1.51973982E+01  7.59869910E+00
  7.59869910E+00 -1.51973982E+01  7.59869910E+00  7.59869910E+00 -1.51973982E+01
  7.59869910E+00  7.59869910E+00 -1.51973982E+01  7.59869910E+00  7.59869910E+00
 -1.51973982E+01  7.59869910E+00  7.59869910E+00 -1.51973982E+01  7.59869910E+00
  7.59869910E+00 -1.51973982E+01  7.59869910E+00  7.59869910E+00 -1.51973982E+01
  7.59869910E+00  7.59869910E+00 -1.51973982E+01  7.59869910E+00  7.59869910E+00
 -1.51973982E+01  7.59869910E+00  7.59869910E+00 -1.51973982E+01  7.59869910E+00
  7.59869910E+00 -1.51973982E+01  7.59869910E+00  7.59869910E+00 -1.51973982E+01
  7.59869910E+00  7.59869910E+00 -1.51973982E+01  7.59869910E+00  7.59869910E+00
 -1.51973982E+01  7.59869910E+00  7.59869910E+00 -1.51973982E+01  7.59869910E+00
  7.59869910E+00 -1.51973982E+01  7.59869910E+00  7.59869910E+00 -1.51973982E+01
  7.59869910E+00  7.59869910E+00 -1.51973982E+01  7.59869910E+00  7.59869910E+00
 -1.51973982E+01  7.59869910E+00  7.59869910E+00 -1.51973982E+01  7.59869910E+00
  7.59869910E+00 -1.51973982E+01  7.59869910E+00  7.59869910E+00 -1.51973982E+01
  7.59869910E+00  7.59869910E+00 -1.51973982E+01  7.59869910E+00  7.59869910E+00
 -1.51973982E+01  7.59869910E+00  7.59869910E+00 -1.51973982E+01  7.59869910E+00
  7.59869910E+00 -1.51973982E+01  7.59869910E+00  7.59869910E+00 -1.51973982E+01
  7.59869910E+00  7.59869910E+00 -1.51973982E+01  7.59869910E+00  7.59869910E+00
 -1.51973982E+01  7.59869910E+00  7.59869910E+00 -1.51973982E+01  7.59869910E+00
  7.59869910E+00 -1.51973982E+01  7.59869910E+00  7.59869910E+00 -1.51973982E+01
  7.59869910E+00  7.59869910E+00 -1.51973982E+01  7.59869910E+00  7.59869910E+00
 -1.51973982E+01  7.59869910E+00  7.59869910E+00 -1.51973982E+01  7.59869910E+00
  7.59869910E+00 -1.51973982E+01  7.59869910E+00  7.59869910E+00 -1.51973982E+01
  7.59869910E+00  7.59869910E+00 -1.51973982E+01  7.59869910E+00  7.59869910E+00
 -1.51973982E+01  7.59869910E+00  7.59869910E+00 -1.51973982E+01  7.59869910E+00
  7.59869910E+00 -1.51973982E+01  7.59869910E+00  7.59869910E+00 -1.51973982E+01
  7.59869910E+00  7.59869910E+00 -1.51973982E+01  7.59869910E+00  7.59869910E+00
 -1.51973982E+01  7.59869910E+00  7.59869910E+00 -1.51973982E+01  7.59869910E+00
  7.59869910E+00 -1.51973982E+01  7.59869910E+00  7.59869910E+00 -1.51973982E+01
  7.59869910E+00  7.59869910E+00 -1.51973982E+01  7.59869910E+00  7.59869910E+00
 -1.51973982E+01  7.59869910E+00  7.59869910E+00 -1.51973982E+01  7.59869910E+00
  7.59869910E+00 -1.51973982E+01  7.59869910E+00  7.59869910E+00 -1.51973982E+01
  7.59869910E+00  7.59869910E+00 -1.51973982E+01  7.59869910E+00  7.59869910E+00
 -1.51973982E+01  7.59869910E+00  7.59869910E+00 -1.51973982E+01  7.59869910E+00
  7.59869910E+00 -1.51973982E+01  7.59869910E+00  7.59869910E+00 -1.51973982E+01
  7.59869910E+00  7.59869910E+00 -1.51973982E+01  7.59869910E+00  7.59869910E+00
 -1.51973982E+01  7.59869910E+00  7.59869910E+00 -1.51973982E+01  7.59869910E+00
  7.59869910E+00 -1.51973982E+01  7.59869910E+00  7.59869910E+00 -1.51973982E+01
  7.59869910E+00  7.59869910E+00 -1.51973982E+01  7.59869910E+00  7.59869910E+00
 -1.51973982E+01  7.59869910E+00  7.59869910E+00 -1.51973982E+01  7.59869910E+00
  7.59869910E+00 -1.51973982E+01  7.59869910E+00  7.59869910E+00 -1.51973982E+01
  7.59869910E+00  7.59869910E+00 -1.51973982E+01  7.59869910E+00  7.59869910E+00
 -1.51973982E+01  7.59869910E+00  7.59869910E+00 -1.51973982E+01  7.59869910E+00
  7.59869910E+00 -1.51973982E+01  7.59869910E+00  7.59869910E+00 -1.51973982E+01
  7.59869910E+00  7.59869910E+00 -1.51973982E+01  7.59869910E+00  7.59869910E+00
 -1.51973982E+01  7.59869910E+00  7.59869910E+00 -1.51973982E+01  7.59869910E+00
  7.59869910E+00 -1.51973982E+01  7.59869910E+00  7.59869910E+00 -1.51973982E+01
  7.59869910E+00  7.59869910E+00 -1.51973982E+01  7.59869910E+00  7.59869910E+00
 -1.51973982E+01  7.59869910E+00  7.59869910E+00 -1.51973982E+01  7.59869910E+00
  7.59869910E+00 -1.51973982E+01  7.59869910E+00  7.59869910E+00 -1.51973982E+01
  7.59869910E+00  7.59869910E+00 -1.51973982E+01  7.59869910E+00  7.59869910E+00
 -1.51973982E+01  7.59869910E+00  7.59869910E+00 -1.51973982E+01  7.59869910E+00
  7.59869910E+00 -1.51973982E+01  7.59869910E+00  7.59869910E+00 -1.51973982E+01
  7.59869910E+00  7.59869910E+00 -1.51973982E+01  7.59869910E+00  7.59869910E+00
 -1.51973982E+01  7.59869910E+00  7.59869910E+00 -1.51973982E+01  7.59869910E+00
  7.59869910E+00 -1.51973982E+01  7.59869910E+00  7.59869910E+00 -1.51973982E+01
  7.59869910E+00  7.59869910E+00 -1.51973982E+01  7.59869910E+00  7.59869910E+00
 -1.51973982E+01  7.59869910E+00  7.59869910E+00 -1.51973982E+01  7.59869910E+00
  7.59869910E+00 -1.51973982E+01  7.59869910E+00  7.59869910E+00 -1.51973982E+01
  7.59869910E+00  7.59869910E+00 -1.51973982E+01  7.59869910E+00  7.59869910E+00
 -1.51973982E+01  7.59869910E+00  7.59869910E+00 -1.51973982E+01  7.59869910E+00
  7.59869910E+00 -1.51973982E+01  7.59869910E+00  7.59869910E+00 -1.51973982E+01
  7.59869910E+00  7.59869910E+00 -1.51973982E+01  7.59869910E+00  7.59869910E+00
 -1.51973982E+01  7.59869910E+00  7.59869910E+00 -1.51973982E+01  7.59869910E+00
  7.59869910E+00 -1.51973982E+01  7.59869910E+00  7.59869910E+00 -1.51973982E+01
  7.59869910E+00  7.59869910E+00 -1.51973982E+01  7.59869910E+00  7.59869910E+00
 -1.51973982E+01  7.59869910E+00  7.59869910E+00 -1.51973982E+01  7.59869910E+00
  7.59869910E+00 -1.51973982E+01  7.59869910E+00  7.59869910E+00 -1.51973982E+01
  7.59869910E+00  7.59869910E+00 -1.51973982E+01  7.59869910E+00  7.59869910E+00
 -1.51973982E+01  7.59869910E+00  7.59869910E+00 -1.51973982E+01  7.59869910E+00
  7.59869910E+00 -1.51973982E+01  7.59869910E+00  7.59869910E+00 -1.51973982E+01
  7.59869910E+00  7.59869910E+00 -1.51973982E+01  7.59869910E+00  7.59869910E+00
 -1.51973982E+01  7.59869910E+00  7.59869910E+00 -1.51973982E+01  7.59869910E+00
  7.59869910E+00 -1.51973982E+01  7.59869910E+00  7.59869910E+00 -1.51973982E+01
  7.59869910E+00  7.59869910E+00 -1.51973982E+01  7.59869910E+00  7.59869910E+00
 -1.51973982E+01  7.59869910E+00  7.59869910E+00 -1.51973982E+01  7.59869910E+00
  7.59869910E+00 -1.51973982E+01  7.59869910E+00  7.59869910E+00 -1.51973982E+01
  7.59869910E+00  7.59869910E+00 -1.51973982E+01  7.59869910E+00  7.59869910E+00
 -1.51973982E+01  7.59869910E+00  7.59869910E+00 -1.51973982E+01  7.59869910E+00
  7.59869910E+00 -1.51973982E+01  7.59869910E+00  7.59869910E+00 -1.51973982E+01
  7.59869910E+00  7.59869910E+00 -1.51973982E+01  7.59869910E+00  7.59869910E+00
 -1.51973982E+01  7.59869910E+00  7.59869910E+00 -1.51973982E+01  7.59869910E+00
  7.59869910E+00 -1.51973982E+01  7.59869910E+00  7.59869910E+00 -1.51973982E+01
  7.59869910E+00  7.59869910E+00 -1.51973982E+01  7.59869910E+00  7.59869910E+00
 -1.51973982E+01  7.59869910E+00  7.59869910E+00 -1.51973982E+01  7.59869910E+00
  7.59869910E+00 -1.51973982E+01  7.59869910E+00  7.59869910E+00 -1.51973982E+01
  7.59869910E+00  7.59869910E+00 -1.51973982E+01  7.59869910E+00  7.59869910E+00
 -1.51973982E+01  7.59869910E+00  7.59869910E+00 -1.51973982E+01  7.59869910E+00
  7.59869910E+00 -1.51973982E+01  7.59869910E+00  7.59869910E+00 -1.51973982E+01
  7.59869910E+00  7.59869910E+00 -1.51973982E+01  7.59869910E+00  7.59869910E+00
 -1.51973982E+01  7.59869910E+00  7.59869910E+00 -1.51973982E+01  7.59869910E+00
  7.59869910E+00 -1.51973982E+01  7.59869910E+00  7.59869910E+00 -1.51973982E+01
  7.59869910E+00  7.59869910E+00 -1.51973982E+01  7.59869910E+00  7.59869910E+00
 -1.51973982E+01  7.59869910E+00  7.59869910E+00 -1.51973982E+01  7.59869910E+00
  7.59869910E+00 -1.51973982E+01  7.59869910E+00  7.59869910E+00 -1.51973982E+01
  7.59869910E+00  7.59869910E+00 -1.51973982E+01  7.59869910E+00  7.59869910E+00
 -1.51973982E+01  7.59869910E+00  7.59869910E+00 -1.51973982E+01  7.59869910E+00
  7.59869910E+00 -1.51973982E+01  7.59869910E+00  7.59869910E+00 -1.51973982E+01
  7.59869910E+00  7.59869910E+00 -1.51973982E+01  7.59869910E+00  7.59869910E+00
 -1.51973982E+01  7.59869910E+00  7.59869910E+00 -1.51973982E+01  7.59869910E+00
  7.59869910E+00 -1.51973982E+01  7.59869910E+00  7.59869910E+00 -1.51973982E+01
  7.59869910E+00  7.59869910E+00 -1.51973982E+01  7.59869910E+00  7.59869910E+00
 -1.51973982E+01  7.59869910E+00  7.59869910E+00 -1.51973982E+01  7.59869910E+00
  7.59869910E+00 -1.51973982E+01  7.59869910E+00  7.59869910E+00 -1.51973982E+01
  7.59869910E+00  7.59869910E+00 -1.51973982E+01  7.59869910E+00  7.59869910E+00
 -1.51973982E+01  7.59869910E+00  7.59869910E+00 -1.51973982E+01  7.59869910E+00
  7.59869910E+00 -1.51973982E+01  7.59869910E+00  7.59869910E+00 -1.51973982E+01
  7.59869910E+00  7.59869910E+00 -1.51973982E+01  7.59869910E+00  7.59869910E+00
 -1.51973982E+01  7.59869910E+00  7.59869910E+00 -1.51973982E+01  7.59869910E+00
  7.59869910E+00 -1.51973982E+01  7.59869910E+00  7.59869910E+00 -1.51973982E+01
  7.59869910E+00  7.59869910E+00 -1.51973982E+01  7.59869910E+00  7.59869910E+00
 -1.51973982E+01  7.59869910E+00  7.59869910E+00 -1.51973982E+01  7.59869910E+00
  7.59869910E+00 -1.51973982E+01  7.59869910E+00  7.59869910E+00 -1.51973982E+01
  7.59869910E+00  7.59869910E+00 -1.51973982E+01  7.59869910E+00  7.59869910E+00
 -1.51973982E+01  7.59869910E+00  7.59869910E+00 -1.51973982E+01  7.59869910E+00
  7.59869910E+00 -1.51973982E+01  7.59869910E+00  7.59869910E+00 -1.51973982E+01
  7.59869910E+00  7.59869910E+00 -1.51973982E+01  7.59869910E+00  7.59869910E+00
 -1.51973982E+01  7.59869910E+00  7.59869910E+00 -1.51973982E+01  7.59869910E+00
  7.59869910E+00 -1.51973982E+01  7.59869910E+00  7.59869910E+00 -1.51973982E+01
  7.59869910E+00  7.59869910E+00 -1.51973982E+01  7.59869910E+00  7.59869910E+00
 -1.51973982E+01  7.59869910E+00  7.59869910E+00 -1.51973982E+01  7.59869910E+00
  7.59869910E+00 -1.51973982E+01  7.59869910E+00  7.59869910E+00 -1.51973982E+01
  7.59869910E+00  7.59869910E+00 -1.51973982E+01  7.59869910E+00  7.59869910E+00
 -1.51973982E+01  7.59869910E+00  7.59869910E+00 -1.51973982E+01  7.59869910E+00
  7.59869910E+00 -1.51973982E+01  7.59869910E+00  7.59869910E+00 -1.51973982E+01
  7.59869910E+00  7.59869910E+00 -1.51973982E+01  7.59869910E+00  7.59869910E+00
 -1.51973982E+01  7.59869910E+00  7.59869910E+00 -1.51973982E+01  7.59869910E+00
  7.59869910E+00 -1.51973982E+01  7.59869910E+00  7.59869910E+00 -1.51973982E+01
  7.59869910E+00  7.59869910E+00 -1.51973982E+01  7.59869910E+00  7.59869910E+00
 -1.51973982E+01  7.59869910E+00  7.59869910E+00 -1.51973982E+01  7.59869910E+00
  7.59869910E+00 -1.51973982E+01  7.59869910E+00  7.59869910E+00 -1.51973982E+01
  7.59869910E+00  7.59869910E+00 -1.51973982E+01  7.59869910E+00  7.59869910E+00
 -1.51973982E+01  7.59869910E+00  7.59869910E+00 -1.51973982E+01  7.59869910E+00
  7.59869910E+00 -1.51973982E+01  7.59869910E+00  7.59869910E+00 -1.51973982E+01
  7.59869910E+00  7.59869910E+00 -1.51973982E+01  7.59869910E+00  7.59869910E+00
 -1.51973982E+01  7.59869910E+00  7.59869910E+00 -1.51973982E+01  7.59869910E+00
  7.59869910E+00 -1.51973982E+01  7.59869910E+00  7.59869910E+00 -1.51973982E+01
  7.59869910E+00  7.59869910E+00 -1.51973982E+01  7.59869910E+00  7.59869910E+00
 -1.51973982E+01  7.59869910E+00  7.59869910E+00 -1.51973982E+01  7.59869910E+00
  7.59869910E+00 -1.51973982E+01  7.59869910E+00  7.59869910E+00 -1.51973982E+01
  7.59869910E+00  7.59869910E+00 -1.51973982E+01  7.59869910E+00  7.59869910E+00
 -1.51973982E+01  7.59869910E+00  7.59869910E+00 -1.51973982E+01  7.59869910E+00
  7.59869910E+00 -1.51973982E+01  7.59869910E+00  7.59869910E+00 -1.51973982E+01
  7.59869910E+00  7.59869910E+00 -1.51973982E+01  7.59869910E+00  7.59869910E+00
 -1.51973982E+01  7.59869910E+00  7.59869910E+00 -1.51973982E+01  7.59869910E+00
  7.59869910E+00 -1.51973982E+01  7.59869910E+00  7.59869910E+00 -1.51973982E+01
  7.59869910E+00  7.59869910E+00 -1.51973982E+01  7.59869910E+00  7.59869910E+00
 -1.51973982E+01  7.59869910E+00  7.59869910E+00 -1.51973982E+01  7.59869910E+00
  7.59869910E+00 -1.51973982E+01  7.59869910E+00  7.59869910E+00 -1.51973982E+01
  7.59869910E+00  7.59869910E+00 -1.51973982E+01  7.59869910E+00  7.59869910E+00
 -1.51973982E+01  7.59869910E+00  7.59869910E+00 -1.51973982E+01  7.59869910E+00
  7.59869910E+00 -1.51973982E+01  7.59869910E+00  7.59869910E+00 -1.51973982E+01
  7.59869910E+00  7.59869910E+00 -1.51973982E+01  7.59869910E+00  7.59869910E+00
 -1.51973982E+01  7.59869910E+00  7.59869910E+00 -1.51973982E+01  7.59869910E+00
  7.59869910E+00 -1.51973982E+01  7.59869910E+00  7.59869910E+00 -1.51973982E+01
  7.59869910E+00  7.59869910E+00 -1.51973982E+01  7.59869910E+00  7.59869910E+00
 -1.51973982E+01  7.59869910E+00  7.59869910E+00 -1.51973982E+01  7.59869910E+00
  7.59869910E+00 -1.51973982E+01  7.59869910E+00  7.59869910E+00 -1.51973982E+01
  7.59869910E+00  7.59869910E+00 -1.51973982E+01  7.59869910E+00  7.59869910E+00
 -1.51973982E+01  7.59869910E+00  7.59869910E+00 -1.51973982E+01  7.59869910E+00
  7.59869910E+00 -1.51973982E+01  7.59869910E+00  7.59869910E+00 -1.51973982E+01
  7.59869910E+00  7.59869910E+00 -1.51973982E+01  7.59869910E+00  7.59869910E+00
 -1.51973982E+01  7.59869910E+00  7.59869910E+00 -1.51973982E+01  7.59869910E+00
  7.59869910E+00 -1.51973982E+01  7.59869910E+00  7.59869910E+00 -1.51973982E+01
  7.59869910E+00  7.59869910E+00 -1.51973982E+01  7.59869910E+00  7.59869910E+00
 -1.51973982E+01  7.59869910E+00  7.59869910E+00 -1.51973982E+01  7.59869910E+00
  7.59869910E+00 -1.51973982E+01  7.59869910E+00  7.59869910E+00 -1.51973982E+01
  7.59869910E+00  7.59869910E+00 -1.51973982E+01  7.59869910E+00  7.59869910E+00
 -1.51973982E+01  7.59869910E+00  7.59869910E+00 -1.51973982E+01  7.59869910E+00
  7.59869910E+00 -1.51973982E+01  7.59869910E+00  7.59869910E+00 -1.51973982E+01
  7.59869910E+00  7.59869910E+00 -1.51973982E+01  7.59869910E+00  7.59869910E+00
 -1.51973982E+01  7.59869910E+00  7.59869910E+00 -1.51973982E+01  7.59869910E+00
  7.59869910E+00 -1.51973982E+01  7.59869910E+00  7.59869910E+00 -1.51973982E+01
  7.59869910E+00  7.59869910E+00 -1.51973982E+01  7.59869910E+00  7.59869910E+00
 -1.51973982E+01  7.59869910E+00  7.59869910E+00 -1.51973982E+01  7.59869910E+00
  7.59869910E+00 -1.51973982E+01  7.59869910E+00  7.59869910E+00 -1.51973982E+01
  7.59869910E+00  7.59869910E+00 -1.51973982E+01  7.59869910E+00  7.59869910E+00
 -1.51973982E+01  7.59869910E+00  7.59869910E+00 -1.51973982E+01  7.59869910E+00
  7.59869910E+00 -1.51973982E+01  7.59869910E+00  7.59869910E+00 -1.51973982E+01
  7.59869910E+00  7.59869910E+00 -1.51973982E+01  7.59869910E+00  7.59869910E+00
 -1.51973982E+01  7.59869910E+00  7.59869910E+00 -1.51973982E+01  7.59869910E+00
  7.59869910E+00 -1.51973982E+01  7.59869910E+00  7.59869910E+00 -1.51973982E+01
  7.59869910E+00  7.59869910E+00 -1.51973982E+01  7.59869910E+00  7.59869910E+00
 -1.51973982E+01  7.59869910E+00  7.59869910E+00 -1.51973982E+01  7.59869910E+00
  7.59869910E+00 -1.51973982E+01  7.59869910E+00  7.59869910E+00 -1.51973982E+01
  7.59869910E+00  7.59869910E+00 -1.51973982E+01  7.59869910E+00  7.59869910E+00
 -1.51973982E+01  7.59869910E+00  7.59869910E+00 -1.51973982E+01  7.59869910E+00
  7.59869910E+00 -1.51973982E+01  7.59869910E+00  7.59869910E+00 -1.51973982E+01
  7.59869910E+00  7.59869910E+00 -1.51973982E+01  7.59869910E+00  7.59869910E+00
 -1.51973982E+01  7.59869910E+00  7.59869910E+00 -1.51973982E+01  7.59869910E+00
  7.59869910E+00 -1.51973982E+01  7.59869910E+00  7.59869910E+00 -1.51973982E+01
  7.59869910E+00  7.59869910E+00 -1.51973982E+01  7.59869910E+00  7.59869910E+00
 -1.51973982E+01  7.59869910E+00  7.59869910E+00 -1.51973982E+01  7.59869910E+00
  7.59869910E+00 -1.51973982E+01  7.59869910E+00  7.59869910E+00 -1.51973982E+01
  7.59869910E+00  7.59869910E+00 -1.51973982E+01  7.59869910E+00  7.59869910E+00
 -1.51973982E+01  7.59869910E+00  7.59869910E+00 -1.51973982E+01  7.59869910E+00
  7.59869910E+00 -1.51973982E+01  7.59869910E+00  7.59869910E+00 -1.51973982E+01
  7.59869910E+00  7.59869910E+00 -1.51973982E+01  7.59869910E+00  7.59869910E+00
 -1.51973982E+01  7.59869910E+00  7.59869910E+00 -1.51973982E+01  7.59869910E+00
  7.59869910E+00 -1.51973982E+01  7.59869910E+00  7.59869910E+00 -1.51973982E+01
  7.59869910E+00  7.59869910E+00 -1.51973982E+01  7.59869910E+00  7.59869910E+00
 -1.51973982E+01  7.59869910E+00  7.59869910E+00 -1.51973982E+01  7.59869910E+00
  7.59869910E+00 -1.51973982E+01  7.59869910E+00  7.59869910E+00 -1.51973982E+01
  7.59869910E+00  7.59869910E+00 -1.51973982E+01  7.59869910E+00  7.59869910E+00
 -1.51973982E+01  7.59869910E+00  7.59869910E+00 -1.51973982E+01  7.59869910E+00
  7.59869910E+00 -1.51973982E+01  7.59869910E+00  7.59869910E+00 -1.51973982E+01
  7.59869910E+00  7.59869910E+00 -1.51973982E+01  7.59869910E+00  7.59869910E+00
 -1.51973982E+01  7.59869910E+00  7.59869910E+00 -1.51973982E+01  7.59869910E+00
  7.59869910E+00 -1.51973982E+01  7.59869910E+00  7.59869910E+00 -1.51973982E+01
  7.59869910E+00  7.59869910E+00 -1.51973982E+01  7.59869910E+00  7.59869910E+00
 -1.51973982E+01  7.59869910E+00  7.59869910E+00 -1.51973982E+01  7.59869910E+00
  7.59869910E+00 -1.51973982E+01  7.59869910E+00  7.59869910E+00 -1.51973982E+01
  7.59869910E+00  7.59869910E+00 -1.51973982E+01  7.59869910E+00  7.59869910E+00
 -1.51973982E+01  7.59869910E+00  7.59869910E+00 -1.51973982E+01  7.59869910E+00
  7.59869910E+00 -1.51973982E+01  7.59869910E+00  7.59869910E+00 -1.51973982E+01
  7.59869910E+00  7.59869910E+00 -1.51973982E+01  7.59869910E+00  7.59869910E+00
 -1.51973982E+01  7.59869910E+00  7.59869910E+00 -1.51973982E+01  7.59869910E+00
  7.59869910E+00 -1.51973982E+01  7.59869910E+00  7.59869910E+00 -1.51973982E+01
  7.59869910E+00  7.59869910E+00 -1.51973982E+01  7.59869910E+00  7.59869910E+00
 -1.51973982E+01  7.59869910E+00  7.59869910E+00 -1.51973982E+01  7.59869910E+00
  7.59869910E+00 -1.51973982E+01  7.59869910E+00  7.59869910E+00 -1.51973982E+01
  7.59869910E+00  7.59869910E+00 -1.51973982E+01  7.59869910E+00  7.59869910E+00
 -1.51973982E+01  7.59869910E+00  7.59869910E+00 -1.51973982E+01  7.59869910E+00
  7.59869910E+00 -1.51973982E+01  7.59869910E+00  7.59869910E+00 -1.51973982E+01
  7.59869910E+00  7.59869910E+00 -1.51973982E+01  7.59869910E+00  7.59869910E+00
 -1.51973982E+01  7.59869910E+00  7.59869910E+00 -1.51973982E+01  7.59869910E+00
  7.59869910E+00 -1.51973982E+01  7.59869910E+00  7.59869910E+00 -1.51973982E+01
  7.59869910E+00  7.59869910E+00 -1.51973982E+01  7.59869910E+00  7.59869910E+00
 -1.51973982E+01  7.59869910E+00  7.59869910E+00 -1.51973982E+01  7.59869910E+00
  7.59869910E+00 -1.51973982E+01  7.59869910E+00  7.59869910E+00 -1.51973982E+01
  7.59869910E+00  7.59869910E+00 -1.51973982E+01  7.59869910E+00  7.59869910E+00
 -1.51973982E+01  7.59869910E+00  7.59869910E+00 -1.51973982E+01  7.59869910E+00
  7.59869910E+00 -1.51973982E+01  7.59869910E+00  7.59869910E+00 -1.51973982E+01
  7.59869910E+00  7.59869910E+00 -1.51973982E+01  7.59869910E+00  7.59869910E+00
 -1.51973982E+01  7.59869910E+00  7.59869910E+00 -1.51973982E+01  7.59869910E+00
  7.59869910E+00 -1.51973982E+01  7.59869910E+00  7.59869910E+00 -1.51973982E+01
  7.59869910E+00  7.59869910E+00 -1.51973982E+01  7.59869910E+00  7.59869910E+00
 -1.51973982E+01  7.59869910E+00  7.59869910E+00 -1.51973982E+01  7.59869910E+00
  7.59869910E+00 -1.51973982E+01  7.59869910E+00  7.59869910E+00 -1.51973982E+01
  7.59869910E+00  7.59869910E+00 -1.51973982E+01  7.59869910E+00  7.59869910E+00
 -1.51973982E+01  7.59869910E+00  7.59869910E+00 -1.51973982E+01  7.59869910E+00
  7.59869910E+00 -1.51973982E+01  7.59869910E+00  7.59869910E+00 -1.51973982E+01
  7.59869910E+00  7.59869910E+00 -1.51973982E+01  7.59869910E+00  7.59869910E+00
 -1.51973982E+01  7.59869910E+00  7.59869910E+00 -1.51973982E+01  7.59869910E+00
  7.59869910E+00 -1.51973982E+01  7.59869910E+00  7.59869910E+00 -1.51973982E+01
  7.59869910E+00  7.59869910E+00 -1.51973982E+01  7.59869910E+00  7.59869910E+00
 -1.51973982E+01  7.59869910E+00  7.59869910E+00 -1.51973982E+01  7.59869910E+00
  7.59869910E+00 -1.51973982E+01  7.59869910E+00  7.59869910E+00 -1.51973982E+01
  7.59869910E+00  7.59869910E+00 -1.51973982E+01  7.59869910E+00  7.59869910E+00
 -1.51973982E+01  7.59869910E+00  7.59869910E+00 -1.51973982E+01  7.59869910E+00
  7.59869910E+00 -1.51973982E+01  7.59869910E+00  7.59869910E+00 -1.51973982E+01
  7.59869910E+00  7.59869910E+00 -1.51973982E+01  7.59869910E+00  7.59869910E+00
 -1.51973982E+01  7.59869910E+00  7.59869910E+00 -1.51973982E+01  7.59869910E+00
  7.59869910E+00 -1.51973982E+01  7.59869910E+00  7.59869910E+00 -1.51973982E+01
  7.59869910E+00  7.59869910E+00 -1.51973982E+01  7.59869910E+00  7.59869910E+00
 -1.51973982E+01  7.59869910E+00  7.59869910E+00 -1.51973982E+01  7.59869910E+00
  7.59869910E+00 -1.51973982E+01  7.59869910E+00  7.59869910E+00 -1.51973982E+01
  7.59869910E+00  7.59869910E+00 -1.51973982E+01  7.59869910E+00  7.59869910E+00
 -1.51973982E+01  7.59869910E+00  7.59869910E+00 -1.51973982E+01  7.59869910E+00
  7.59869910E+00 -1.51973982E+01  7.59869910E+00  7.59869910E+00 -1.51973982E+01
  7.59869910E+00  7.59869910E+00 -1.51973982E+01  7.59869910E+00  7.59869910E+00
 -1.51973982E+01  7.59869910E+00  7.59869910E+00 -1.51973982E+01  7.59869910E+00
  7.59869910E+00 -1.51973982E+01  7.59869910E+00  7.59869910E+00 -1.51973982E+01
  7.59869910E+00  7.59869910E+00 -1.51973982E+01  7.59869910E+00  7.59869910E+00
 -1.51973982E+01  7.59869910E+00  7.59869910E+00 -1.51973982E+01  7.59869910E+00
  7.59869910E+00 -1.51973982E+01  7.59869910E+00  7.59869910E+00 -1.51973982E+01
  7.59869910E+00  7.59869910E+00 -1.51973982E+01  7.59869910E+00  7.59869910E+00
 -1.51973982E+01  7.59869910E+00  7.59869910E+00 -1.51973982E+01  7.59869910E+00
  7.59869910E+00 -1.51973982E+01  7.59869910E+00  7.59869910E+00 -1.51973982E+01
  7.59869910E+00  7.59869910E+00 -1.51973982E+01  7.59869910E+00  7.59869910E+00
 -1.51973982E+01  7.59869910E+00  7.59869910E+00 -1.51973982E+01  7.59869910E+00
  7.59869910E+00 -1.51973982E+01  7.59869910E+00  7.59869910E+00 -1.51973982E+01
  7.59869910E+00  7.59869910E+00 -1.51973982E+01  7.59869910E+00  7.59869910E+00
 -1.51973982E+01  7.59869910E+00  7.59869910E+00 -1.51973982E+01  7.59869910E+00
  7.59869910E+00 -1.51973982E+01  7.59869910E+00  7.59869910E+00 -1.51973982E+01
  7.59869910E+00  7.59869910E+00 -1.51973982E+01  7.59869910E+00  7.59869910E+00
 -1.51973982E+01  7.59869910E+00  7.59869910E+00 -1.51973982E+01  7.59869910E+00
  7.59869910E+00 -1.51973982E+01  7.59869910E+00  7.59869910E+00 -1.51973982E+01
  7.59869910E+00  7.59869910E+00 -1.51973982E+01  7.59869910E+00  7.59869910E+00
 -1.51973982E+01  7.59869910E+00  7.59869910E+00 -1.51973982E+01  7.59869910E+00
  7.59869910E+00 -1.51973982E+01  7.59869910E+00  7.59869910E+00 -1.51973982E+01
  7.59869910E+00  7.59869910E+00 -1.51973982E+01  7.59869910E+00  7.59869910E+00
 -1.51973982E+01  7.59869910E+00  7.59869910E+00 -1.51973982E+01  7.59869910E+00
  7.59869910E+00 -1.51973982E+01  7.59869910E+00  7.59869910E+00 -1.51973982E+01
  7.59869910E+00  7.59869910E+00 -1.51973982E+01  7.59869910E+00  7.59869910E+00
 -1.51973982E+01  7.59869910E+00  7.59869910E+00 -1.51973982E+01  7.59869910E+00
  7.59869910E+00 -1.51973982E+01  7.59869910E+00  7.59869910E+00 -1.51973982E+01
  7.59869910E+00  7.59869910E+00 -1.51973982E+01  7.59869910E+00  7.59869910E+00
 -1.51973982E+01  7.59869910E+00  7.59869910E+00 -1.51973982E+01  7.59869910E+00
  7.59869910E+00 -1.51973982E+01  7.59869910E+00  7.59869910E+00 -1.51973982E+01
  7.59869910E+00  7.59869910E+00 -1.51973982E+01  7.59869910E+00  7.59869910E+00
 -1.51973982E+01  7.59869910E+00  7.59869910E+00 -1.51973982E+01  7.59869910E+00
  7.59869910E+00 -1.51973982E+01  7.59869910E+00  7.59869910E+00 -1.51973982E+01
  7.59869910E+00  7.59869910E+00 -1.51973982E+01  7.59869910E+00  7.59869910E+00
 -1.51973982E+01  7.59869910E+00  7.59869910E+00 -1.51973982E+01  7.59869910E+00
  7.59869910E+00 -1.51973982E+01  7.59869910E+00  7.59869910E+00 -1.51973982E+01
  7.59869910E+00  7.59869910E+00 -1.51973982E+01  7.59869910E+00  7.59869910E+00
 -1.51973982E+01  7.59869910E+00  7.59869910E+00 -1.51973982E+01  7.59869910E+00
  7.59869910E+00 -1.51973982E+01  7.59869910E+00  7.59869910E+00 -1.51973982E+01
  7.59869910E+00  7.59869910E+00 -1.51973982E+01  7.59869910E+00  7.59869910E+00
 -1.51973982E+01  7.59869910E+00  7.59869910E+00 -1.51973982E+01  7.59869910E+00
  7.59869910E+00 -1.51973982E+01  7.59869910E+00  7.59869910E+00 -1.51973982E+01
  7.59869910E+00  7.59869910E+00 -1.51973982E+01  7.59869910E+00  7.59869910E+00
 -1.51973982E+01  7.59869910E+00  7.59869910E+00 -1.51973982E+01  7.59869910E+00
  7.59869910E+00 -1.51973982E+01  7.59869910E+00  7.59869910E+00 -1.51973982E+01
  7.59869910E+00  7.59869910E+00 -1.51973982E+01  7.59869910E+00  7.59869910E+00
 -1.51973982E+01  7.59869910E+00  7.59869910E+00 -1.51973982E+01  7.59869910E+00
  7.59869910E+00 -1.51973982E+01  7.59869910E+00  7.59869910E+00 -1.51973982E+01
  7.59869910E+00  7.59869910E+00 -1.51973982E+01  7.59869910E+00  7.59869910E+00
 -1.51973982E+01  7.59869910E+00  7.59869910E+00 -1.51973982E+01  7.59869910E+00
  7.59869910E+00 -1.51973982E+01  7.59869910E+00  7.59869910E+00 -1.51973982E+01
  7.59869910E+00  7.59869910E+00 -1.51973982E+01  7.59869910E+00  7.59869910E+00
 -1.51973982E+01  7.59869910E+00  7.59869910E+00 -1.51973982E+01  7.59869910E+00
  7.59869910E+00 -1.51973982E+01  7.59869910E+00  7.59869910E+00 -1.51973982E+01
  7.59869910E+00  7.59869910E+00 -1.51973982E+01  7.59869910E+00  7.59869910E+00
 -1.51973982E+01  7.59869910E+00  7.59869910E+00 -1.51973982E+01  7.59869910E+00
  7.59869910E+00 -1.51973982E+01  7.59869910E+00  7.59869910E+00 -1.51973982E+01
  7.59869910E+00  7.59869910E+00 -1.51973982E+01  7.59869910E+00  7.59869910E+00
 -1.51973982E+01  7.59869910E+00  7.59869910E+00 -1.51973982E+01  7.59869910E+00
  7.59869910E+00 -1.51973982E+01  7.59869910E+00  7.59869910E+00 -1.51973982E+01
  7.59869910E+00  7.59869910E+00 -1.51973982E+01  7.59869910E+00  7.59869910E+00
 -1.51973982E+01  7.59869910E+00  7.59869910E+00 -1.51973982E+01  7.59869910E+00
  7.59869910E+00 -1.51973982E+01  7.59869910E+00  7.59869910E+00 -1.51973982E+01
  7.59869910E+00  7.59869910E+00 -1.51973982E+01  7.59869910E+00  7.59869910E+00
 -1.51973982E+01  7.59869910E+00  7.59869910E+00 -1.51973982E+01  7.59869910E+00
  7.59869910E+00 -1.51973982E+01  7.59869910E+00  7.59869910E+00 -1.51973982E+01
  7.59869910E+00  7.59869910E+00 -1.51973982E+01  7.59869910E+00  7.59869910E+00
 -1.51973982E+01  7.59869910E+00  7.59869910E+00 -1.51973982E+01  7.59869910E+00
  7.59869910E+00 -1.51973982E+01  7.59869910E+00  7.59869910E+00 -1.51973982E+01
  7.59869910E+00  7.59869910E+00 -1.51973982E+01  7.59869910E+00  7.59869910E+00
 -1.51973982E+01  7.59869910E+00  7.59869910E+00 -1.51973982E+01  7.59869910E+00
  7.59869910E+00 -1.51973982E+01  7.59869910E+00  7.59869910E+00 -1.51973982E+01
  7.59869910E+00  7.59869910E+00 -1.51973982E+01  7.59869910E+00  7.59869910E+00
 -1.51973982E+01  7.59869910E+00  7.59869910E+00 -1.51973982E+01  7.59869910E+00
  7.59869910E+00 -1.51973982E+01  7.59869910E+00  7.59869910E+00 -1.51973982E+01
  7.59869910E+00  7.59869910E+00 -1.51973982E+01  7.59869910E+00  7.59869910E+00
 -1.51973982E+01  7.59869910E+00  7.59869910E+00 -1.51973982E+01  7.59869910E+00
  7.59869910E+00 -1.51973982E+01  7.59869910E+00  7.59869910E+00 -1.51973982E+01
  7.59869910E+00  7.59869910E+00 -1.51973982E+01  7.59869910E+00  7.59869910E+00
 -1.51973982E+01  7.59869910E+00  7.59869910E+00 -1.51973982E+01  7.59869910E+00
  7.59869910E+00 -1.51973982E+01  7.59869910E+00  7.59869910E+00 -1.51973982E+01
  7.59869910E+00  7.59869910E+00 -1.51973982E+01  7.59869910E+00  7.59869910E+00
 -1.51973982E+01  7.59869910E+00  7.59869910E+00 -1.51973982E+01  7.59869910E+00
  7.59869910E+00 -1.51973982E+01  7.59869910E+00  7.59869910E+00 -1.51973982E+01
  7.59869910E+00  7.59869910E+00 -1.51973982E+01  7.59869910E+00  7.59869910E+00
 -1.51973982E+01  7.59869910E+00  7.59869910E+00 -1.51973982E+01  7.59869910E+00
  7.59869910E+00 -1.51973982E+01  7.59869910E+00  7.59869910E+00 -1.51973982E+01
  7.59869910E+00  7.59869910E+00 -1.51973982E+01  7.59869910E+00  7.59869910E+00
 -1.51973982E+01  7.59869910E+00  7.59869910E+00 -1.51973982E+01  7.59869910E+00
  7.59869910E+00 -1.51973982E+01  7.59869910E+00  7.59869910E+00 -1.51973982E+01
  7.59869910E+00  7.59869910E+00 -1.51973982E+01  7.59869910E+00  7.59869910E+00
 -1.51973982E+01  7.59869910E+00  7.59869910E+00 -1.51973982E+01  7.59869910E+00
  7.59869910E+00 -1.51973982E+01  7.59869910E+00  7.59869910E+00 -1.51973982E+01
  7.59869910E+00  7.59869910E+00 -1.51973982E+01  7.59869910E+00  7.59869910E+00
 -1.51973982E+01  7.59869910E+00  7.59869910E+00 -1.51973982E+01  7.59869910E+00
  7.59869910E+00 -1.51973982E+01  7.59869910E+00  7.59869910E+00 -1.51973982E+01
  7.59869910E+00  7.59869910E+00 -1.51973982E+01  7.59869910E+00  7.59869910E+00
 -1.51973982E+01  7.59869910E+00  7.59869910E+00 -1.51973982E+01  7.59869910E+00
  7.59869910E+00 -1.51973982E+01  7.59869910E+00  7.59869910E+00 -1.51973982E+01
  7.59869910E+00  7.59869910E+00 -1.51973982E+01  7.59869910E+00  7.59869910E+00
 -1.51973982E+01  7.59869910E+00  7.59869910E+00 -1.51973982E+01  7.59869910E+00
  7.59869910E+00 -1.51973982E+01  7.59869910E+00  7.59869910E+00 -1.51973982E+01
  7.59869910E+00  7.59869910E+00 -1.51973982E+01  7.59869910E+00  7.59869910E+00
 -1.51973982E+01  7.59869910E+00  7.59869910E+00 -1.51973982E+01  7.59869910E+00
  7.59869910E+00 -1.51973982E+01  7.59869910E+00  7.59869910E+00 -1.51973982E+01
  7.59869910E+00  7.59869910E+00 -1.51973982E+01  7.59869910E+00  7.59869910E+00
 -1.51973982E+01  7.59869910E+00  7.59869910E+00 -1.51973982E+01  7.59869910E+00
  7.59869910E+00 -1.51973982E+01  7.59869910E+00  7.59869910E+00 -1.51973982E+01
  7.59869910E+00  7.59869910E+00 -1.51973982E+01  7.59869910E+00  7.59869910E+00
 -1.51973982E+01  7.59869910E+00  7.59869910E+00 -1.51973982E+01  7.59869910E+00
  7.59869910E+00 -1.51973982E+01  7.59869910E+00  7.59869910E+00 -1.51973982E+01
  7.59869910E+00  7.59869910E+00 -1.51973982E+01  7.59869910E+00  7.59869910E+00
 -1.51973982E+01  7.59869910E+00  7.59869910E+00 -1.51973982E+01  7.59869910E+00
  7.59869910E+00 -1.51973982E+01  7.59869910E+00  7.59869910E+00 -1.51973982E+01
  7.59869910E+00  7.59869910E+00 -1.51973982E+01  7.59869910E+00  7.59869910E+00
 -1.51973982E+01  7.59869910E+00  7.59869910E+00 -1.51973982E+01  7.59869910E+00
  7.59869910E+00 -1.51973982E+01  7.59869910E+00  7.59869910E+00 -1.51973982E+01
  7.59869910E+00  7.59869910E+00 -1.51973982E+01  7.59869910E+00  7.59869910E+00
 -1.51973982E+01  7.59869910E+00  7.59869910E+00 -1.51973982E+01  7.59869910E+00
  7.59869910E+00 -1.51973982E+01  7.59869910E+00  7.59869910E+00 -1.51973982E+01
  7.59869910E+00  7.59869910E+00 -1.51973982E+01  7.59869910E+00  7.59869910E+00
 -1.51973982E+01  7.59869910E+00  7.59869910E+00 -1.51973982E+01  7.59869910E+00
  7.59869910E+00 -1.51973982E+01  7.59869910E+00  7.59869910E+00 -1.51973982E+01
  7.59869910E+00  7.59869910E+00 -1.51973982E+01  7.59869910E+00  7.59869910E+00
 -1.51973982E+01  7.59869910E+00  7.59869910E+00 -1.51973982E+01  7.59869910E+00
  7.59869910E+00 -1.51973982E+01  7.59869910E+00  7.59869910E+00 -1.51973982E+01
  7.59869910E+00  7.59869910E+00 -1.51973982E+01  7.59869910E+00  7.59869910E+00
 -1.51973982E+01  7.59869910E+00  7.59869910E+00 -1.51973982E+01  7.59869910E+00
  7.59869910E+00 -1.51973982E+01  7.59869910E+00  7.59869910E+00 -1.51973982E+01
  7.59869910E+00  7.59869910E+00 -1.51973982E+01  7.59869910E+00  7.59869910E+00
 -1.51973982E+01  7.59869910E+00  7.59869910E+00 -1.51973982E+01  7.59869910E+00
  7.59869910E+00 -1.51973982E+01  7.59869910E+00  7.59869910E+00 -1.51973982E+01
  7.59869910E+00  7.59869910E+00 -1.51973982E+01  7.59869910E+00  7.59869910E+00
 -1.51973982E+01  7.59869910E+00  7.59869910E+00 -1.51973982E+01  7.59869910E+00
  7.59869910E+00 -1.51973982E+01  7.59869910E+00  7.59869910E+00 -1.51973982E+01
  7.59869910E+00  7.59869910E+00 -1.51973982E+01  7.59869910E+00  7.59869910E+00
 -1.51973982E+01  7.59869910E+00  7.59869910E+00 -1.51973982E+01  7.59869910E+00
  7.59869910E+00 -1.51973982E+01  7.59869910E+00  7.59869910E+00 -1.51973982E+01
  7.59869910E+00  7.59869910E+00 -1.51973982E+01  7.59869910E+00  7.59869910E+00
 -1.51973982E+01  7.59869910E+00  7.59869910E+00 -1.51973982E+01  7.59869910E+00
  7.59869910E+00 -1.51973982E+01  7.59869910E+00  7.59869910E+00 -1.51973982E+01
  7.59869910E+00  7.59869910E+00 -1.51973982E+01  7.59869910E+00  7.59869910E+00
 -1.51973982E+01  7.59869910E+00  7.59869910E+00 -1.51973982E+01  7.59869910E+00
  7.59869910E+00 -1.51973982E+01  7.59869910E+00  7.59869910E+00 -1.51973982E+01
  7.59869910E+00  7.59869910E+00 -1.51973982E+01  7.59869910E+00  7.59869910E+00
 -1.51973982E+01  7.59869910E+00  7.59869910E+00 -1.51973982E+01  7.59869910E+00
  7.59869910E+00 -1.51973982E+01  7.59869910E+00  7.59869910E+00 -1.51973982E+01
  7.59869910E+00  7.59869910E+00 -1.51973982E+01  7.59869910E+00  7.59869910E+00
 -1.51973982E+01  7.59869910E+00  7.59869910E+00 -1.51973982E+01  7.59869910E+00
  7.59869910E+00 -1.51973982E+01  7.59869910E+00  7.59869910E+00 -1.51973982E+01
  7.59869910E+00  7.59869910E+00 -1.51973982E+01  7.59869910E+00  7.59869910E+00
 -1.51973982E+01  7.59869910E+00  7.59869910E+00 -1.51973982E+01  7.59869910E+00
  7.59869910E+00 -1.51973982E+01  7.59869910E+00  7.59869910E+00 -1.51973982E+01
  7.59869910E+00  7.59869910E+00 -1.51973982E+01  7.59869910E+00  7.59869910E+00
 -1.51973982E+01  7.59869910E+00  7.59869910E+00 -1.51973982E+01  7.59869910E+00
  7.59869910E+00 -1.51973982E+01  7.59869910E+00  7.59869910E+00 -1.51973982E+01
  7.59869910E+00  7.59869910E+00 -1.51973982E+01  7.59869910E+00  7.59869910E+00
 -1.51973982E+01  7.59869910E+00  7.59869910E+00 -1.51973982E+01  7.59869910E+00
  7.59869910E+00 -1.51973982E+01  7.59869910E+00  7.59869910E+00 -1.51973982E+01
  7.59869910E+00  7.59869910E+00 -1.51973982E+01  7.59869910E+00  7.59869910E+00
 -1.51973982E+01  7.59869910E+00  7.59869910E+00 -1.51973982E+01  7.59869910E+00
  7.59869910E+00 -1.51973982E+01  7.59869910E+00  7.59869910E+00 -1.51973982E+01
  7.59869910E+00  7.59869910E+00 -1.51973982E+01  7.59869910E+00  7.59869910E+00
 -1.51973982E+01  7.59869910E+00  7.59869910E+00 -1.51973982E+01  7.59869910E+00
  7.59869910E+00 -1.51973982E+01  7.59869910E+00  7.59869910E+00 -1.51973982E+01
  7.59869910E+00  7.59869910E+00 -1.51973982E+01  7.59869910E+00  7.59869910E+00
 -1.51973982E+01  7.59869910E+00  7.59869910E+00 -1.51973982E+01  7.59869910E+00
  7.59869910E+00 -1.51973982E+01  7.59869910E+00  7.59869910E+00 -1.51973982E+01
  7.59869910E+00  7.59869910E+00 -1.51973982E+01  7.59869910E+00  7.59869910E+00
 -1.51973982E+01  7.59869910E+00  7.59869910E+00 -1.51973982E+01  7.59869910E+00
  7.59869910E+00 -1.51973982E+01  7.59869910E+00  7.59869910E+00 -1.51973982E+01
  7.59869910E+00  7.59869910E+00 -1.51973982E+01  7.59869910E+00  7.59869910E+00
 -1.51973982E+01  7.59869910E+00  7.59869910E+00 -1.51973982E+01  7.59869910E+00
  7.59869910E+00 -1.51973982E+01  7.59869910E+00  7.59869910E+00 -1.51973982E+01
  7.59869910E+00  7.59869910E+00 -1.51973982E+01  7.59869910E+00  7.59869910E+00
 -1.51973982E+01  7.59869910E+00  7.59869910E+00 -1.51973982E+01  7.59869910E+00
  7.59869910E+00 -1.51973982E+01  7.59869910E+00  7.59869910E+00 -1.51973982E+01
  7.59869910E+00  7.59869910E+00 -1.51973982E+01  7.59869910E+00  7.59869910E+00
 -1.51973982E+01  7.59869910E+00  7.59869910E+00 -1.51973982E+01  7.59869910E+00
  7.59869910E+00 -1.51973982E+01  7.59869910E+00  7.59869910E+00 -1.51973982E+01
  7.59869910E+00  7.59869910E+00 -1.51973982E+01  7.59869910E+00  7.59869910E+00
 -1.51973982E+01  7.59869910E+00  7.59869910E+00 -1.51973982E+01  7.59869910E+00
  7.59869910E+00 -1.51973982E+01  7.59869910E+00  7.59869910E+00 -1.51973982E+01
  7.59869910E+00  7.59869910E+00 -1.51973982E+01  7.59869910E+00  7.59869910E+00
 -1.51973982E+01  7.59869910E+00  7.59869910E+00 -1.51973982E+01  7.59869910E+00
  7.59869910E+00 -1.51973982E+01  7.59869910E+00  7.59869910E+00 -1.51973982E+01
  7.59869910E+00  7.59869910E+00 -1.51973982E+01  7.59869910E+00  7.59869910E+00
 -1.51973982E+01  7.59869910E+00  7.59869910E+00 -1.51973982E+01  7.59869910E+00
  7.59869910E+00 -1.51973982E+01  7.59869910E+00  7.59869910E+00 -1.51973982E+01
  7.59869910E+00  7.59869910E+00 -1.51973982E+01  7.59869910E+00  7.59869910E+00
 -1.51973982E+01  7.59869910E+00  7.59869910E+00 -1.51973982E+01  7.59869910E+00
  7.59869910E+00 -1.51973982E+01  7.59869910E+00  7.59869910E+00 -1.51973982E+01
  7.59869910E+00  7.59869910E+00 -1.51973982E+01  7.59869910E+00  7.59869910E+00
 -1.51973982E+01  7.59869910E+00  7.59869910E+00 -1.51973982E+01  7.59869910E+00
  7.59869910E+00 -1.51973982E+01  7.59869910E+00  7.59869910E+00 -1.51973982E+01
  7.59869910E+00  7.59869910E+00 -1.51973982E+01  7.59869910E+00  7.59869910E+00
 -1.51973982E+01  7.59869910E+00  7.59869910E+00 -1.51973982E+01  7.59869910E+00
  7.59869910E+00 -1.51973982E+01  7.59869910E+00  7.59869910E+00 -1.51973982E+01
  7.59869910E+00  7.59869910E+00 -1.51973982E+01  7.59869910E+00  7.59869910E+00
 -1.51973982E+01  7.59869910E+00  7.59869910E+00 -1.51973982E+01  7.59869910E+00
  7.59869910E+00 -1.51973982E+01  7.59869910E+00  7.59869910E+00 -1.51973982E+01
  7.59869910E+00  7.59869910E+00 -1.51973982E+01  7.59869910E+00  7.59869910E+00
 -1.51973982E+01  7.59869910E+00  7.59869910E+00 -1.51973982E+01  7.59869910E+00
  7.59869910E+00 -1.51973982E+01  7.59869910E+00  7.59869910E+00 -1.51973982E+01
  7.59869910E+00  7.59869910E+00 -1.51973982E+01  7.59869910E+00  7.59869910E+00
 -1.51973982E+01  7.59869910E+00  7.59869910E+00 -1.51973982E+01  7.59869910E+00
  7.59869910E+00 -1.51973982E+01  7.59869910E+00  7.59869910E+00 -1.51973982E+01
  7.59869910E+00  7.59869910E+00 -1.51973982E+01  7.59869910E+00  7.59869910E+00
 -1.51973982E+01  7.59869910E+00  7.59869910E+00 -1.51973982E+01  7.59869910E+00
  7.59869910E+00 -1.51973982E+01  7.59869910E+00  7.59869910E+00 -1.51973982E+01
  7.59869910E+00  7.59869910E+00 -1.51973982E+01  7.59869910E+00  7.59869910E+00
 -1.51973982E+01  7.59869910E+00  7.59869910E+00 -1.51973982E+01  7.59869910E+00
  7.59869910E+00 -1.51973982E+01  7.59869910E+00  7.59869910E+00 -1.51973982E+01
  7.59869910E+00  7.59869910E+00 -1.51973982E+01  7.59869910E+00  7.59869910E+00
 -1.51973982E+01  7.59869910E+00  7.59869910E+00 -1.51973982E+01  7.59869910E+00
  7.59869910E+00 -1.51973982E+01  7.59869910E+00  7.59869910E+00 -1.51973982E+01
  7.59869910E+00  7.59869910E+00 -1.51973982E+01  7.59869910E+00  7.59869910E+00
 -1.51973982E+01  7.59869910E+00  7.59869910E+00 -1.51973982E+01  7.59869910E+00
  7.59869910E+00 -1.51973982E+01  7.59869910E+00  7.59869910E+00 -1.51973982E+01
  7.59869910E+00  7.59869910E+00 -1.51973982E+01  7.59869910E+00  7.59869910E+00
 -1.51973982E+01  7.59869910E+00  7.59869910E+00 -1.51973982E+01  7.59869910E+00
  7.59869910E+00 -1.51973982E+01  7.59869910E+00  7.59869910E+00 -1.51973982E+01
  7.59869910E+00  7.59869910E+00 -1.51973982E+01  7.59869910E+00  7.59869910E+00
 -1.51973982E+01  7.59869910E+00  7.59869910E+00 -1.51973982E+01  7.59869910E+00
  7.59869910E+00 -1.51973982E+01  7.59869910E+00  7.59869910E+00 -1.51973982E+01
  7.59869910E+00  7.59869910E+00 -1.51973982E+01  7.59869910E+00  7.59869910E+00
 -1.51973982E+01  7.59869910E+00  7.59869910E+00 -1.51973982E+01  7.59869910E+00
  7.59869910E+00 -1.51973982E+01  7.59869910E+00  7.59869910E+00 -1.51973982E+01
  7.59869910E+00  7.59869910E+00 -1.51973982E+01  7.59869910E+00  7.59869910E+00
 -1.51973982E+01  7.59869910E+00  7.59869910E+00 -1.51973982E+01  7.59869910E+00
  7.59869910E+00 -1.51973982E+01  7.59869910E+00  7.59869910E+00 -1.51973982E+01
  7.59869910E+00  7.59869910E+00 -1.51973982E+01  7.59869910E+00  7.59869910E+00
 -1.51973982E+01  7.59869910E+00  7.59869910E+00 -1.51973982E+01  7.59869910E+00
  7.59869910E+00 -1.51973982E+01  7.59869910E+00  7.59869910E+00 -1.51973982E+01
  7.59869910E+00  7.59869910E+00 -1.51973982E+01  7.59869910E+00  7.59869910E+00
 -1.51973982E+01  7.59869910E+00  7.59869910E+00 -1.51973982E+01  7.59869910E+00
  7.59869910E+00 -1.51973982E+01  7.59869910E+00  7.59869910E+00 -1.51973982E+01
  7.59869910E+00  7.59869910E+00 -1.51973982E+01  7.59869910E+00  7.59869910E+00
 -1.51973982E+01  7.59869910E+00  7.59869910E+00 -1.51973982E+01  7.59869910E+00
  7.59869910E+00 -1.51973982E+01  7.59869910E+00  7.59869910E+00 -1.51973982E+01
  7.59869910E+00  7.59869910E+00 -1.51973982E+01  7.59869910E+00  7.59869910E+00
 -1.51973982E+01  7.59869910E+00  7.59869910E+00 -1.51973982E+01  7.59869910E+00
  7.59869910E+00 -1.51973982E+01  7.59869910E+00  7.59869910E+00 -1.51973982E+01
  7.59869910E+00  7.59869910E+00 -1.51973982E+01  7.59869910E+00  7.59869910E+00
 -1.51973982E+01  7.59869910E+00  7.59869910E+00 -1.51973982E+01  7.59869910E+00
  7.59869910E+00 -1.51973982E+01  7.59869910E+00  7.59869910E+00 -1.51973982E+01
  7.59869910E+00  7.59869910E+00 -1.51973982E+01  7.59869910E+00  7.59869910E+00
 -1.51973982E+01  7.59869910E+00  7.59869910E+00 -1.51973982E+01  7.59869910E+00
  7.59869910E+00
%FLAG ATOMIC_NUMBER                                                             
%FORMAT(10I8)                                                                   
       1       6       1       1       6       8       7       1       6       1
       6       1       1       6       1       1       6       8       7       1
       1       6       8       7       1       6       1       6       1       1
      16       6       8       7       1       6       1       6       1       1
      16       6       8       7       1       6       1       6       1       6
       1       1       1       8       1       6       8       7       1       6
       1       6       1       1       8       1       6       8       7       1
       6       1       6       1       6       1       1       1       6       1
       1       6       1       1       1       6       8       7       1       6
       1       6       1       1      16       6       8       7       1       6
       1       6       1       1       8       1       6       8       7       1
       6       1       6       1       1       6       1       6       1       1
       1       6       1       1       1       6       8       7       1       6
       1       6       1       1       6       6       1       6       1       6
       8       1       6       1       6       1       6       8       7       1
       6       1       6       1       1       6       1       1       6       8
       7       1       1       6       8       7       1       6       1       6
       1       1       6       1       6       1       1       1       6       1
       1       1       6       8       7       1       6       1       6       1
       1       6       1       1       6       8       8       1       6       8
       1       1       1       7       1       6       1       6       1       1
       6       8       7       1       1       6       8       7       1       6
       1       6       1       1       6       6       1       6       1       6
       8       1       6       1       6       1       6       8       7       1
       6       1       6       1       1      16       6       8       7       1
       6       1       1       1       1       6       1       1       6       8
       7       1       6       1       6       1       1       6       7       1
       6       1       7       1       6       1       6       8       7       1
       6       1       6       1       1       6       1       6       1       1
       1       6       1       1       1       6       8       7       1       6
       1       6       1       1      16       6       8       7       1       6
       1       1       6       8       7       1       6       1       6       1
       1       8       1       6       8       7       1       6       1       6
       1       1       6       7       1       6       1       7       1       6
       1       6       8       7       1       6       1       6       1       1
       6       1       6       1       1       1       6       1       1       1
       6       8       7       1       6       1       6       1       6       1
       1       1       6       1       1       1       6       8       7       1
       6       1       6       1       1       6       1       1       6       8
       8       1       6       8       1       1       1       7       1       6
       1       6       1       1       1       6       8       7       1       6
       1       6       1       1       6       1       6       1       1       1
       6       1       1       1       6       8       7       1       6       1
       6       1       1       6       6       1       6       1       6       8
       1       6       1       6       1       6       8       7       1       6
       1       6       1       1       6       1       6       1       1       1
       6       1       1       1       6       8       7       1       6       1
       6       1       6       1       1       1       6       1       1       1
       6       8       7       1       6       1       6       1       1      16
       6       8       7       1       6       1       1       6       8       7
       1       6       1       6       1       1       6       1       1       6
       8       8       1       6       8       1       1       1       7       1
       6       1       6       1       1       6       1       1       6       1
       1       7       1       6       7       1       1       7       1       1
       6       8       7       1       6       1       1       6       8       7
       1       6       1       6       1       1       6       6       1       6
       1       6       1       6       1       6       1       6       8       7
       1       6       1       6       1       1       6       6       1       6
       1       6       1       6       1       6       1       6       8       7
       1       6       1       6       1       1       6       6       1       6
       1       6       8       1       6       1       6       1       6       8
       7       1       6       1       6       1       6       1       1       1
       8       1       6       8       7       1       6       1       1       1
       1       6       1       1       6       8       7       1       6       1
       6       1       1       6       1       1       6       8       7       1
       1       6       8       7       1       6       1       6       1       1
      16       6       8       7       1       6       1       6       1       1
      16       6       8       7       1       6       1       6       1       6
       1       1       1       8       1       6       8       7       1       6
       1       6       1       1       8       1       6       8       7       1
       6       1       6       1       6       1       1       1       6       1
       1       6       1       1       1       6       8       7       1       6
       1       6       1       1      16       6       8       7       1       6
       1       6       1       1       8       1       6       8       7       1
       6       1       6       1       1       6       1       6       1       1
       1       6       1       1       1       6       8       7       1       6
       1       6       1       1       6       6       1       6       1       6
       8       1       6       1       6       1       6       8       7       1
       6       1       6       1       1       6       1       1       6       8
       7       1       1       6       8       7       1       6       1       6
       1       1       6       1       6       1       1       1       6       1
       1       1       6       8       7       1       6       1       6       1
       1       6       1       1       6       8       8       1       6       8
       1       1       1       7       1       6       1       6       1       1
       6       8       7       1       1       6       8       7       1       6
       1       6       1       1       6       6       1       6       1       6
       8       1       6       1       6       1       6       8       7       1
       6       1       6       1       1      16       6       8       7       1
       6       1       1       1       1       6       1       1       6       8
       7       1       6       1       6       1       1       6       7       1
       6       1       7       1       6       1       6       8       7       1
       6       1       6       1       1       6       1       6       1       1
       1       6       1       1       1       6       8       7       1       6
       1       6       1       1      16       6       8       7       1       6
       1       1       6       8       7       1       6       1       6       1
       1       8       1       6       8       7       1       6       1       6
       1       1       6       7       1       6       1       7       1       6
       1       6       8       7       1       6       1       6       1       1
       6       1       6       1       1       1       6       1       1       1
       6       8       7       1       6       1       6       1       6       1
       1       1       6       1       1       1       6       8       7       1
       6       1       6       1       1       6       1       1       6       8
       8       1       6       8       1       1       1       7       1       6
       1       6       1       1       1       6       8       7       1       6
       1       6       1       1       6       1       6       1       1       1
       6       1       1       1       6       8       7       1       6       1
       6       1       1       6       6       1       6       1       6       8
       1       6       1       6       1       6       8       7       1       6
       1       6       1       1       6       1       6       1       1       1
       6       1       1       1       6       8       7       1       6       1
       6       1       6       1       1       1       6       1       1       1
       6       8       7       1       6       1       6       1       1      16
       6       8       7       1       6       1       1       6       8       7
       1       6       1       6       1       1       6       1       1       6
       8       8       1       6       8       1       1       1       7       1
       6       1       6       1       1       6       1       1       6       1
       1       7       1       6       7       1       1       7       1       1
       6       8       7       1       6       1       1       6       8       7
       1       6       1       6       1       1       6       6       1       6
       1       6       1       6       1       6       1       6       8       7
       1       6       1       6       1       1       6       6       1       6
       1       6       1       6       1       6       1       6       8       7
       1       6       1       6       1       1       6       6       1       6
       1       6       8       1       6       1       6       1       6       8
       7       1       6       1       6       1       6       1       1       1
       8       1       6       8       7       1       6       1       1       1
       1       6       1       1       6       8       7       1       6       1
       6       1       1       6       1       1       6       8       7       1
       1       6       8       7       1       6       1       6       1       1
      16       6       8       7       1       6       1       6       1       1
      16       6       8       7       1       6       1       6       1       6
       1       1       1       8       1       6       8       7       1       6
       1       6       1       1       8       1       6       8       7       1
       6       1       6       1       6       1       1       1       6       1
       1       6       1       1       1       6       8       7       1       6
       1       6       1       1      16       6       8       7       1       6
       1       6       1       1       8       1       6       8       7       1
       6       1       6       1       1       6       1       6       1       1
       1       6       1       1       1       6       8       7       1       6
       1       6       1       1       6       6       1       6       1       6
       8       1       6       1       6       1       6       8       7       1
       6       1       6       1       1       6       1       1       6       8
       7       1       1       6       8       7       1       6       1       6
       1       1       6       1       6       1       1       1       6       1
       1       1       6       8       7       1       6       1       6       1
       1       6       1       1       6       8       8       1       6       8
       1       1       1       7       1       6       1       6       1       1
       6       8       7       1       1       6       8       7       1       6
       1       6       1       1       6       6       1       6       1       6
       8       1       6       1       6       1       6       8       7       1
       6       1       6       1       1      16       6       8       7       1
       6       1       1       1       1       6       1       1       6       8
       7       1       6       1       6       1       1       6       7       1
       6       1       7       1       6       1       6       8       7       1
       6       1       6       1       1       6       1       6       1       1
       1       6       1       1       1       6       8       7       1       6
       1       6       1       1      16       6       8       7       1       6
       1       1       6       8       7       1       6       1       6       1
       1       8       1       6       8       7       1       6       1       6
       1       1       6       7       1       6       1       7       1       6
       1       6       8       7       1       6       1       6       1       1
       6       1       6       1       1       1       6       1       1       1
       6       8       7       1       6       1       6       1       6       1
       1       1       6       1       1       1       6       8       7       1
       6       1       6       1       1       6       1       1       6       8
       8       1       6       8       1       1       1       7       1       6
       1       6       1       1       1       6       8       7       1       6
       1       6       1       1       6       1       6       1       1       1
       6       1       1       1       6       8       7       1       6       1
       6       1       1       6       6       1       6       1       6       8
       1       6       1       6       1       6       8       7       1       6
       1       6       1       1       6       1       6       1       1       1
       6       1       1       1       6       8       7       1       6       1
       6       1       6       1       1       1       6       1       1       1
       6       8       7       1       6       1       6       1       1      16
       6       8       7       1       6       1       1       6       8       7
       1       6       1       6       1       1       6       1       1       6
       8       8       1       6       8       1       1       1       7       1
       6       1       6       1       1       6       1       1       6       1
       1       7       1       6       7       1       1       7       1       1
       6       8       7       1       6       1       1       6       8       7
       1       6       1       6       1       1       6       6       1       6
       1       6       1       6       1       6       1       6       8       7
       1       6       1       6       1       1       6       6       1       6
       1       6       1       6       1       6       1       6       8       7
       1       6       1       6       1       1       6       6       1       6
       1       6       8       1       6       1       6       1       6       8
       7       1       6       1       6       1       6       1       1       1
       8       1       6       8       7       1       6       1       1       1
       1       6       1       1       6       8       7       1       6       1
       6       1       1       6       1       1       6       8       7       1
       1       6       8       7       1       6       1       6       1       1
      16       6       8       7       1       6       1       6       1       1
      16       6       8       7       1       6       1       6       1       6
       1       1       1       8       1       6       8       7       1       6
       1       6       1       1       8       1       6       8       7       1
       6       1       6       1       6       1       1       1       6       1
       1       6       1       1       1       6       8       7       1       6
       1       6       1       1      16       6       8       7       1       6
       1       6       1       1       8       1       6       8       7       1
       6       1       6       1       1       6       1       6       1       1
       1       6       1       1       1       6       8       7       1       6
       1       6       1       1       6       6       1       6       1       6
       8       1       6       1       6       1       6       8       7       1
       6       1       6       1       1       6       1       1       6       8
       7       1       1       6       8       7       1       6       1       6
       1       1       6       1       6       1       1       1       6       1
       1       1       6       8       7       1       6       1       6       1
       1       6       1       1       6       8       8       1       6       8
       1       1       1       7       1       6       1       6       1       1
       6       8       7       1       1       6       8       7       1       6
       1       6       1       1       6       6       1       6       1       6
       8       1       6       1       6       1       6       8       7       1
       6       1       6       1       1      16       6       8       7       1
       6       1       1       1       1       6       1       1       6       8
       7       1       6       1       6       1       1       6       7       1
       6       1       7       1       6       1       6       8       7       1
       6       1       6       1       1       6       1       6       1       1
       1       6       1       1       1       6       8       7       1       6
       1       6       1       1      16       6       8       7       1       6
       1       1       6       8       7       1       6       1       6       1
       1       8       1       6       8       7       1       6       1       6
       1       1       6       7       1       6       1       7       1       6
       1       6       8       7       1       6       1       6       1       1
       6       1       6       1       1       1       6       1       1       1
       6       8       7       1       6       1       6       1       6       1
       1       1       6       1       1       1       6       8       7       1
       6       1       6       1       1       6       1       1       6       8
       8       1       6       8       1       1       1       7       1       6
       1       6       1       1       1       6       8       7       1       6
       1       6       1       1       6       1       6       1       1       1
       6       1       1       1       6       8       7       1       6       1
       6       1       1       6       6       1       6       1       6       8
       1       6       1       6       1       6       8       7       1       6
       1       6       1       1       6       1       6       1       1       1
       6       1       1       1       6       8       7       1       6       1
       6       1       6       1       1       1       6       1       1       1
       6       8       7       1       6       1       6       1       1      16
       6       8       7       1       6       1       1       6       8       7
       1       6       1       6       1       1       6       1       1       6
       8       8       1       6       8       1       1       1       7       1
       6       1       6       1       1       6       1       1       6       1
       1       7       1       6       7       1       1       7       1       1
       6       8       7       1       6       1       1       6       8       7
       1       6       1       6       1       1       6       6       1       6
       1       6       1       6       1       6       1       6       8       7
       1       6       1       6       1       1       6       6       1       6
       1       6       1       6       1       6       1       6       8       7
       1       6       1       6       1       1       6       6       1       6
       1       6       8       1       6       1       6       1       6       8
       7       1       6       1       6       1       6       1       1       1
       8       1       6       8       7       1       6       1       1       1
       8       1       1       8       1       1       8       1       1       8
       1       1       8       1       1       8       1       1       8       1
       1       8       1       1       8       1       1       8       1       1
       8       1       1       8       1       1       8       1       1       8
       1       1       8       1       1       8       1       1       8       1
       1       8       1       1       8       1       1       8       1       1
       8       1       1       8       1       1       8       1       1       8
       1       1       8       1       1       8       1       1       8       1
       1       8       1       1       8       1       1       8       1       1
       8       1       1       8       1       1       8       1       1       8
       1       1       8       1       1       8       1       1       8       1
       1       8       1       1       8       1       1       8       1       1
       8       1       1       8       1       1       8       1       1       8
       1       1       8       1       1       8       1       1       8       1
       1       8       1       1       8       1       1       8       1       1
       8       1       1       8       1       1       8       1       1       8
       1       1       8       1       1       8       1       1       8       1
       1       8       1       1       8       1       1       8       1       1
       8       1       1       8       1       1       8       1       1       8
       1       1       8       1       1       8       1       1       8       1
       1       8       1       1       8       1       1       8       1       1
       8       1       1       8       1       1       8       1       1       8
       1       1       8       1       1       8       1       1       8       1
       1       8       1       1       8       1       1       8       1       1
       8       1       1       8       1       1       8       1       1       8
       1       1       8       1       1       8       1       1       8       1
       1       8       1       1       8       1       1       8       1       1
       8       1       1       8       1       1       8       1       1       8
       1       1       8       1       1       8       1       1       8       1
       1       8       1       1       8       1       1       8       1       1
       8       1       1       8       1       1       8       1       1       8
       1       1       8       1       1       8       1       1       8       1
       1       8       1       1       8       1       1       8       1       1
       8       1       1       8       1       1       8       1       1       8
       1       1       8       1       1       8       1       1       8       1
       1       8       1       1       8       1       1       8       1       1
       8       1       1       8       1       1       8       1       1       8
       1       1       8       1       1       8       1       1       8       1
       1       8       1       1       8       1       1       8       1       1
       8       1       1       8       1       1       8       1       1       8
       1       1       8       1       1       8       1       1       8       1
       1       8       1       1       8       1       1       8       1       1
       8       1       1       8       1       1       8       1       1       8
       1       1       8       1       1       8       1       1       8       1
       1       8       1       1       8       1       1       8       1       1
       8       1       1       8       1       1       8       1       1       8
       1       1       8       1       1       8       1       1       8       1
       1       8       1       1       8       1       1       8       1       1
       8       1       1       8       1       1       8       1       1       8
       1       1       8       1       1       8       1       1       8       1
       1       8       1       1       8       1       1       8       1       1
       8       1       1       8       1       1       8       1       1       8
       1       1       8       1       1       8       1       1       8       1
       1       8       1       1       8       1       1       8       1       1
       8       1       1       8       1       1       8       1       1       8
       1       1       8       1       1       8       1       1       8       1
       1       8       1       1       8       1       1       8       1       1
       8       1       1       8       1       1       8       1       1       8
       1       1       8       1       1       8       1       1       8       1
       1       8       1       1       8       1       1       8       1       1
       8       1       1       8       1       1       8       1       1       8
       1       1       8       1       1       8       1       1       8       1
       1       8       1       1       8       1       1       8       1       1
       8       1       1       8       1       1       8       1       1       8
       1       1       8       1       1       8       1       1       8       1
       1       8       1       1       8       1       1       8       1       1
       8       1       1       8       1       1       8       1       1       8
       1       1       8       1       1       8       1       1       8       1
       1       8       1       1       8       1       1       8       1       1
       8       1       1       8       1       1       8       1       1       8
       1       1       8       1       1       8       1       1       8       1
       1       8       1       1       8       1       1       8       1       1
       8       1       1       8       1       1       8       1       1       8
       1       1       8       1       1       8       1       1       8       1
       1       8       1       1       8       1       1       8       1       1
       8       1       1       8       1       1       8       1       1       8
       1       1       8       1       1       8       1       1       8       1
       1       8       1       1       8       1       1       8       1       1
       8       1       1       8       1       1       8       1       1       8
       1       1       8       1       1       8       1       1       8       1
       1       8       1       1       8       1       1       8       1       1
       8       1       1       8       1       1       8       1       1       8
       1       1       8       1       1       8       1       1       8       1
       1       8       1       1       8       1       1       8       1       1
       8       1       1       8       1       1       8       1       1       8
       1       1       8       1       1       8       1       1       8       1
       1       8       1       1       8       1       1       8       1       1
       8       1       1       8       1       1       8       1       1       8
       1       1       8       1       1       8       1       1       8       1
       1       8       1       1       8       1       1       8       1       1
       8       1       1       8       1       1       8       1       1       8
       1       1       8       1       1       8       1       1       8       1
       1       8       1       1       8       1       1       8       1       1
       8       1       1       8       1       1       8       1       1       8
       1       1       8       1       1       8       1       1       8       1
       1       8       1       1       8       1       1       8       1       1
       8       1       1       8       1       1       8       1       1       8
       1       1       8       1       1       8       1       1       8       1
       1       8       1       1       8       1       1       8       1       1
       8       1       1       8       1       1       8       1       1       8
       1       1       8       1       1       8       1       1       8       1
       1       8       1       1       8       1       1       8       1       1
       8       1       1       8       1       1       8       1       1       8
       1       1       8       1       1       8       1       1       8       1
       1       8       1       1       8       1       1       8       1       1
       8       1       1       8       1       1       8       1       1       8
       1       1       8       1       1       8       1       1       8       1
       1       8       1       1       8       1       1       8       1       1
       8       1       1       8       1       1       8       1       1       8
       1       1       8       1       1       8       1       1       8       1
       1       8       1       1       8       1       1       8       1       1
       8       1       1       8       1       1       8       1       1       8
       1       1       8       1       1       8       1       1       8       1
       1       8       1       1       8       1       1       8       1       1
       8       1       1       8       1       1       8       1       1       8
       1       1       8       1       1       8       1       1       8       1
       1       8       1       1       8       1       1       8       1       1
       8       1       1       8       1       1       8       1       1       8
       1       1       8       1       1       8       1       1       8       1
       1       8       1       1       8       1       1       8       1       1
       8       1       1       8       1       1       8       1       1       8
       1       1       8       1       1       8       1       1       8       1
       1       8       1       1       8       1       1       8       1       1
       8       1       1       8       1       1       8       1       1       8
       1       1       8       1       1       8       1       1       8       1
       1       8       1       1       8       1       1       8       1       1
       8       1       1       8       1       1       8       1       1       8
       1       1       8       1       1       8       1       1       8       1
       1       8       1       1       8       1       1       8       1       1
       8       1       1       8       1       1       8       1       1       8
       1       1       8       1       1       8       1       1       8       1
       1       8       1       1       8       1       1       8       1       1
       8       1       1       8       1       1       8       1       1       8
       1       1       8       1       1       8       1       1       8       1
       1       8       1       1       8       1       1       8       1       1
       8       1       1       8       1       1       8       1       1       8
       1       1       8       1       1       8       1       1       8       1
       1       8       1       1       8       1       1       8       1       1
       8       1       1       8       1       1       8       1       1       8
       1       1       8       1       1       8       1       1       8       1
       1       8       1       1       8       1       1       8       1       1
       8       1       1       8       1       1       8       1       1       8
       1       1       8       1       1       8       1       1       8       1
       1       8       1       1       8       1       1       8       1       1
       8       1       1       8       1       1       8       1       1       8
       1       1       8       1       1       8       1       1       8       1
       1       8       1       1       8       1       1       8       1       1
       8       1       1       8       1       1       8       1       1       8
       1       1       8       1       1       8       1       1       8       1
       1       8       1       1       8       1       1       8       1       1
       8       1       1       8       1       1       8       1       1       8
       1       1       8       1       1       8       1       1       8       1
       1       8       1       1       8       1       1       8       1       1
       8       1       1       8       1       1       8       1       1       8
       1       1       8       1       1       8       1       1       8       1
       1       8       1       1       8       1       1       8       1       1
       8       1       1       8       1       1       8       1       1       8
       1       1       8       1       1       8       1       1       8       1
       1       8       1       1       8       1       1       8       1       1
       8       1       1       8       1       1       8       1       1       8
       1       1       8       1       1       8       1       1       8       1
       1       8       1       1       8       1       1       8       1       1
       8       1       1       8       1       1       8       1       1       8
       1       1       8       1       1       8       1       1       8       1
       1       8       1       1       8       1       1       8       1       1
       8       1       1       8       1       1       8       1       1       8
       1       1       8       1       1       8       1       1       8       1
       1       8       1       1       8       1       1       8       1       1
       8       1       1       8       1       1       8       1       1       8
       1       1       8       1       1       8       1       1       8       1
       1       8       1       1       8       1       1       8       1       1
       8       1       1       8       1       1       8       1       1       8
       1       1       8       1       1       8       1       1       8       1
       1       8       1       1       8       1       1       8       1       1
       8       1       1       8       1       1       8       1       1       8
       1       1       8       1       1       8       1       1       8       1
       1       8       1       1       8       1       1       8       1       1
       8       1       1       8       1       1       8       1       1       8
       1       1       8       1       1       8       1       1       8       1
       1       8       1       1       8       1       1       8       1       1
       8       1       1       8       1       1       8       1       1       8
       1       1       8       1       1       8       1       1       8       1
       1       8       1       1       8       1       1       8       1       1
       8       1       1       8       1       1       8       1       1       8
       1       1       8       1       1       8       1       1       8       1
       1       8       1       1       8       1       1       8       1       1
       8       1       1       8       1       1       8       1       1       8
       1       1       8       1       1       8       1       1       8       1
       1       8       1       1       8       1       1       8       1       1
       8       1       1       8       1       1       8       1       1       8
       1       1       8       1       1       8       1       1       8       1
       1       8       1       1       8       1       1       8       1       1
       8       1       1       8       1       1       8       1       1       8
       1       1       8       1       1       8       1       1       8       1
       1       8       1       1       8       1       1       8       1       1
       8       1       1       8       1       1       8       1       1       8
       1       1       8       1       1       8       1       1       8       1
       1       8       1       1       8       1       1       8       1       1
       8       1       1       8       1       1       8       1       1       8
       1       1       8       1       1       8       1       1       8       1
       1       8       1       1       8       1       1       8       1       1
       8       1       1       8       1       1       8       1       1       8
       1       1       8       1       1       8       1       1       8       1
       1       8       1       1       8       1       1       8       1       1
       8       1       1       8       1       1       8       1       1       8
       1       1       8       1       1       8       1       1       8       1
       1       8       1       1       8       1       1       8       1       1
       8       1       1       8       1       1       8       1       1       8
       1       1       8       1       1       8       1       1       8       1
       1       8       1       1       8       1       1       8       1       1
       8       1       1       8       1       1       8       1       1       8
       1       1       8       1       1       8       1       1       8       1
       1       8       1       1       8       1       1       8       1       1
       8       1       1       8       1       1       8       1       1       8
       1       1       8       1       1       8       1       1       8       1
       1       8       1       1       8       1       1       8       1       1
       8       1       1       8       1       1       8       1       1       8
       1       1       8       1       1       8       1       1       8       1
       1       8       1       1       8       1       1       8       1       1
       8       1       1       8       1       1       8       1       1       8
       1       1       8       1       1       8       1       1       8       1
       1       8       1       1       8       1       1       8       1       1
       8       1       1       8       1       1       8       1       1       8
       1       1       8       1       1       8       1       1       8       1
       1       8       1       1       8       1       1       8       1       1
       8       1       1       8       1       1       8       1       1       8
       1       1       8       1       1       8       1       1       8       1
       1       8       1       1       8       1       1       8       1       1
       8       1       1       8       1       1       8       1       1       8
       1       1       8       1       1       8       1       1       8       1
       1       8       1       1       8       1       1       8       1       1
       8       1       1       8       1       1       8       1       1       8
       1       1       8       1       1       8       1       1       8       1
       1       8       1       1       8       1       1       8       1       1
       8       1       1       8       1       1       8       1       1       8
       1       1       8       1       1       8       1       1       8       1
       1       8       1       1       8       1       1       8       1       1
       8       1       1       8       1       1       8       1       1       8
       1       1       8       1       1       8       1       1       8       1
       1       8       1       1       8       1       1       8       1       1
       8       1       1       8       1       1       8       1       1       8
       1       1       8       1       1       8       1       1       8       1
       1       8       1       1       8       1       1       8       1       1
       8       1       1       8       1       1       8       1       1       8
       1       1       8       1       1       8       1       1       8       1
       1       8       1       1       8       1       1       8       1       1
       8       1       1       8       1       1       8       1       1       8
       1       1       8       1       1       8       1       1       8       1
       1       8       1       1       8       1       1       8       1       1
       8       1       1       8       1       1       8       1       1       8
       1       1       8       1       1       8       1       1       8       1
       1       8       1       1       8       1       1       8       1       1
       8       1       1       8       1       1       8       1       1       8
       1       1       8       1       1       8       1       1       8       1
       1       8       1       1       8       1       1       8       1       1
       8       1       1       8       1       1       8       1       1       8
       1       1       8       1       1       8       1       1       8       1
       1       8       1       1       8       1       1       8       1       1
       8       1       1       8       1       1       8       1       1       8
       1       1       8       1       1       8       1       1       8       1
       1       8       1       1       8       1       1       8       1       1
       8       1       1       8       1       1       8       1       1       8
       1       1       8       1       1       8       1       1       8       1
       1       8       1       1       8       1       1       8       1       1
       8       1       1       8       1       1       8       1       1       8
       1       1       8       1       1       8       1       1       8       1
       1       8       1       1       8       1       1       8       1       1
       8       1       1       8       1       1       8       1       1       8
       1       1       8       1       1       8       1       1       8       1
       1       8       1       1       8       1       1       8       1       1
       8       1       1       8       1       1       8       1       1       8
       1       1       8       1       1       8       1       1       8       1
       1       8       1       1       8       1       1       8       1       1
       8       1       1       8       1       1       8       1       1       8
       1       1       8       1       1       8       1       1       8       1
       1       8       1       1       8       1       1       8       1       1
       8       1       1       8       1       1       8       1       1       8
       1       1       8       1       1       8       1       1       8       1
       1       8       1       1       8       1       1       8       1       1
       8       1       1       8       1       1       8       1       1       8
       1       1       8       1       1       8       1       1       8       1
       1       8       1       1       8       1       1       8       1       1
       8       1       1       8       1       1       8       1       1       8
       1       1       8       1       1       8       1       1       8       1
       1       8       1       1       8       1       1       8       1       1
       8       1       1       8       1       1       8       1       1       8
       1       1       8       1       1       8       1       1       8       1
       1       8       1       1       8       1       1       8       1       1
       8       1       1       8       1       1       8       1       1       8
       1       1       8       1       1       8       1       1       8       1
       1       8       1       1       8       1       1       8       1       1
       8       1       1       8       1       1       8       1       1       8
       1       1       8       1       1       8       1       1       8       1
       1       8       1       1       8       1       1       8       1       1
       8       1       1       8       1       1       8       1       1       8
       1       1       8       1       1       8       1       1       8       1
       1       8       1       1       8       1       1       8       1       1
       8       1       1       8       1       1       8       1       1       8
       1       1       8       1       1       8       1       1       8       1
       1       8       1       1       8       1       1       8       1       1
       8       1       1       8       1       1       8       1       1       8
       1       1       8       1       1       8       1       1       8       1
       1       8       1       1       8       1       1       8       1       1
       8       1       1       8       1       1       8       1       1       8
       1       1       8       1       1       8       1       1       8       1
       1       8       1       1       8       1       1       8       1       1
       8       1       1       8       1       1       8       1       1       8
       1       1       8       1       1       8       1       1       8       1
       1       8       1       1       8       1       1       8       1       1
       8       1       1       8       1       1       8       1       1       8
       1       1       8       1       1       8       1       1       8       1
       1       8       1       1       8       1       1       8       1       1
       8       1       1       8       1       1       8       1       1       8
       1       1       8       1       1       8       1       1       8       1
       1       8       1       1       8       1       1       8       1       1
       8       1       1       8       1       1       8       1       1       8
       1       1       8       1       1       8       1       1       8       1
       1       8       1       1       8       1       1       8       1       1
       8       1       1       8       1       1       8       1       1       8
       1       1       8       1       1       8       1       1       8       1
       1       8       1       1       8       1       1       8       1       1
       8       1       1       8       1       1       8       1       1       8
       1       1       8       1       1       8       1       1       8       1
       1       8       1       1       8       1       1       8       1       1
       8       1       1       8       1       1       8       1       1       8
       1       1       8       1       1       8       1       1       8       1
       1       8       1       1       8       1       1       8       1       1
       8       1       1       8       1       1       8       1       1       8
       1       1       8       1       1       8       1       1       8       1
       1       8       1       1       8       1       1       8       1       1
       8       1       1       8       1       1       8       1       1       8
       1       1       8       1       1       8       1       1       8       1
       1       8       1       1       8       1       1       8       1       1
       8       1       1       8       1       1       8       1       1       8
       1       1       8       1       1       8       1       1       8       1
       1       8       1       1       8       1       1       8       1       1
       8       1       1       8       1       1       8       1       1       8
       1       1       8       1       1       8       1       1       8       1
       1       8       1       1       8       1       1       8       1       1
       8       1       1       8       1       1       8       1       1       8
       1       1       8       1       1       8       1       1       8       1
       1       8       1       1       8       1       1       8       1       1
       8       1       1       8       1       1       8       1       1       8
       1       1       8       1       1       8       1       1       8       1
       1       8       1       1       8       1       1       8       1       1
       8       1       1       8       1       1       8       1       1       8
       1       1       8       1       1       8       1       1       8       1
       1       8       1       1       8       1       1       8       1       1
       8       1       1       8       1       1       8       1       1       8
       1       1       8       1       1       8       1       1       8       1
       1       8       1       1       8       1       1       8       1       1
       8       1       1       8       1       1       8       1       1       8
       1       1       8       1       1       8       1       1       8       1
       1       8       1       1       8       1       1       8       1       1
       8       1       1       8       1       1       8       1       1       8
       1       1       8       1       1       8       1       1       8       1
       1       8       1       1       8       1       1       8       1       1
       8       1       1       8       1       1       8       1       1       8
       1       1       8       1       1       8       1       1       8       1
       1       8       1       1       8       1       1       8       1       1
       8       1       1       8       1       1       8       1       1       8
       1       1       8       1       1       8       1       1       8       1
       1       8       1       1       8       1       1       8       1       1
       8       1       1       8       1       1       8       1       1       8
       1       1       8       1       1       8       1       1       8       1
       1       8       1       1       8       1       1       8       1       1
       8       1       1       8       1       1       8       1       1       8
       1       1       8       1       1       8       1       1       8       1
       1       8       1       1       8       1       1       8       1       1
       8       1       1       8       1       1       8       1       1       8
       1       1       8       1       1       8       1       1       8       1
       1       8       1       1       8       1       1       8       1       1
       8       1       1       8       1       1       8       1       1       8
       1       1       8       1       1       8       1       1       8       1
       1       8       1       1       8       1       1       8       1       1
       8       1       1       8       1       1       8       1       1       8
       1       1       8       1       1       8       1       1       8       1
       1       8       1       1       8       1       1       8       1       1
       8       1       1       8       1       1       8       1       1       8
       1       1       8       1       1       8       1       1       8       1
       1       8       1       1       8       1       1       8       1       1
       8       1       1       8       1       1       8       1       1       8
       1       1       8       1       1       8       1       1       8       1
       1       8       1       1       8       1       1       8       1       1
       8       1       1       8       1       1       8       1       1       8
       1       1       8       1       1       8       1       1       8       1
       1       8       1       1       8       1       1       8       1       1
       8       1       1       8       1       1       8       1       1       8
       1       1       8       1       1       8       1       1       8       1
       1       8       1       1       8       1       1       8       1       1
       8       1       1       8       1       1       8       1       1       8
       1       1       8       1       1       8       1       1       8       1
       1       8       1       1       8       1       1       8       1       1
       8       1       1       8       1       1       8       1       1       8
       1       1       8       1       1       8       1       1       8       1
       1       8       1       1       8       1       1       8       1       1
       8       1       1       8       1       1       8       1       1       8
       1       1       8       1       1       8       1       1       8       1
       1       8       1       1       8       1       1       8       1       1
       8       1       1       8       1       1       8       1       1       8
       1       1       8       1       1       8       1       1       8       1
       1       8       1       1       8       1       1       8       1       1
       8       1       1       8       1       1       8       1       1       8
       1       1       8       1       1       8       1       1       8       1
       1       8       1       1       8       1       1       8       1       1
       8       1       1       8       1       1       8       1       1       8
       1       1       8       1       1       8       1       1       8       1
       1       8       1       1       8       1       1       8       1       1
       8       1       1       8       1       1       8       1       1       8
       1       1       8       1       1       8       1       1       8       1
       1       8       1       1       8       1       1       8       1       1
       8       1       1       8       1       1       8       1       1       8
       1       1       8       1       1       8       1       1       8       1
       1       8       1       1       8       1       1       8       1       1
       8       1       1       8       1       1       8       1       1       8
       1       1       8       1       1       8       1       1       8       1
       1       8       1       1       8       1       1       8       1       1
       8       1       1       8       1       1       8       1       1       8
       1       1       8       1       1       8       1       1       8       1
       1       8       1       1       8       1       1       8       1       1
       8       1       1       8       1       1       8       1       1       8
       1       1       8       1       1       8       1       1       8       1
       1       8       1       1       8       1       1       8       1       1
       8       1       1       8       1       1       8       1       1       8
       1       1       8       1       1       8       1       1       8       1
       1       8       1       1       8       1       1       8       1       1
       8       1       1       8       1       1       8       1       1       8
       1       1       8       1       1       8       1       1       8       1
       1       8       1       1       8       1       1       8       1       1
       8       1       1       8       1       1       8       1       1       8
       1       1       8       1       1       8       1       1       8       1
       1       8       1       1       8       1       1       8       1       1
       8       1       1       8       1       1       8       1       1       8
       1       1       8       1       1       8       1       1       8       1
       1       8       1       1       8       1       1       8       1       1
       8       1       1       8       1       1       8       1       1       8
       1       1       8       1       1       8       1       1       8       1
       1       8       1       1       8       1       1       8       1       1
       8       1       1       8       1       1       8       1       1       8
       1       1       8       1       1       8       1       1       8       1
       1       8       1       1       8       1       1       8       1       1
       8       1       1       8       1       1       8       1       1       8
       1       1       8       1       1       8       1       1       8       1
       1       8       1       1       8       1       1       8       1       1
       8       1       1       8       1       1       8       1       1       8
       1       1       8       1       1       8       1       1       8       1
       1       8       1       1       8       1       1       8       1       1
       8       1       1       8       1       1       8       1       1       8
       1       1       8       1       1       8       1       1       8       1
       1       8       1       1       8       1       1       8       1       1
       8       1       1       8       1       1       8       1       1       8
       1       1       8       1       1       8       1       1       8       1
       1       8       1       1       8       1       1       8       1       1
       8       1       1       8       1       1       8       1       1       8
       1       1       8       1       1       8       1       1       8       1
       1       8       1       1       8       1       1       8       1       1
       8       1       1       8       1       1       8       1       1       8
       1       1       8       1       1       8       1       1       8       1
       1       8       1       1       8       1       1       8       1       1
       8       1       1       8       1       1       8       1       1       8
       1       1       8       1       1       8       1       1       8       1
       1       8       1       1       8       1       1       8       1       1
       8       1       1       8       1       1       8       1       1       8
       1       1       8       1       1       8       1       1       8       1
       1       8       1       1       8       1       1       8       1       1
       8       1       1       8       1       1       8       1       1       8
       1       1       8       1       1       8       1       1       8       1
       1       8       1       1       8       1       1       8       1       1
       8       1       1       8       1       1       8       1       1       8
       1       1       8       1       1       8       1       1       8       1
       1       8       1       1       8       1       1       8       1       1
       8       1       1       8       1       1       8       1       1       8
       1       1       8       1       1       8       1       1       8       1
       1       8       1       1       8       1       1       8       1       1
       8       1       1       8       1       1       8       1       1       8
       1       1       8       1       1       8       1       1       8       1
       1       8       1       1       8       1       1       8       1       1
       8       1       1       8       1       1       8       1       1       8
       1       1       8       1       1       8       1       1       8       1
       1       8       1       1       8       1       1       8       1       1
       8       1       1       8       1       1       8       1       1       8
       1       1       8       1       1       8       1       1       8       1
       1       8       1       1       8       1       1       8       1       1
       8       1       1       8       1       1       8       1       1       8
       1       1       8       1       1       8       1       1       8       1
       1       8       1       1       8       1       1       8       1       1
       8       1       1       8       1       1       8       1       1       8
       1       1       8       1       1       8       1       1       8       1
       1       8       1       1       8       1       1       8       1       1
       8       1       1       8       1       1       8       1       1       8
       1       1       8       1       1       8       1       1       8       1
       1       8       1       1       8       1       1       8       1       1
       8       1       1       8       1       1       8       1       1       8
       1       1       8       1       1       8       1       1       8       1
       1       8       1       1       8       1       1       8       1       1
       8       1       1       8       1       1       8       1       1       8
       1       1       8       1       1       8       1       1       8       1
       1       8       1       1       8       1       1       8       1       1
       8       1       1       8       1       1       8       1       1       8
       1       1       8       1       1       8       1       1       8       1
       1       8       1       1       8       1       1       8       1       1
       8       1       1       8       1       1       8       1       1       8
       1       1       8       1       1       8       1       1       8       1
       1       8       1       1       8       1       1       8       1       1
       8       1       1       8       1       1       8       1       1       8
       1       1       8       1       1       8       1       1       8       1
       1       8       1       1       8       1       1       8       1       1
       8       1       1       8       1       1       8       1       1       8
       1       1       8       1       1       8       1       1       8       1
       1       8       1       1       8       1       1       8       1       1
       8       1       1       8       1       1       8       1       1       8
       1       1       8       1       1       8       1       1       8       1
       1       8       1       1       8       1       1       8       1       1
       8       1       1       8       1       1       8       1       1       8
       1       1       8       1       1       8       1       1       8       1
       1       8       1       1       8       1       1       8       1       1
       8       1       1       8       1       1       8       1       1       8
       1       1       8       1       1       8       1       1       8       1
       1       8       1       1       8       1       1       8       1       1
       8       1       1       8       1       1       8       1       1       8
       1       1       8       1       1       8       1       1       8       1
       1       8       1       1       8       1       1       8       1       1
       8       1       1       8       1       1       8       1       1       8
       1       1       8       1       1       8       1       1       8       1
       1       8       1       1       8       1       1       8       1       1
       8       1       1       8       1       1       8       1       1       8
       1       1       8       1       1       8       1       1       8       1
       1       8       1       1       8       1       1       8       1       1
       8       1       1       8       1       1       8       1       1       8
       1       1       8       1       1       8       1       1       8       1
       1       8       1       1       8       1       1       8       1       1
       8       1       1       8       1       1       8       1       1       8
       1       1       8       1       1       8       1       1       8       1
       1       8       1       1       8       1       1       8       1       1
       8       1       1       8       1       1       8       1       1       8
       1       1       8       1       1       8       1       1       8       1
       1       8       1       1       8       1       1       8       1       1
       8       1       1       8       1       1       8       1       1       8
       1       1       8       1       1       8       1       1       8       1
       1       8       1       1       8       1       1       8       1       1
       8       1       1       8       1       1       8       1       1       8
       1       1       8       1       1       8       1       1       8       1
       1       8       1       1       8       1       1       8       1       1
       8       1       1       8       1       1       8       1       1       8
       1       1       8       1       1       8       1       1       8       1
       1       8       1       1       8       1       1       8       1       1
       8       1       1       8       1       1       8       1       1       8
       1       1       8       1       1       8       1       1       8       1
       1       8       1       1       8       1       1       8       1       1
       8       1       1       8       1       1       8       1       1       8
       1       1       8       1       1       8       1       1       8       1
       1       8       1       1       8       1       1       8       1       1
       8       1       1       8       1       1       8       1       1       8
       1       1       8       1       1       8       1       1       8       1
       1       8       1       1       8       1       1       8       1       1
       8       1       1       8       1       1       8       1       1       8
       1       1       8       1       1       8       1       1       8       1
       1       8       1       1       8       1       1       8       1       1
       8       1       1       8       1       1       8       1       1       8
       1       1       8       1       1       8       1       1       8       1
       1       8       1       1       8       1       1       8       1       1
       8       1       1       8       1       1       8       1       1       8
       1       1       8       1       1       8       1       1       8       1
       1       8       1       1       8       1       1       8       1       1
       8       1       1       8       1       1       8       1       1       8
       1       1       8       1       1       8       1       1       8       1
       1       8       1       1       8       1       1       8       1       1
       8       1       1       8       1       1       8       1       1       8
       1       1       8       1       1       8       1       1       8       1
       1       8       1       1       8       1       1       8       1       1
       8       1       1       8       1       1       8       1       1       8
       1       1       8       1       1       8       1       1       8       1
       1       8       1       1       8       1       1       8       1       1
       8       1       1       8       1       1       8       1       1       8
       1       1       8       1       1       8       1       1       8       1
       1       8       1       1       8       1       1       8       1       1
       8       1       1       8       1       1       8       1       1       8
       1       1       8       1       1       8       1       1       8       1
       1       8       1       1       8       1       1       8       1       1
       8       1       1       8       1       1       8       1       1       8
       1       1       8       1       1       8       1       1       8       1
       1       8       1       1       8       1       1       8       1       1
       8       1       1       8       1       1       8       1       1       8
       1       1       8       1       1       8       1       1       8       1
       1       8       1       1       8       1       1       8       1       1
       8       1       1       8       1       1       8       1       1       8
       1       1       8       1       1       8       1       1       8       1
       1       8       1       1       8       1       1       8       1       1
       8       1       1       8       1       1       8       1       1       8
       1       1       8       1       1       8       1       1       8       1
       1       8       1       1       8       1       1       8       1       1
       8       1       1       8       1       1       8       1       1       8
       1       1       8       1       1       8       1       1       8       1
       1       8       1       1       8       1       1       8       1       1
       8       1       1       8       1       1       8       1       1       8
       1       1       8       1       1       8       1       1       8       1
       1       8       1       1       8       1       1       8       1       1
       8       1       1       8       1       1       8       1       1       8
       1       1       8       1       1       8       1       1       8       1
       1       8       1       1       8       1       1       8       1       1
       8       1       1       8       1       1       8       1       1       8
       1       1       8       1       1       8       1       1       8       1
       1       8       1       1       8       1       1       8       1       1
       8       1       1       8       1       1       8       1       1       8
       1       1       8       1       1       8       1       1       8       1
       1       8       1       1       8       1       1       8       1       1
       8       1       1       8       1       1       8       1       1       8
       1       1       8       1       1       8       1       1       8       1
       1       8       1       1       8       1       1       8       1       1
       8       1       1       8       1       1       8       1       1       8
       1       1       8       1       1       8       1       1       8       1
       1       8       1       1       8       1       1       8       1       1
       8       1       1       8       1       1       8       1       1       8
       1       1       8       1       1       8       1       1       8       1
       1       8       1       1       8       1       1       8       1       1
       8       1       1       8       1       1       8       1       1       8
       1       1       8       1       1       8       1       1       8       1
       1       8       1       1       8       1       1       8       1       1
       8       1       1       8       1       1       8       1       1       8
       1       1       8       1       1       8       1       1       8       1
       1       8       1       1       8       1       1       8       1       1
       8       1       1       8       1       1       8       1       1       8
       1       1       8       1       1       8       1       1       8       1
       1       8       1       1       8       1       1       8       1       1
       8       1       1       8       1       1       8       1       1       8
       1       1       8       1       1       8       1       1       8       1
       1       8       1       1       8       1       1       8       1       1
       8       1       1       8       1       1       8       1       1       8
       1       1       8       1       1       8       1       1       8       1
       1       8       1       1       8       1       1       8       1       1
       8       1       1       8       1       1       8       1       1       8
       1       1       8       1       1       8       1       1       8       1
       1       8       1       1       8       1       1       8       1       1
       8       1       1       8       1       1       8       1       1       8
       1       1       8       1       1       8       1       1       8       1
       1       8       1       1       8       1       1       8       1       1
       8       1       1       8       1       1       8       1       1       8
       1       1       8       1       1       8       1       1       8       1
       1       8       1       1       8       1       1       8       1       1
       8       1       1       8       1       1       8       1       1       8
       1       1       8       1       1       8       1       1       8       1
       1       8       1       1       8       1       1       8       1       1
       8       1       1       8       1       1       8       1       1       8
       1       1       8       1       1       8       1       1       8       1
       1       8       1       1       8       1       1       8       1       1
       8       1       1       8       1       1       8       1       1       8
       1       1       8       1       1       8       1       1       8       1
       1       8       1       1       8       1       1       8       1       1
       8       1       1       8       1       1       8       1       1       8
       1       1       8       1       1       8       1       1       8       1
       1       8       1       1       8       1       1       8       1       1
       8       1       1       8       1       1       8       1       1       8
       1       1       8       1       1       8       1       1       8       1
       1       8       1       1       8       1       1       8       1       1
       8       1       1       8       1       1       8       1       1       8
       1       1       8       1       1       8       1       1       8       1
       1       8       1       1       8       1       1       8       1       1
       8       1       1       8       1       1       8       1       1       8
       1       1       8       1       1       8       1       1       8       1
       1       8       1       1       8       1       1       8       1       1
       8       1       1       8       1       1       8       1       1       8
       1       1       8       1       1       8       1       1       8       1
       1       8       1       1       8       1       1       8       1       1
       8       1       1       8       1       1       8       1       1       8
       1       1       8       1       1       8       1       1       8       1
       1       8       1       1       8       1       1       8       1       1
       8       1       1       8       1       1       8       1       1       8
       1       1       8       1       1       8       1       1       8       1
       1       8       1       1       8       1       1       8       1       1
       8       1       1       8       1       1       8       1       1       8
       1       1       8       1       1       8       1       1       8       1
       1       8       1       1       8       1       1       8       1       1
       8       1       1       8       1       1       8       1       1       8
       1       1       8       1       1       8       1       1       8       1
       1       8       1       1       8       1       1       8       1       1
       8       1       1       8       1       1       8       1       1       8
       1       1       8       1       1       8       1       1       8       1
       1       8       1       1       8       1       1       8       1       1
       8       1       1       8       1       1       8       1       1       8
       1       1       8       1       1       8       1       1       8       1
       1       8       1       1       8       1       1       8       1       1
       8       1       1       8       1       1       8       1       1       8
       1       1       8       1       1       8       1       1       8       1
       1       8       1       1       8       1       1       8       1       1
       8       1       1       8       1       1       8       1       1       8
       1       1       8       1       1       8       1       1       8       1
       1       8       1       1       8       1       1       8       1       1
       8       1       1       8       1       1       8       1       1       8
       1       1       8       1       1       8       1       1       8       1
       1       8       1       1       8       1       1       8       1       1
       8       1       1       8       1       1       8       1       1       8
       1       1       8       1       1       8       1       1       8       1
       1       8       1       1       8       1       1       8       1       1
       8       1       1       8       1       1       8       1       1       8
       1       1       8       1       1       8       1       1       8       1
       1       8       1       1       8       1       1       8       1       1
       8       1       1       8       1       1       8       1       1       8
       1       1       8       1       1       8       1       1       8       1
       1       8       1       1       8       1       1       8       1       1
       8       1       1       8       1       1       8       1       1       8
       1       1       8       1       1       8       1       1       8       1
       1       8       1       1       8       1       1       8       1       1
       8       1       1       8       1       1       8       1       1       8
       1       1       8       1       1       8       1       1       8       1
       1       8       1       1       8       1       1       8       1       1
       8       1       1       8       1       1       8       1       1       8
       1       1       8       1       1       8       1       1       8       1
       1       8       1       1       8       1       1       8       1       1
       8       1       1       8       1       1       8       1       1       8
       1       1       8       1       1       8       1       1       8       1
       1       8       1       1       8       1       1       8       1       1
       8       1       1       8       1       1       8       1       1       8
       1       1       8       1       1       8       1       1       8       1
       1       8       1       1       8       1       1       8       1       1
       8       1       1       8       1       1       8       1       1       8
       1       1       8       1       1       8       1       1       8       1
       1       8       1       1       8       1       1       8       1       1
       8       1       1       8       1       1       8       1       1       8
       1       1       8       1       1       8       1       1       8       1
       1       8       1       1       8       1       1       8       1       1
       8       1       1       8       1       1       8       1       1       8
       1       1       8       1       1       8       1       1       8       1
       1       8       1       1       8       1       1       8       1       1
       8       1       1       8       1       1       8       1       1       8
       1       1       8       1       1       8       1       1       8       1
       1       8       1       1       8       1       1       8       1       1
       8       1       1       8       1       1       8       1       1       8
       1       1       8       1       1       8       1       1       8       1
       1       8       1       1       8       1       1       8       1       1
       8       1       1       8       1       1       8       1       1       8
       1       1       8       1       1       8       1       1       8       1
       1       8       1       1       8       1       1       8       1       1
       8       1       1       8       1       1       8       1       1       8
       1       1       8       1       1       8       1       1       8       1
       1       8       1       1       8       1       1       8       1       1
       8       1       1       8       1       1       8       1       1       8
       1       1       8       1       1       8       1       1       8       1
       1       8       1       1       8       1       1       8       1       1
       8       1       1       8       1       1       8       1       1       8
       1       1       8       1       1       8       1       1       8       1
       1       8       1       1       8       1       1       8       1       1
       8       1       1       8       1       1       8       1       1       8
       1       1       8       1       1       8       1       1       8       1
       1       8       1       1       8       1       1       8       1       1
       8       1       1       8       1       1       8       1       1       8
       1       1       8       1       1       8       1       1       8       1
       1       8       1       1       8       1       1       8       1       1
       8       1       1       8       1       1       8       1       1       8
       1       1       8       1       1       8       1       1       8       1
       1       8       1       1       8       1       1       8       1       1
       8       1       1       8       1       1       8       1       1       8
       1       1       8       1       1       8       1       1       8       1
       1       8       1       1       8       1       1       8       1       1
       8       1       1       8       1       1       8       1       1       8
       1       1       8       1       1       8       1       1       8       1
       1       8       1       1       8       1       1       8       1       1
       8       1       1       8       1       1       8       1       1       8
       1       1       8       1       1       8       1       1       8       1
       1       8       1       1       8       1       1       8       1       1
       8       1       1       8       1       1       8       1       1       8
       1       1       8       1       1       8       1       1       8       1
       1       8       1       1       8       1       1       8       1       1
       8       1       1       8       1       1       8       1       1       8
       1       1       8       1       1       8       1       1       8       1
       1       8       1       1       8       1       1       8       1       1
       8       1       1       8       1       1       8       1       1       8
       1       1       8       1       1       8       1       1       8       1
       1       8       1       1       8       1       1       8       1       1
       8       1       1       8       1       1       8       1       1       8
       1       1       8       1       1       8       1       1       8       1
       1       8       1       1       8       1       1       8       1       1
       8       1       1       8       1       1       8       1       1       8
       1       1       8       1       1       8       1       1       8       1
       1       8       1       1       8       1       1       8       1       1
       8       1       1       8       1       1       8       1       1       8
       1       1       8       1       1       8       1       1       8       1
       1       8       1       1       8       1       1       8       1       1
       8       1       1       8       1       1       8       1       1       8
       1       1       8       1       1       8       1       1       8       1
       1       8       1       1       8       1       1       8       1       1
       8       1       1       8       1       1       8       1       1       8
       1       1       8       1       1       8       1       1       8       1
       1       8       1       1       8       1       1       8       1       1
       8       1       1       8       1       1       8       1       1       8
       1       1       8       1       1       8       1       1       8       1
       1       8       1       1       8       1       1       8       1       1
       8       1       1       8       1       1       8       1       1       8
       1       1       8       1       1       8       1       1       8       1
       1       8       1       1       8       1       1       8       1       1
       8       1       1       8       1       1       8       1       1       8
       1       1       8       1       1       8       1       1       8       1
       1       8       1       1       8       1       1       8       1       1
       8       1       1       8       1       1       8       1       1       8
       1       1       8       1       1       8       1       1       8       1
       1       8       1       1       8       1       1       8       1       1
       8       1       1       8       1       1       8       1       1       8
       1       1       8       1       1       8       1       1       8       1
       1       8       1       1       8       1       1       8       1       1
       8       1       1       8       1       1       8       1       1       8
       1       1       8       1       1       8       1       1       8       1
       1       8       1       1       8       1       1       8       1       1
       8       1       1       8       1       1       8       1       1       8
       1       1       8       1       1       8       1       1       8       1
       1       8       1       1       8       1       1       8       1       1
       8       1       1       8       1       1       8       1       1       8
       1       1       8       1       1       8       1       1       8       1
       1       8       1       1       8       1       1       8       1       1
       8       1       1       8       1       1       8       1       1       8
       1       1       8       1       1       8       1       1       8       1
       1       8       1       1       8       1       1       8       1       1
       8       1       1       8       1       1       8       1       1       8
       1       1       8       1       1       8       1       1       8       1
       1       8       1       1       8       1       1       8       1       1
       8       1       1       8       1       1       8       1       1       8
       1       1       8       1       1       8       1       1       8       1
       1       8       1       1       8       1       1       8       1       1
       8       1       1       8       1       1       8       1       1       8
       1       1       8       1       1       8       1       1       8       1
       1       8       1       1       8       1       1       8       1       1
       8       1       1       8       1       1       8       1       1       8
       1       1       8       1       1       8       1       1       8       1
       1       8       1       1       8       1       1       8       1       1
       8       1       1       8       1       1       8       1       1       8
       1       1       8       1       1       8       1       1       8       1
       1       8       1       1       8       1       1       8       1       1
       8       1       1       8       1       1       8       1       1       8
       1       1       8       1       1       8       1       1       8       1
       1       8       1       1       8       1       1       8       1       1
       8       1       1       8       1       1       8       1       1       8
       1       1       8       1       1       8       1       1       8       1
       1       8       1       1       8       1       1       8       1       1
       8       1       1       8       1       1       8       1       1       8
       1       1       8       1       1       8       1       1       8       1
       1       8       1       1       8       1       1       8       1       1
       8       1       1       8       1       1       8       1       1       8
       1       1       8       1       1       8       1       1       8       1
       1       8       1       1       8       1       1       8       1       1
       8       1       1       8       1       1       8       1       1       8
       1       1       8       1       1       8       1       1       8       1
       1       8       1       1       8       1       1       8       1       1
       8       1       1       8       1       1       8       1       1       8
       1       1       8       1       1       8       1       1       8       1
       1       8       1       1       8       1       1       8       1       1
       8       1       1       8       1       1       8       1       1       8
       1       1       8       1       1       8       1       1       8       1
       1       8       1       1       8       1       1       8       1       1
       8       1       1       8       1       1       8       1       1       8
       1       1       8       1       1       8       1       1       8       1
       1       8       1       1       8       1       1       8       1       1
       8       1       1       8       1       1       8       1       1       8
       1       1       8       1       1       8       1       1       8       1
       1       8       1       1       8       1       1       8       1       1
       8       1       1       8       1       1       8       1       1       8
       1       1       8       1       1       8       1       1       8       1
       1       8       1       1       8       1       1       8       1       1
       8       1       1       8       1       1       8       1       1       8
       1       1       8       1       1       8       1       1       8       1
       1       8       1       1       8       1       1       8       1       1
       8       1       1       8       1       1       8       1       1       8
       1       1       8       1       1       8       1       1       8       1
       1       8       1       1       8       1       1       8       1       1
       8       1       1       8       1       1       8       1       1       8
       1       1       8       1       1       8       1       1       8       1
       1       8       1       1       8       1       1       8       1       1
       8       1       1       8       1       1       8       1       1       8
       1       1       8       1       1       8       1       1       8       1
       1       8       1       1       8       1       1       8       1       1
       8       1       1       8       1       1       8       1       1       8
       1       1       8       1       1       8       1       1       8       1
       1       8       1       1       8       1       1       8       1       1
       8       1       1       8       1       1       8       1       1       8
       1       1       8       1       1       8       1       1       8       1
       1       8       1       1       8       1       1       8       1       1
       8       1       1       8       1       1       8       1       1       8
       1       1       8       1       1       8       1       1       8       1
       1       8       1       1       8       1       1       8       1       1
       8       1       1       8       1       1       8       1       1       8
       1       1       8       1       1       8       1       1       8       1
       1       8       1       1       8       1       1       8       1       1
       8       1       1       8       1       1       8       1       1       8
       1       1       8       1       1       8       1       1       8       1
       1       8       1       1       8       1       1       8       1       1
       8       1       1       8       1       1       8       1       1       8
       1       1       8       1       1       8       1       1       8       1
       1       8       1       1       8       1       1       8       1       1
       8       1       1       8       1       1       8       1       1       8
       1       1       8       1       1       8       1       1       8       1
       1       8       1       1       8       1       1       8       1       1
       8       1       1       8       1       1       8       1       1       8
       1       1       8       1       1       8       1       1       8       1
       1       8       1       1       8       1       1       8       1       1
       8       1       1       8       1       1       8       1       1       8
       1       1       8       1       1       8       1       1       8       1
       1       8       1       1       8       1       1       8       1       1
       8       1       1       8       1       1       8       1       1       8
       1       1       8       1       1       8       1       1       8       1
       1       8       1       1       8       1       1       8       1       1
       8       1       1       8       1       1       8       1       1       8
       1       1       8       1       1       8       1       1       8       1
       1       8       1       1       8       1       1       8       1       1
       8       1       1       8       1       1       8       1       1       8
       1       1       8       1       1       8       1       1       8       1
       1       8       1       1       8       1       1       8       1       1
       8       1       1       8       1       1       8       1       1       8
       1       1       8       1       1       8       1       1       8       1
       1       8       1       1       8       1       1       8       1       1
       8       1       1       8       1       1       8       1       1       8
       1       1       8       1       1       8       1       1       8       1
       1       8       1       1       8       1       1       8       1       1
       8       1       1       8       1       1       8       1       1       8
       1       1       8       1       1       8       1       1       8       1
       1       8       1       1       8       1       1       8       1       1
       8       1       1       8       1       1       8       1       1       8
       1       1       8       1       1       8       1       1       8       1
       1       8       1       1       8       1       1       8       1       1
       8       1       1       8       1       1       8       1       1       8
       1       1       8       1       1       8       1       1       8       1
       1       8       1       1       8       1       1       8       1       1
       8       1       1       8       1       1       8       1       1       8
       1       1       8       1       1       8       1       1       8       1
       1       8       1       1       8       1       1       8       1       1
       8       1       1       8       1       1       8       1       1       8
       1       1       8       1       1       8       1       1       8       1
       1       8       1       1       8       1       1       8       1       1
       8       1       1       8       1       1       8       1       1       8
       1       1       8       1       1       8       1       1       8       1
       1       8       1       1       8       1       1       8       1       1
       8       1       1       8       1       1       8       1       1       8
       1       1       8       1       1       8       1       1       8       1
       1       8       1       1       8       1       1       8       1       1
       8       1       1       8       1       1       8       1       1       8
       1       1       8       1       1       8       1       1       8       1
       1       8       1       1       8       1       1       8       1       1
       8       1       1       8       1       1       8       1       1       8
       1       1       8       1       1       8       1       1       8       1
       1       8       1       1       8       1       1       8       1       1
       8       1       1       8       1       1       8       1       1       8
       1       1       8       1       1       8       1       1       8       1
       1       8       1       1       8       1       1       8       1       1
       8       1       1       8       1       1       8       1       1       8
       1       1       8       1       1       8       1       1       8       1
       1       8       1       1       8       1       1       8       1       1
       8       1       1       8       1       1       8       1       1       8
       1       1       8       1       1       8       1       1       8       1
       1       8       1       1       8       1       1       8       1       1
       8       1       1       8       1       1       8       1       1       8
       1       1       8       1       1       8       1       1       8       1
       1       8       1       1       8       1       1       8       1       1
       8       1       1       8       1       1       8       1       1       8
       1       1       8       1       1       8       1       1       8       1
       1       8       1       1       8       1       1       8       1       1
       8       1       1       8       1       1       8       1       1       8
       1       1       8       1       1       8       1       1       8       1
       1       8       1       1       8       1       1       8       1       1
       8       1       1       8       1       1       8       1       1       8
       1       1       8       1       1       8       1       1       8       1
       1       8       1       1       8       1       1       8       1       1
       8       1       1       8       1       1       8       1       1       8
       1       1       8       1       1       8       1       1       8       1
       1       8       1       1       8       1       1       8       1       1
       8       1       1       8       1       1       8       1       1       8
       1       1       8       1       1       8       1       1       8       1
       1       8       1       1       8       1       1       8       1       1
       8       1       1       8       1       1       8       1       1       8
       1       1       8       1       1       8       1       1       8       1
       1       8       1       1       8       1       1       8       1       1
       8       1       1       8       1       1       8       1       1       8
       1       1       8       1       1       8       1       1       8       1
       1       8       1       1       8       1       1       8       1       1
       8       1       1       8       1       1       8       1       1       8
       1       1       8       1       1       8       1       1       8       1
       1       8       1       1       8       1       1       8       1       1
       8       1       1       8       1       1       8       1       1       8
       1       1       8       1       1       8       1       1       8       1
       1       8       1       1       8       1       1       8       1       1
       8       1       1       8       1       1       8       1       1       8
       1       1       8       1       1       8       1       1       8       1
       1       8       1       1       8       1       1       8       1       1
       8       1       1       8       1       1       8       1       1       8
       1       1       8       1       1       8       1       1       8       1
       1       8       1       1       8       1       1       8       1       1
       8       1       1       8       1       1       8       1       1       8
       1       1       8       1       1       8       1       1       8       1
       1       8       1       1       8       1       1       8       1       1
       8       1       1       8       1       1       8       1       1       8
       1       1       8       1       1       8       1       1       8       1
       1       8       1       1       8       1       1       8       1       1
       8       1       1       8       1       1       8       1       1       8
       1       1       8       1       1       8       1       1       8       1
       1       8       1       1       8       1       1       8       1       1
       8       1       1       8       1       1       8       1       1       8
       1       1       8       1       1       8       1       1       8       1
       1       8       1       1       8       1       1       8       1       1
       8       1       1       8       1       1       8       1       1       8
       1       1       8       1       1       8       1       1       8       1
       1       8       1       1       8       1       1       8       1       1
       8       1       1       8       1       1       8       1       1       8
       1       1       8       1       1       8       1       1       8       1
       1       8       1       1       8       1       1       8       1       1
       8       1       1       8       1       1       8       1       1       8
       1       1       8       1       1       8       1       1       8       1
       1       8       1       1       8       1       1       8       1       1
       8       1       1       8       1       1       8       1       1       8
       1       1       8       1       1       8       1       1       8       1
       1       8       1       1       8       1       1       8       1       1
       8       1       1       8       1       1       8       1       1       8
       1       1       8       1       1       8       1       1       8       1
       1       8       1       1       8       1       1       8       1       1
       8       1       1       8       1       1       8       1       1       8
       1       1       8       1       1       8       1       1       8       1
       1       8       1       1       8       1       1       8       1       1
       8       1       1       8       1       1       8       1       1       8
       1       1       8       1       1       8       1       1       8       1
       1       8       1       1       8       1       1       8       1       1
       8       1       1       8       1       1       8       1       1       8
       1       1       8       1       1       8       1       1       8       1
       1       8       1       1       8       1       1       8       1       1
       8       1       1       8       1       1       8       1       1       8
       1       1       8       1       1       8       1       1       8       1
       1       8       1       1       8       1       1       8       1       1
       8       1       1       8       1       1       8       1       1       8
       1       1       8       1       1       8       1       1       8       1
       1       8       1       1       8       1       1       8       1       1
       8       1       1       8       1       1       8       1       1       8
       1       1       8       1       1       8       1       1       8       1
       1       8       1       1       8       1       1       8       1       1
       8       1       1       8       1       1       8       1       1       8
       1       1       8       1       1       8       1       1       8       1
       1       8       1       1       8       1       1       8       1       1
       8       1       1       8       1       1       8       1       1       8
       1       1       8       1       1       8       1       1       8       1
       1       8       1       1       8       1       1       8       1       1
       8       1       1       8       1       1       8       1       1       8
       1       1       8       1       1       8       1       1       8       1
       1       8       1       1       8       1       1       8       1       1
       8       1       1       8       1       1       8       1       1       8
       1       1       8       1       1       8       1       1       8       1
       1       8       1       1       8       1       1       8       1       1
       8       1       1       8       1       1       8       1       1       8
       1       1       8       1       1       8       1       1       8       1
       1       8       1       1       8       1       1       8       1       1
       8       1       1       8       1       1       8       1       1       8
       1       1       8       1       1       8       1       1       8       1
       1       8       1       1       8       1       1       8       1       1
       8       1       1       8       1       1       8       1       1       8
       1       1       8       1       1       8       1       1       8       1
       1       8       1       1       8       1       1       8       1       1
       8       1       1       8       1       1       8       1       1       8
       1       1       8       1       1       8       1       1       8       1
       1       8       1       1       8       1       1       8       1       1
       8       1       1       8       1       1       8       1       1       8
       1       1       8       1       1       8       1       1       8       1
       1       8       1       1       8       1       1       8       1       1
       8       1       1       8       1       1       8       1       1       8
       1       1       8       1       1       8       1       1       8       1
       1       8       1       1       8       1       1       8       1       1
       8       1       1       8       1       1       8       1       1       8
       1       1       8       1       1       8       1       1       8       1
       1       8       1       1       8       1       1       8       1       1
       8       1       1       8       1       1       8       1       1       8
       1       1       8       1       1       8       1       1       8       1
       1       8       1       1       8       1       1       8       1       1
       8       1       1       8       1       1       8       1       1       8
       1       1       8       1       1       8       1       1       8       1
       1       8       1       1       8       1       1       8       1       1
       8       1       1       8       1       1       8       1       1       8
       1       1       8       1       1       8       1       1       8       1
       1       8       1       1       8       1       1       8       1       1
       8       1       1       8       1       1       8       1       1       8
       1       1       8       1       1       8       1       1       8       1
       1       8       1       1       8       1       1       8       1       1
       8       1       1       8       1       1       8       1       1       8
       1       1       8       1       1       8       1       1       8       1
       1       8       1       1       8       1       1       8       1       1
       8       1       1       8       1       1       8       1       1       8
       1       1       8       1       1       8       1       1       8       1
       1       8       1       1       8       1       1       8       1       1
       8       1       1       8       1       1       8       1       1       8
       1       1       8       1       1       8       1       1       8       1
       1       8       1       1       8       1       1       8       1       1
       8       1       1       8       1       1       8       1       1       8
       1       1       8       1       1       8       1       1       8       1
       1       8       1       1       8       1       1       8       1       1
       8       1       1       8       1       1       8       1       1       8
       1       1       8       1       1       8       1       1       8       1
       1       8       1       1       8       1       1       8       1       1
       8       1       1       8       1       1       8       1       1       8
       1       1       8       1       1       8       1       1       8       1
       1       8       1       1       8       1       1       8       1       1
       8       1       1       8       1       1       8       1       1       8
       1       1       8       1       1       8       1       1       8       1
       1       8       1       1       8       1       1       8       1       1
       8       1       1       8       1       1       8       1       1       8
       1       1       8       1       1       8       1       1       8       1
       1       8       1       1       8       1       1       8       1       1
       8       1       1       8       1       1       8       1       1       8
       1       1       8       1       1       8       1       1       8       1
       1       8       1       1       8       1       1       8       1       1
       8       1       1       8       1       1       8       1       1       8
       1       1       8       1       1       8       1       1       8       1
       1       8       1       1       8       1       1       8       1       1
       8       1       1       8       1       1       8       1       1       8
       1       1       8       1       1       8       1       1       8       1
       1       8       1       1       8       1       1       8       1       1
       8       1       1       8       1       1       8       1       1       8
       1       1       8       1       1       8       1       1       8       1
       1       8       1       1       8       1       1       8       1       1
       8       1       1       8       1       1       8       1       1       8
       1       1       8       1       1       8       1       1       8       1
       1       8       1       1       8       1       1       8       1       1
       8       1       1       8       1       1       8       1       1       8
       1       1       8       1       1       8       1       1       8       1
       1       8       1       1       8       1       1       8       1       1
       8       1       1       8       1       1       8       1       1       8
       1       1       8       1       1       8       1       1       8       1
       1       8       1       1       8       1       1       8       1       1
       8       1       1       8       1       1       8       1       1       8
       1       1       8       1       1       8       1       1       8       1
       1       8       1       1       8       1       1       8       1       1
       8       1       1       8       1       1       8       1       1       8
       1       1       8       1       1       8       1       1       8       1
       1       8       1       1       8       1       1       8       1       1
       8       1       1       8       1       1       8       1       1       8
       1       1       8       1       1       8       1       1       8       1
       1       8       1       1       8       1       1       8       1       1
       8       1       1       8       1       1       8       1       1       8
       1       1       8       1       1       8       1       1       8       1
       1       8       1       1       8       1       1       8       1       1
       8       1       1       8       1       1       8       1       1       8
       1       1       8       1       1       8       1       1       8       1
       1       8       1       1       8       1       1       8       1       1
       8       1       1       8       1       1       8       1       1       8
       1       1       8       1       1       8       1       1       8       1
       1       8       1       1       8       1       1       8       1       1
       8       1       1       8       1       1       8       1       1       8
       1       1       8       1       1       8       1       1       8       1
       1       8       1       1       8       1       1       8       1       1
       8       1       1       8       1       1       8       1       1       8
       1       1       8       1       1       8       1       1       8       1
       1       8       1       1       8       1       1       8       1       1
       8       1       1       8       1       1       8       1       1       8
       1       1       8       1       1       8       1       1       8       1
       1       8       1       1       8       1       1       8       1       1
       8       1       1       8       1       1       8       1       1       8
       1       1       8       1       1       8       1       1       8       1
       1       8       1       1       8       1       1       8       1       1
       8       1       1       8       1       1       8       1       1       8
       1       1       8       1       1       8       1       1       8       1
       1       8       1       1       8       1       1       8       1       1
       8       1       1       8       1       1       8       1       1       8
       1       1       8       1       1       8       1       1       8       1
       1       8       1       1       8       1       1       8       1       1
       8       1       1       8       1       1       8       1       1       8
       1       1       8       1       1       8       1       1       8       1
       1       8       1       1       8       1       1       8       1       1
       8       1       1       8       1       1       8       1       1       8
       1       1       8       1       1       8       1       1       8       1
       1       8       1       1       8       1       1       8       1       1
       8       1       1       8       1       1       8       1       1       8
       1       1       8       1       1       8       1       1       8       1
       1       8       1       1       8       1       1       8       1       1
       8       1       1       8       1       1       8       1       1       8
       1       1       8       1       1       8       1       1       8       1
       1       8       1       1       8       1       1       8       1       1
       8       1       1       8       1       1       8       1       1       8
       1       1       8       1       1       8       1       1       8       1
       1       8       1       1       8       1       1       8       1       1
       8       1       1       8       1       1       8       1       1       8
       1       1       8       1       1       8       1       1       8       1
       1       8       1       1       8       1       1       8       1       1
       8       1       1       8       1       1       8       1       1       8
       1       1       8       1       1       8       1       1       8       1
       1       8       1       1       8       1       1       8       1       1
       8       1       1       8       1       1       8       1       1       8
       1       1       8       1       1       8       1       1       8       1
       1       8       1       1       8       1       1       8       1       1
       8       1       1       8       1       1       8       1       1       8
       1       1       8       1       1       8       1       1       8       1
       1       8       1       1       8       1       1       8       1       1
       8       1       1       8       1       1       8       1       1       8
       1       1       8       1       1       8       1       1       8       1
       1       8       1       1       8       1       1       8       1       1
       8       1       1       8       1       1       8       1       1       8
       1       1       8       1       1       8       1       1       8       1
       1       8       1       1       8       1       1       8       1       1
       8       1       1       8       1       1       8       1       1       8
       1       1       8       1       1       8       1       1       8       1
       1       8       1       1       8       1       1       8       1       1
       8       1       1       8       1       1       8       1       1       8
       1       1       8       1       1       8       1       1       8       1
       1       8       1       1       8       1       1       8       1       1
       8       1       1       8       1       1       8       1       1       8
       1       1       8       1       1       8       1       1       8       1
       1       8       1       1       8       1       1       8       1       1
       8       1       1       8       1       1       8       1       1       8
       1       1       8       1       1       8       1       1       8       1
       1       8       1       1       8       1       1       8       1       1
       8       1       1       8       1       1       8       1       1       8
       1       1       8       1       1       8       1       1       8       1
       1       8       1       1       8       1       1       8       1       1
       8       1       1       8       1       1       8       1       1       8
       1       1       8       1       1       8       1       1       8       1
       1       8       1       1       8       1       1       8       1       1
       8       1       1       8       1       1       8       1       1       8
       1       1       8       1       1       8       1       1       8       1
       1       8       1       1       8       1       1       8       1       1
       8       1       1       8       1       1       8       1       1       8
       1       1       8       1       1       8       1       1       8       1
       1       8       1       1       8       1       1       8       1       1
       8       1       1       8       1       1       8       1       1       8
       1       1       8       1       1       8       1       1       8       1
       1       8       1       1       8       1       1       8       1       1
       8       1       1       8       1       1       8       1       1       8
       1       1       8       1       1       8       1       1       8       1
       1       8       1       1       8       1       1       8       1       1
       8       1       1       8       1       1       8       1       1       8
       1       1       8       1       1       8       1       1       8       1
       1       8       1       1       8       1       1       8       1       1
       8       1       1       8       1       1       8       1       1       8
       1       1       8       1       1       8       1       1       8       1
       1       8       1       1       8       1       1       8       1       1
       8       1       1       8       1       1       8       1       1       8
       1       1       8       1       1       8       1       1       8       1
       1       8       1       1       8       1       1       8       1       1
       8       1       1       8       1       1       8       1       1       8
       1       1       8       1       1       8       1       1       8       1
       1       8       1       1       8       1       1       8       1       1
       8       1       1       8       1       1       8       1       1       8
       1       1       8       1       1       8       1       1       8       1
       1       8       1       1       8       1       1       8       1       1
       8       1       1       8       1       1       8       1       1       8
       1       1       8       1       1       8       1       1       8       1
       1       8       1       1       8       1       1       8       1       1
       8       1       1       8       1       1       8       1       1       8
       1       1       8       1       1       8       1       1       8       1
       1       8       1       1       8       1       1       8       1       1
       8       1       1       8       1       1       8       1       1       8
       1       1       8       1       1       8       1       1       8       1
       1       8       1       1       8       1       1       8       1       1
       8       1       1       8       1       1       8       1       1       8
       1       1       8       1       1       8       1       1       8       1
       1       8       1       1       8       1       1       8       1       1
       8       1       1       8       1       1       8       1       1       8
       1       1       8       1       1       8       1       1       8       1
       1       8       1       1       8       1       1       8       1       1
       8       1       1       8       1       1       8       1       1       8
       1       1       8       1       1       8       1       1       8       1
       1       8       1       1       8       1       1       8       1       1
       8       1       1       8       1       1       8       1       1       8
       1       1       8       1       1       8       1       1       8       1
       1       8       1       1       8       1       1       8       1       1
       8       1       1       8       1       1       8       1       1       8
       1       1       8       1       1       8       1       1       8       1
       1       8       1       1       8       1       1       8       1       1
       8       1       1       8       1       1       8       1       1       8
       1       1       8       1       1       8       1       1       8       1
       1       8       1       1       8       1       1       8       1       1
       8       1       1       8       1       1       8       1       1       8
       1       1       8       1       1       8       1       1       8       1
       1       8       1       1       8       1       1       8       1       1
       8       1       1       8       1       1       8       1       1       8
       1       1       8       1       1       8       1       1       8       1
       1       8       1       1       8       1       1       8       1       1
       8       1       1       8       1       1       8       1       1       8
       1       1       8       1       1       8       1       1       8       1
       1       8       1       1       8       1       1       8       1       1
       8       1       1       8       1       1       8       1       1       8
       1       1       8       1       1       8       1       1       8       1
       1       8       1       1       8       1       1       8       1       1
       8       1       1       8       1       1       8       1       1       8
       1       1       8       1       1       8       1       1       8       1
       1       8       1       1       8       1       1       8       1       1
       8       1       1       8       1       1       8       1       1       8
       1       1       8       1       1       8       1       1       8       1
       1       8       1       1       8       1       1       8       1       1
       8       1       1       8       1       1       8       1       1       8
       1       1       8       1       1       8       1       1       8       1
       1       8       1       1       8       1       1       8       1       1
       8       1       1       8       1       1       8       1       1       8
       1       1       8       1       1       8       1       1       8       1
       1       8       1       1       8       1       1       8       1       1
       8       1       1       8       1       1       8       1       1       8
       1       1       8       1       1       8       1       1       8       1
       1       8       1       1       8       1       1       8       1       1
       8       1       1       8       1       1       8       1       1       8
       1       1       8       1       1       8       1       1       8       1
       1       8       1       1       8       1       1       8       1       1
       8       1       1       8       1       1       8       1       1       8
       1       1       8       1       1       8       1       1       8       1
       1       8       1       1       8       1       1       8       1       1
       8       1       1       8       1       1       8       1       1       8
       1       1       8       1       1       8       1       1       8       1
       1       8       1       1       8       1       1       8       1       1
       8       1       1       8       1       1       8       1       1       8
       1       1       8       1       1       8       1       1       8       1
       1       8       1       1       8       1       1       8       1       1
       8       1       1       8       1       1       8       1       1       8
       1       1       8       1       1       8       1       1       8       1
       1       8       1       1       8       1       1       8       1       1
       8       1       1       8       1       1       8       1       1       8
       1       1       8       1       1       8       1       1       8       1
       1       8       1       1       8       1       1       8       1       1
       8       1       1       8       1       1       8       1       1       8
       1       1       8       1       1       8       1       1       8       1
       1       8       1       1       8       1       1       8       1       1
       8       1       1       8       1       1       8       1       1       8
       1       1       8       1       1       8       1       1       8       1
       1       8       1       1       8       1       1       8       1       1
       8       1       1       8       1       1       8       1       1       8
       1       1       8       1       1       8       1       1       8       1
       1       8       1       1       8       1       1       8       1       1
       8       1       1       8       1       1       8       1       1       8
       1       1       8       1       1       8       1       1       8       1
       1       8       1       1       8       1       1       8       1       1
       8       1       1       8       1       1       8       1       1       8
       1       1       8       1       1       8       1       1       8       1
       1       8       1       1       8       1       1       8       1       1
       8       1       1       8       1       1       8       1       1       8
       1       1       8       1       1       8       1       1       8       1
       1       8       1       1       8       1       1       8       1       1
       8       1       1       8       1       1       8       1       1       8
       1       1       8       1       1       8       1       1       8       1
       1       8       1       1       8       1       1       8       1       1
       8       1       1       8       1       1       8       1       1       8
       1       1       8       1       1       8       1       1       8       1
       1       8       1       1       8       1       1       8       1       1
       8       1       1       8       1       1       8       1       1       8
       1       1       8       1       1       8       1       1       8       1
       1       8       1       1       8       1       1       8       1       1
       8       1       1       8       1       1       8       1       1       8
       1       1       8       1       1       8       1       1       8       1
       1       8       1       1       8       1       1       8       1       1
       8       1       1       8       1       1       8       1       1       8
       1       1       8       1       1       8       1       1       8       1
       1       8       1       1       8       1       1       8       1       1
       8       1       1       8       1       1       8       1       1       8
       1       1       8       1       1       8       1       1       8       1
       1       8       1       1       8       1       1       8       1       1
       8       1       1       8       1       1       8       1       1       8
       1       1       8       1       1       8       1       1       8       1
       1       8       1       1       8       1       1       8       1       1
       8       1       1       8       1       1       8       1       1       8
       1       1       8       1       1       8       1       1       8       1
       1       8       1       1       8       1       1       8       1       1
       8       1       1       8       1       1       8       1       1       8
       1       1       8       1       1       8       1       1       8       1
       1       8       1       1       8       1       1       8       1       1
       8       1       1       8       1       1       8       1       1       8
       1       1       8       1       1       8       1       1       8       1
       1       8       1       1       8       1       1       8       1       1
       8       1       1       8       1       1       8       1       1       8
       1       1       8       1       1       8       1       1       8       1
       1       8       1       1       8       1       1       8       1       1
       8       1       1       8       1       1       8       1       1       8
       1       1       8       1       1       8       1       1       8       1
       1       8       1       1       8       1       1       8       1       1
       8       1       1       8       1       1       8       1       1       8
       1       1       8       1       1       8       1       1       8       1
       1       8       1       1       8       1       1       8       1       1
       8       1       1       8       1       1       8       1       1       8
       1       1       8       1       1       8       1       1       8       1
       1       8       1       1       8       1       1       8       1       1
       8       1       1       8       1       1       8       1       1       8
       1       1       8       1       1       8       1       1       8       1
       1       8       1       1       8       1       1       8       1       1
       8       1       1       8       1       1       8       1       1       8
       1       1       8       1       1       8       1       1       8       1
       1       8       1       1       8       1       1       8       1       1
       8       1       1       8       1       1       8       1       1       8
       1       1       8       1       1       8       1       1       8       1
       1       8       1       1       8       1       1       8       1       1
       8       1       1       8       1       1       8       1       1       8
       1       1       8       1       1       8       1       1       8       1
       1       8       1       1       8       1       1       8       1       1
       8       1       1       8       1       1       8       1       1       8
       1       1       8       1       1       8       1       1       8       1
       1       8       1       1       8       1       1       8       1       1
       8       1       1       8       1       1       8       1       1       8
       1       1       8       1       1       8       1       1       8       1
       1       8       1       1       8       1       1       8       1       1
       8       1       1       8       1       1       8       1       1       8
       1       1       8       1       1       8       1       1       8       1
       1       8       1       1       8       1       1       8       1       1
       8       1       1       8       1       1       8       1       1       8
       1       1       8       1       1       8       1       1       8       1
       1       8       1       1       8       1       1       8       1       1
       8       1       1       8       1       1       8       1       1       8
       1       1       8       1       1       8       1       1       8       1
       1       8       1       1       8       1       1       8       1       1
       8       1       1       8       1       1       8       1       1       8
       1       1       8       1       1       8       1       1       8       1
       1       8       1       1       8       1       1       8       1       1
       8       1       1       8       1       1       8       1       1       8
       1       1       8       1       1       8       1       1       8       1
       1       8       1       1       8       1       1       8       1       1
       8       1       1       8       1       1       8       1       1       8
       1       1       8       1       1       8       1       1       8       1
       1       8       1       1       8       1       1       8       1       1
       8       1       1       8       1       1       8       1       1       8
       1       1       8       1       1       8       1       1       8       1
       1       8       1       1       8       1       1       8       1       1
       8       1       1       8       1       1       8       1       1       8
       1       1       8       1       1       8       1       1       8       1
       1       8       1       1       8       1       1       8       1       1
       8       1       1       8       1       1       8       1       1       8
       1       1       8       1       1       8       1       1       8       1
       1       8       1       1       8       1       1       8       1       1
       8       1       1       8       1       1       8       1       1       8
       1       1       8       1       1       8       1       1       8       1
       1       8       1       1       8       1       1       8       1       1
       8       1       1       8       1       1       8       1       1       8
       1       1       8       1       1       8       1       1       8       1
       1       8       1       1       8       1       1       8       1       1
       8       1       1       8       1       1       8       1       1       8
       1       1       8       1       1       8       1       1       8       1
       1       8       1       1       8       1       1       8       1       1
       8       1       1       8       1       1       8       1       1       8
       1       1       8       1       1       8       1       1       8       1
       1       8       1       1       8       1       1       8       1       1
       8       1       1       8       1       1       8       1       1       8
       1       1       8       1       1       8       1       1       8       1
       1       8       1       1       8       1       1       8       1       1
       8       1       1       8       1       1       8       1       1       8
       1       1       8       1       1       8       1       1       8       1
       1       8       1       1       8       1       1       8       1       1
       8       1       1       8       1       1       8       1       1       8
       1       1       8       1       1       8       1       1       8       1
       1       8       1       1       8       1       1       8       1       1
       8       1       1       8       1       1       8       1       1       8
       1       1       8       1       1       8       1       1       8       1
       1       8       1       1       8       1       1       8       1       1
       8       1       1       8       1       1       8       1       1       8
       1       1       8       1       1       8       1       1       8       1
       1       8       1       1       8       1       1       8       1       1
       8       1       1       8       1       1       8       1       1       8
       1       1       8       1       1       8       1       1       8       1
       1       8       1       1       8       1       1       8       1       1
       8       1       1       8       1       1       8       1       1       8
       1       1       8       1       1       8       1       1       8       1
       1       8       1       1       8       1       1       8       1       1
       8       1       1       8       1       1       8       1       1       8
       1       1       8       1       1       8       1       1       8       1
       1       8       1       1       8       1       1       8       1       1
       8       1       1       8       1       1       8       1       1       8
       1       1       8       1       1       8       1       1       8       1
       1       8       1       1       8       1       1       8       1       1
       8       1       1       8       1       1       8       1       1       8
       1       1       8       1       1       8       1       1       8       1
       1       8       1       1       8       1       1       8       1       1
       8       1       1       8       1       1       8       1       1       8
       1       1       8       1       1       8       1       1       8       1
       1       8       1       1       8       1       1       8       1       1
       8       1       1       8       1       1       8       1       1       8
       1       1       8       1       1       8       1       1       8       1
       1       8       1       1       8       1       1       8       1       1
       8       1       1       8       1       1       8       1       1       8
       1       1       8       1       1       8       1       1       8       1
       1       8       1       1       8       1       1       8       1       1
       8       1       1       8       1       1       8       1       1       8
       1       1       8       1       1       8       1       1       8       1
       1       8       1       1       8       1       1       8       1       1
       8       1       1       8       1       1       8       1       1       8
       1       1       8       1       1       8       1       1       8       1
       1       8       1       1       8       1       1       8       1       1
       8       1       1       8       1       1       8       1       1       8
       1       1       8       1       1       8       1       1       8       1
       1       8       1       1       8       1       1       8       1       1
       8       1       1       8       1       1       8       1       1       8
       1       1       8       1       1       8       1       1       8       1
       1       8       1       1       8       1       1       8       1       1
       8       1       1       8       1       1       8       1       1       8
       1       1       8       1       1       8       1       1       8       1
       1       8       1       1       8       1       1       8       1       1
       8       1       1       8       1       1       8       1       1       8
       1       1       8       1       1       8       1       1       8       1
       1       8       1       1       8       1       1       8       1       1
       8       1       1       8       1       1       8       1       1       8
       1       1       8       1       1       8       1       1       8       1
       1       8       1       1       8       1       1       8       1       1
       8       1       1       8       1       1       8       1       1       8
       1       1       8       1       1       8       1       1       8       1
       1       8       1       1       8       1       1       8       1       1
       8       1       1       8       1       1       8       1       1       8
       1       1       8       1       1       8       1       1       8       1
       1       8       1       1       8       1       1       8       1       1
       8       1       1       8       1       1       8       1       1       8
       1       1       8       1       1       8       1       1       8       1
       1       8       1       1       8       1       1       8       1       1
       8       1       1       8       1       1       8       1       1       8
       1       1       8       1       1       8       1       1       8       1
       1       8       1       1       8       1       1       8       1       1
       8       1       1       8       1       1       8       1       1       8
       1       1       8       1       1       8       1       1       8       1
       1       8       1       1       8       1       1       8       1       1
       8       1       1       8       1       1       8       1       1       8
       1       1       8       1       1       8       1       1       8       1
       1       8       1       1       8       1       1       8       1       1
       8       1       1       8       1       1       8       1       1       8
       1       1       8       1       1       8       1       1       8       1
       1       8       1       1       8       1       1       8       1       1
       8       1       1       8       1       1       8       1       1       8
       1       1       8       1       1       8       1       1       8       1
       1       8       1       1       8       1       1       8       1       1
       8       1       1       8       1       1       8       1       1       8
       1       1       8       1       1       8       1       1       8       1
       1       8       1       1       8       1       1       8       1       1
       8       1       1       8       1       1       8       1       1       8
       1       1       8       1       1       8       1       1       8       1
       1       8       1       1       8       1       1       8       1       1
       8       1       1       8       1       1       8       1       1       8
       1       1       8       1       1       8       1       1       8       1
       1       8       1       1       8       1       1       8       1       1
       8       1       1       8       1       1       8       1       1       8
       1       1       8       1       1       8       1       1       8       1
       1       8       1       1       8       1       1       8       1       1
       8       1       1       8       1       1       8       1       1       8
       1       1       8       1       1       8       1       1       8       1
       1       8       1       1       8       1       1       8       1       1
       8       1       1       8       1       1       8       1       1       8
       1       1       8       1       1       8       1       1       8       1
       1       8       1       1       8       1       1       8       1       1
       8       1       1       8       1       1       8       1       1       8
       1       1       8       1       1       8       1       1       8       1
       1       8       1       1       8       1       1       8       1       1
       8       1       1       8       1       1       8       1       1       8
       1       1       8       1       1       8       1       1       8       1
       1       8       1       1       8       1       1       8       1       1
       8       1       1       8       1       1       8       1       1       8
       1       1       8       1       1       8       1       1       8       1
       1       8       1       1       8       1       1       8       1       1
       8       1       1       8       1       1       8       1       1       8
       1       1       8       1       1       8       1       1       8       1
       1       8       1       1       8       1       1       8       1       1
       8       1       1       8       1       1       8       1       1       8
       1       1       8       1       1       8       1       1       8       1
       1       8       1       1       8       1       1       8       1       1
       8       1       1       8       1       1       8       1       1       8
       1       1       8       1       1       8       1       1       8       1
       1       8       1       1       8       1       1       8       1       1
       8       1       1       8       1       1       8       1       1       8
       1       1       8       1       1       8       1       1       8       1
       1       8       1       1       8       1       1       8       1       1
       8       1       1       8       1       1       8       1       1       8
       1       1       8       1       1       8       1       1       8       1
       1       8       1       1       8       1       1       8       1       1
       8       1       1       8       1       1       8       1       1       8
       1       1       8       1       1       8       1       1       8       1
       1       8       1       1       8       1       1       8       1       1
       8       1       1       8       1       1       8       1       1       8
       1       1       8       1       1       8       1       1       8       1
       1       8       1       1       8       1       1       8       1       1
       8       1       1       8       1       1       8       1       1       8
       1       1       8       1       1       8       1       1       8       1
       1       8       1       1       8       1       1       8       1       1
       8       1       1       8       1       1       8       1       1       8
       1       1       8       1       1       8       1       1       8       1
       1       8       1       1       8       1       1       8       1       1
       8       1       1       8       1       1       8       1       1       8
       1       1       8       1       1       8       1       1       8       1
       1       8       1       1       8       1       1       8       1       1
       8       1       1       8       1       1       8       1       1       8
       1       1       8       1       1       8       1       1       8       1
       1       8       1       1       8       1       1       8       1       1
       8       1       1       8       1       1       8       1       1       8
       1       1       8       1       1       8       1       1       8       1
       1       8       1       1       8       1       1       8       1       1
       8       1       1       8       1       1       8       1       1       8
       1       1       8       1       1       8       1       1       8       1
       1       8       1       1       8       1       1       8       1       1
       8       1       1       8       1       1       8       1       1       8
       1       1       8       1       1       8       1       1       8       1
       1       8       1       1       8       1       1       8       1       1
       8       1       1       8       1       1       8       1       1       8
       1       1       8       1       1       8       1       1       8       1
       1       8       1       1       8       1       1       8       1       1
       8       1       1       8       1       1       8       1       1       8
       1       1       8       1       1       8       1       1       8       1
       1       8       1       1       8       1       1       8       1       1
       8       1       1       8       1       1       8       1       1       8
       1       1       8       1       1       8       1       1       8       1
       1       8       1       1       8       1       1       8       1       1
       8       1       1       8       1       1       8       1       1       8
       1       1       8       1       1       8       1       1       8       1
       1       8       1       1       8       1       1       8       1       1
       8       1       1       8       1       1       8       1       1       8
       1       1       8       1       1       8       1       1       8       1
       1       8       1       1       8       1       1       8       1       1
       8       1       1       8       1       1       8       1       1       8
       1       1       8       1       1       8       1       1       8       1
       1       8       1       1       8       1       1       8       1       1
       8       1       1       8       1       1       8       1       1       8
       1       1       8       1       1       8       1       1       8       1
       1       8       1       1       8       1       1       8       1       1
       8       1       1       8       1       1       8       1       1       8
       1       1       8       1       1       8       1       1       8       1
       1       8       1       1       8       1       1       8       1       1
       8       1       1       8       1       1       8       1       1       8
       1       1       8       1       1       8       1       1       8       1
       1       8       1       1       8       1       1       8       1       1
       8       1       1       8       1       1       8       1       1       8
       1       1       8       1       1       8       1       1       8       1
       1       8       1       1       8       1       1       8       1       1
       8       1       1       8       1       1       8       1       1       8
       1       1       8       1       1       8       1       1       8       1
       1       8       1       1       8       1       1       8       1       1
       8       1       1       8       1       1       8       1       1       8
       1       1       8       1       1       8       1       1       8       1
       1       8       1       1       8       1       1       8       1       1
       8       1       1       8       1       1       8       1       1       8
       1       1       8       1       1       8       1       1       8       1
       1       8       1       1       8       1       1       8       1       1
       8       1       1       8       1       1       8       1       1       8
       1       1       8       1       1       8       1       1       8       1
       1       8       1       1       8       1       1       8       1       1
       8       1       1       8       1       1       8       1       1       8
       1       1       8       1       1       8       1       1       8       1
       1       8       1       1       8       1       1       8       1       1
       8       1       1       8       1       1       8       1       1       8
       1       1       8       1       1       8       1       1       8       1
       1       8       1       1       8       1       1       8       1       1
       8       1       1       8       1       1       8       1       1       8
       1       1       8       1       1       8       1       1       8       1
       1       8       1       1       8       1       1       8       1       1
       8       1       1       8       1       1       8       1       1       8
       1       1       8       1       1       8       1       1       8       1
       1       8       1       1       8       1       1       8       1       1
       8       1       1       8       1       1       8       1       1       8
       1       1       8       1       1       8       1       1       8       1
       1       8       1       1       8       1       1       8       1       1
       8       1       1       8       1       1       8       1       1       8
       1       1       8       1       1       8       1       1       8       1
       1       8       1       1       8       1       1       8       1       1
       8       1       1       8       1       1       8       1       1       8
       1       1       8       1       1       8       1       1       8       1
       1       8       1       1       8       1       1       8       1       1
       8       1       1       8       1       1       8       1       1       8
       1       1       8       1       1       8       1       1       8       1
       1       8       1       1       8       1       1       8       1       1
       8       1       1       8       1       1       8       1       1       8
       1       1       8       1       1       8       1       1       8       1
       1       8       1       1       8       1       1       8       1       1
       8       1       1       8       1       1       8       1       1       8
       1       1       8       1       1       8       1       1       8       1
       1       8       1       1       8       1       1       8       1       1
       8       1       1       8       1       1       8       1       1       8
       1       1       8       1       1       8       1       1       8       1
       1       8       1       1       8       1       1       8       1       1
       8       1       1       8       1       1       8       1       1       8
       1       1       8       1       1       8       1       1       8       1
       1       8       1       1       8       1       1       8       1       1
       8       1       1       8       1       1       8       1       1       8
       1       1       8       1       1       8       1       1       8       1
       1       8       1       1       8       1       1       8       1       1
       8       1       1       8       1       1       8       1       1       8
       1       1       8       1       1       8       1       1       8       1
       1       8       1       1       8       1       1       8       1       1
       8       1       1       8       1       1       8       1       1       8
       1       1       8       1       1       8       1       1       8       1
       1       8       1       1       8       1       1       8       1       1
       8       1       1       8       1       1       8       1       1       8
       1       1       8       1       1       8       1       1       8       1
       1       8       1       1       8       1       1       8       1       1
       8       1       1       8       1       1       8       1       1       8
       1       1       8       1       1       8       1       1       8       1
       1       8       1       1       8       1       1       8       1       1
       8       1       1       8       1       1       8       1       1       8
       1       1       8       1       1       8       1       1       8       1
       1       8       1       1       8       1       1       8       1       1
       8       1       1       8       1       1       8       1       1       8
       1       1       8       1       1       8       1       1       8       1
       1       8       1       1       8       1       1       8       1       1
       8       1       1       8       1       1       8       1       1       8
       1       1       8       1       1       8       1       1       8       1
       1       8       1       1       8       1       1       8       1       1
       8       1       1       8       1       1       8       1       1       8
       1       1       8       1       1       8       1       1       8       1
       1       8       1       1       8       1       1       8       1       1
       8       1       1       8       1       1       8       1       1       8
       1       1       8       1       1       8       1       1       8       1
       1       8       1       1       8       1       1       8       1       1
       8       1       1       8       1       1       8       1       1       8
       1       1       8       1       1       8       1       1       8       1
       1       8       1       1       8       1       1       8       1       1
       8       1       1       8       1       1       8       1       1       8
       1       1       8       1       1       8       1       1       8       1
       1       8       1       1       8       1       1       8       1       1
       8       1       1       8       1       1       8       1       1       8
       1       1       8       1       1       8       1       1       8       1
       1       8       1       1       8       1       1       8       1       1
       8       1       1       8       1       1       8       1       1       8
       1       1       8       1       1       8       1       1       8       1
       1       8       1       1       8       1       1       8       1       1
       8       1       1       8       1       1       8       1       1       8
       1       1       8       1       1       8       1       1       8       1
       1       8       1       1       8       1       1       8       1       1
       8       1       1       8       1       1       8       1       1       8
       1       1       8       1       1       8       1       1       8       1
       1       8       1       1       8       1       1       8       1       1
       8       1       1       8       1       1       8       1       1       8
       1       1       8       1       1       8       1       1       8       1
       1       8       1       1       8       1       1       8       1       1
       8       1       1       8       1       1       8       1       1       8
       1       1       8       1       1       8       1       1       8       1
       1       8       1       1       8       1       1       8       1       1
       8       1       1       8       1       1       8       1       1       8
       1       1       8       1       1       8       1       1       8       1
       1       8       1       1       8       1       1       8       1       1
       8       1       1       8       1       1       8       1       1       8
       1       1       8       1       1       8       1       1       8       1
       1       8       1       1       8       1       1       8       1       1
       8       1       1       8       1       1       8       1       1       8
       1       1       8       1       1       8       1       1       8       1
       1       8       1       1       8       1       1       8       1       1
       8       1       1       8       1       1       8       1       1       8
       1       1       8       1       1       8       1       1       8       1
       1       8       1       1       8       1       1       8       1       1
       8       1       1       8       1       1       8       1       1       8
       1       1       8       1       1       8       1       1       8       1
       1       8       1       1       8       1       1       8       1       1
       8       1       1       8       1       1       8       1       1       8
       1       1       8       1       1       8       1       1       8       1
       1       8       1       1       8       1       1       8       1       1
       8       1       1       8       1       1       8       1       1       8
       1       1       8       1       1       8       1       1       8       1
       1       8       1       1       8       1       1       8       1       1
       8       1       1       8       1       1       8       1       1       8
       1       1       8       1       1       8       1       1       8       1
       1       8       1       1       8       1       1       8       1       1
       8       1       1       8       1       1       8       1       1       8
       1       1       8       1       1       8       1       1       8       1
       1       8       1       1       8       1       1       8       1       1
       8       1       1       8       1       1       8       1       1       8
       1       1       8       1       1       8       1       1       8       1
       1       8       1       1       8       1       1       8       1       1
       8       1       1       8       1       1       8       1       1       8
       1       1       8       1       1       8       1       1       8       1
       1       8       1       1       8       1       1       8       1       1
       8       1       1       8       1       1       8       1       1       8
       1       1       8       1       1       8       1       1       8       1
       1       8       1       1       8       1       1       8       1       1
       8       1       1       8       1       1       8       1       1       8
       1       1       8       1       1       8       1       1       8       1
       1       8       1       1       8       1       1       8       1       1
       8       1       1       8       1       1       8       1       1       8
       1       1       8       1       1       8       1       1       8       1
       1       8       1       1       8       1       1       8       1       1
       8       1       1       8       1       1       8       1       1       8
       1       1       8       1       1       8       1       1       8       1
       1       8       1       1       8       1       1       8       1       1
       8       1       1       8       1       1       8       1       1       8
       1       1       8       1       1       8       1       1       8       1
       1       8       1       1       8       1       1       8       1       1
       8       1       1       8       1       1       8       1       1       8
       1       1       8       1       1       8       1       1       8       1
       1       8       1       1       8       1       1       8       1       1
       8       1       1       8       1       1       8       1       1       8
       1       1       8       1       1       8       1       1       8       1
       1       8       1       1       8       1       1       8       1       1
       8       1       1       8       1       1       8       1       1       8
       1       1       8       1       1       8       1       1       8       1
       1       8       1       1       8       1       1       8       1       1
       8       1       1       8       1       1       8       1       1       8
       1       1       8       1       1       8       1       1       8       1
       1       8       1       1       8       1       1       8       1       1
       8       1       1       8       1       1       8       1       1       8
       1       1       8       1       1       8       1       1       8       1
       1       8       1       1       8       1       1       8       1       1
       8       1       1       8       1       1       8       1       1       8
       1       1       8       1       1       8       1       1       8       1
       1       8       1       1       8       1       1       8       1       1
       8       1       1       8       1       1       8       1       1       8
       1       1       8       1       1       8       1       1       8       1
       1       8       1       1       8       1       1       8       1       1
       8       1       1       8       1       1       8       1       1       8
       1       1       8       1       1       8       1       1       8       1
       1       8       1       1       8       1       1       8       1       1
       8       1       1       8       1       1       8       1       1       8
       1       1       8       1       1       8       1       1       8       1
       1       8       1       1       8       1       1       8       1       1
       8       1       1       8       1       1       8       1       1       8
       1       1       8       1       1       8       1       1       8       1
       1       8       1       1       8       1       1       8       1       1
       8       1       1       8       1       1       8       1       1       8
       1       1       8       1       1       8       1       1       8       1
       1       8       1       1       8       1       1       8       1       1
       8       1       1       8       1       1       8       1       1       8
       1       1       8       1       1       8       1       1       8       1
       1       8       1       1       8       1       1       8       1       1
       8       1       1       8       1       1       8       1       1       8
       1       1       8       1       1       8       1       1       8       1
       1       8       1       1       8       1       1       8       1       1
       8       1       1       8       1       1       8       1       1       8
       1       1       8       1       1       8       1       1       8       1
       1       8       1       1       8       1       1       8       1       1
       8       1       1       8       1       1       8       1       1       8
       1       1       8       1       1       8       1       1       8       1
       1       8       1       1       8       1       1       8       1       1
       8       1       1       8       1       1       8       1       1       8
       1       1       8       1       1       8       1       1       8       1
       1       8       1       1       8       1       1       8       1       1
       8       1       1       8       1       1       8       1       1       8
       1       1       8       1       1       8       1       1       8       1
       1       8       1       1       8       1       1       8       1       1
       8       1       1       8       1       1       8       1       1       8
       1       1       8       1       1       8       1       1       8       1
       1       8       1       1       8       1       1       8       1       1
       8       1       1       8       1       1       8       1       1       8
       1       1       8       1       1       8       1       1       8       1
       1       8       1       1       8       1       1       8       1       1
       8       1       1       8       1       1       8       1       1       8
       1       1       8       1       1       8       1       1       8       1
       1       8       1       1       8       1       1       8       1       1
       8       1       1       8       1       1       8       1       1       8
       1       1       8       1       1       8       1       1       8       1
       1       8       1       1       8       1       1       8       1       1
       8       1       1       8       1       1       8       1       1       8
       1       1       8       1       1       8       1       1       8       1
       1       8       1       1       8       1       1       8       1       1
       8       1       1       8       1       1       8       1       1       8
       1       1       8       1       1       8       1       1       8       1
       1       8       1       1       8       1       1       8       1       1
       8       1       1       8       1       1       8       1       1       8
       1       1       8       1       1       8       1       1       8       1
       1       8       1       1       8       1       1       8       1       1
       8       1       1       8       1       1       8       1       1       8
       1       1       8       1       1       8       1       1       8       1
       1       8       1       1       8       1       1       8       1       1
       8       1       1       8       1       1       8       1       1       8
       1       1       8       1       1       8       1       1       8       1
       1       8       1       1       8       1       1       8       1       1
       8       1       1       8       1       1       8       1       1       8
       1       1       8       1       1       8       1       1       8       1
       1       8       1       1       8       1       1       8       1       1
       8       1       1       8       1       1       8       1       1       8
       1       1       8       1       1       8       1       1       8       1
       1       8       1       1       8       1       1       8       1       1
       8       1       1       8       1       1       8       1       1       8
       1       1       8       1       1       8       1       1       8       1
       1       8       1       1       8       1       1       8       1       1
       8       1       1       8       1       1       8       1       1       8
       1       1       8       1       1       8       1       1       8       1
       1       8       1       1       8       1       1       8       1       1
       8       1       1       8       1       1       8       1       1       8
       1       1       8       1       1       8       1       1       8       1
       1       8       1       1       8       1       1       8       1       1
       8       1       1       8       1       1       8       1       1       8
       1       1       8       1       1       8       1       1       8       1
       1       8       1       1       8       1       1       8       1       1
       8       1       1       8       1       1       8       1       1       8
       1       1       8       1       1       8       1       1       8       1
       1       8       1       1       8       1       1       8       1       1
       8       1       1       8       1       1       8       1       1       8
       1       1       8       1       1       8       1       1       8       1
       1       8       1       1       8       1       1       8       1       1
       8       1       1       8       1       1       8       1       1       8
       1       1       8       1       1       8       1       1       8       1
       1       8       1       1       8       1       1       8       1       1
       8       1       1       8       1       1       8       1       1       8
       1       1       8       1       1       8       1       1       8       1
       1       8       1       1       8       1       1       8       1       1
       8       1       1       8       1       1       8       1       1       8
       1       1       8       1       1       8       1       1       8       1
       1       8       1       1       8       1       1       8       1       1
       8       1       1       8       1       1       8       1       1       8
       1       1       8       1       1       8       1       1       8       1
       1       8       1       1       8       1       1       8       1       1
       8       1       1       8       1       1       8       1       1       8
       1       1       8       1       1       8       1       1       8       1
       1       8       1       1       8       1       1       8       1       1
       8       1       1       8       1       1       8       1       1       8
       1       1       8       1       1       8       1       1       8       1
       1       8       1       1       8       1       1       8       1       1
       8       1       1       8       1       1       8       1       1       8
       1       1       8       1       1       8       1       1       8       1
       1       8       1       1       8       1       1       8       1       1
       8       1       1       8       1       1       8       1       1       8
       1       1       8       1       1       8       1       1       8       1
       1       8       1       1       8       1       1       8       1       1
       8       1       1       8       1       1       8       1       1       8
       1       1       8       1       1       8       1       1       8       1
       1       8       1       1       8       1       1       8       1       1
       8       1       1       8       1       1       8       1       1       8
       1       1       8       1       1       8       1       1       8       1
       1       8       1       1       8       1       1       8       1       1
       8       1       1       8       1       1       8       1       1       8
       1       1       8       1       1       8       1       1       8       1
       1       8       1       1       8       1       1       8       1       1
       8       1       1       8       1       1       8       1       1       8
       1       1       8       1       1       8       1       1       8       1
       1       8       1       1       8       1       1       8       1       1
       8       1       1       8       1       1       8       1       1       8
       1       1       8       1       1       8       1       1       8       1
       1       8       1       1       8       1       1       8       1       1
       8       1       1       8       1       1       8       1       1       8
       1       1       8       1       1       8       1       1       8       1
       1       8       1       1       8       1       1       8       1       1
       8       1       1       8       1       1       8       1       1       8
       1       1       8       1       1       8       1       1       8       1
       1       8       1       1       8       1       1       8       1       1
       8       1       1       8       1       1       8       1       1       8
       1       1       8       1       1       8       1       1       8       1
       1       8       1       1       8       1       1       8       1       1
       8       1       1       8       1       1       8       1       1       8
       1       1       8       1       1       8       1       1       8       1
       1       8       1       1       8       1       1       8       1       1
       8       1       1       8       1       1       8       1       1       8
       1       1       8       1       1       8       1       1       8       1
       1       8       1       1       8       1       1       8       1       1
       8       1       1       8       1       1       8       1       1       8
       1       1       8       1       1       8       1       1       8       1
       1       8       1       1       8       1       1       8       1       1
       8       1       1       8       1       1       8       1       1       8
       1       1       8       1       1       8       1       1       8       1
       1       8       1       1       8       1       1       8       1       1
       8       1       1       8       1       1       8       1       1       8
       1       1       8       1       1       8       1       1       8       1
       1       8       1       1       8       1       1       8       1       1
       8       1       1       8       1       1       8       1       1       8
       1       1       8       1       1       8       1       1       8       1
       1       8       1       1       8       1       1       8       1       1
       8       1       1       8       1       1       8       1       1       8
       1       1       8       1       1       8       1       1       8       1
       1       8       1       1       8       1       1       8       1       1
       8       1       1       8       1       1       8       1       1       8
       1       1       8       1       1       8       1       1       8       1
       1       8       1       1       8       1       1       8       1       1
       8       1       1       8       1       1       8       1       1       8
       1       1       8       1       1       8       1       1       8       1
       1       8       1       1       8       1       1       8       1       1
       8       1       1       8       1       1       8       1       1       8
       1       1       8       1       1       8       1       1       8       1
       1       8       1       1       8       1       1       8       1       1
       8       1       1       8       1       1       8       1       1       8
       1       1       8       1       1       8       1       1       8       1
       1       8       1       1       8       1       1       8       1       1
       8       1       1       8       1       1       8       1       1       8
       1       1       8       1       1       8       1       1       8       1
       1       8       1       1       8       1       1       8       1       1
       8       1       1       8       1       1       8       1       1       8
       1       1       8       1       1       8       1       1       8       1
       1       8       1       1       8       1       1       8       1       1
       8       1       1       8       1       1       8       1       1       8
       1       1       8       1       1       8       1       1       8       1
       1       8       1       1       8       1       1       8       1       1
       8       1       1       8       1       1       8       1       1       8
       1       1       8       1       1       8       1       1       8       1
       1       8       1       1       8       1       1       8       1       1
       8       1       1       8       1       1       8       1       1       8
       1       1       8       1       1       8       1       1       8       1
       1       8       1       1       8       1       1       8       1       1
       8       1       1       8       1       1       8       1       1       8
       1       1       8       1       1       8       1       1       8       1
       1       8       1       1       8       1       1       8       1       1
       8       1       1       8       1       1       8       1       1       8
       1       1       8       1       1       8       1       1       8       1
       1       8       1       1       8       1       1       8       1       1
       8       1       1       8       1       1       8       1       1       8
       1       1       8       1       1       8       1       1       8       1
       1       8       1       1       8       1       1       8       1       1
       8       1       1       8       1       1       8       1       1       8
       1       1       8       1       1       8       1       1       8       1
       1       8       1       1       8       1       1       8       1       1
       8       1       1       8       1       1       8       1       1       8
       1       1       8       1       1       8       1       1       8       1
       1       8       1       1       8       1       1       8       1       1
       8       1       1       8       1       1       8       1       1       8
       1       1       8       1       1       8       1       1       8       1
       1       8       1       1       8       1       1       8       1       1
       8       1       1       8       1       1       8       1       1       8
       1       1       8       1       1       8       1       1       8       1
       1       8       1       1       8       1       1       8       1       1
       8       1       1       8       1       1       8       1       1       8
       1       1       8       1       1       8       1       1       8       1
       1       8       1       1       8       1       1       8       1       1
       8       1       1       8       1       1       8       1       1       8
       1       1       8       1       1       8       1       1       8       1
       1       8       1       1       8       1       1       8       1       1
       8       1       1       8       1       1       8       1       1       8
       1       1       8       1       1       8       1       1       8       1
       1       8       1       1       8       1       1       8       1       1
       8       1       1       8       1       1       8       1       1       8
       1       1       8       1       1       8       1       1       8       1
       1       8       1       1       8       1       1       8       1       1
       8       1       1       8       1       1       8       1       1       8
       1       1       8       1       1       8       1       1       8       1
       1       8       1       1       8       1       1       8       1       1
       8       1       1       8       1       1       8       1       1       8
       1       1       8       1       1       8       1       1       8       1
       1       8       1       1       8       1       1       8       1       1
       8       1       1       8       1       1       8       1       1       8
       1       1       8       1       1       8       1       1       8       1
       1       8       1       1       8       1       1       8       1       1
       8       1       1       8       1       1       8       1       1       8
       1       1       8       1       1       8       1       1       8       1
       1       8       1       1       8       1       1       8       1       1
       8       1       1       8       1       1       8       1       1       8
       1       1       8       1       1       8       1       1       8       1
       1       8       1       1       8       1       1       8       1       1
       8       1       1       8       1       1       8       1       1       8
       1       1       8       1       1       8       1       1       8       1
       1       8       1       1       8       1       1       8       1       1
       8       1       1       8       1       1       8       1       1       8
       1       1       8       1       1       8       1       1       8       1
       1       8       1       1       8       1       1       8       1       1
       8       1       1       8       1       1       8       1       1       8
       1       1       8       1       1       8       1       1       8       1
       1       8       1       1       8       1       1       8       1       1
       8       1       1       8       1       1       8       1       1       8
       1       1       8       1       1       8       1       1       8       1
       1       8       1       1       8       1       1       8       1       1
       8       1       1       8       1       1       8       1       1       8
       1       1       8       1       1       8       1       1       8       1
       1       8       1       1       8       1       1       8       1       1
       8       1       1       8       1       1       8       1       1       8
       1       1       8       1       1       8       1       1       8       1
       1       8       1       1       8       1       1       8       1       1
       8       1       1       8       1       1       8       1       1       8
       1       1       8       1       1       8       1       1       8       1
       1       8       1       1       8       1       1       8       1       1
       8       1       1       8       1       1       8       1       1       8
       1       1       8       1       1       8       1       1       8       1
       1       8       1       1       8       1       1       8       1       1
       8       1       1       8       1       1       8       1       1       8
       1       1       8       1       1       8       1       1       8       1
       1       8       1       1       8       1       1       8       1       1
       8       1       1       8       1       1       8       1       1       8
       1       1       8       1       1       8       1       1       8       1
       1       8       1       1       8       1       1       8       1       1
       8       1       1       8       1       1       8       1       1       8
       1       1       8       1       1       8       1       1       8       1
       1       8       1       1       8       1       1       8       1       1
       8       1       1       8       1       1       8       1       1       8
       1       1       8       1       1       8       1       1       8       1
       1       8       1       1       8       1       1       8       1       1
       8       1       1       8       1       1       8       1       1       8
       1       1       8       1       1       8       1       1       8       1
       1       8       1       1       8       1       1       8       1       1
       8       1       1       8       1       1       8       1       1       8
       1       1       8       1       1       8       1       1       8       1
       1       8       1       1       8       1       1       8       1       1
       8       1       1       8       1       1       8       1       1       8
       1       1       8       1       1       8       1       1       8       1
       1       8       1       1       8       1       1       8       1       1
       8       1       1       8       1       1       8       1       1       8
       1       1       8       1       1       8       1       1       8       1
       1       8       1       1       8       1       1       8       1       1
       8       1       1       8       1       1       8       1       1       8
       1       1       8       1       1       8       1       1       8       1
       1       8       1       1       8       1       1       8       1       1
       8       1       1       8       1       1       8       1       1       8
       1       1       8       1       1       8       1       1       8       1
       1       8       1       1       8       1       1       8       1       1
       8       1       1       8       1       1       8       1       1       8
       1       1       8       1       1       8       1       1       8       1
       1       8       1       1       8       1       1       8       1       1
       8       1       1       8       1       1       8       1       1       8
       1       1       8       1       1       8       1       1       8       1
       1       8       1       1       8       1       1       8       1       1
       8       1       1       8       1       1       8       1       1       8
       1       1       8       1       1       8       1       1       8       1
       1       8       1       1       8       1       1       8       1       1
       8       1       1       8       1       1       8       1       1       8
       1       1       8       1       1       8       1       1       8       1
       1       8       1       1       8       1       1       8       1       1
       8       1       1       8       1       1       8       1       1       8
       1       1       8       1       1       8       1       1       8       1
       1       8       1       1       8       1       1       8       1       1
       8       1       1       8       1       1       8       1       1       8
       1       1       8       1       1       8       1       1       8       1
       1       8       1       1       8       1       1       8       1       1
       8       1       1       8       1       1       8       1       1       8
       1       1       8       1       1       8       1       1       8       1
       1       8       1       1       8       1       1       8       1       1
       8       1       1       8       1       1       8       1       1       8
       1       1       8       1       1       8       1       1       8       1
       1       8       1       1       8       1       1       8       1       1
       8       1       1       8       1       1       8       1       1       8
       1       1       8       1       1       8       1       1       8       1
       1       8       1       1       8       1       1       8       1       1
       8       1       1       8       1       1       8       1       1       8
       1       1       8       1       1       8       1       1       8       1
       1       8       1       1       8       1       1       8       1       1
       8       1       1       8       1       1       8       1       1       8
       1       1       8       1       1       8       1       1       8       1
       1       8       1       1       8       1       1       8       1       1
       8       1       1       8       1       1       8       1       1       8
       1       1       8       1       1       8       1       1       8       1
       1       8       1       1       8       1       1       8       1       1
       8       1       1       8       1       1       8       1       1       8
       1       1       8       1       1       8       1       1       8       1
       1       8       1       1       8       1       1       8       1       1
       8       1       1       8       1       1       8       1       1       8
       1       1       8       1       1       8       1       1       8       1
       1       8       1       1       8       1       1       8       1       1
       8       1       1       8       1       1       8       1       1       8
       1       1       8       1       1       8       1       1       8       1
       1       8       1       1       8       1       1       8       1       1
       8       1       1       8       1       1       8       1       1       8
       1       1       8       1       1       8       1       1       8       1
       1       8       1       1       8       1       1       8       1       1
       8       1       1       8       1       1       8       1       1       8
       1       1       8       1       1       8       1       1       8       1
       1       8       1       1       8       1       1       8       1       1
       8       1       1       8       1       1       8       1       1       8
       1       1       8       1       1       8       1       1       8       1
       1       8       1       1       8       1       1       8       1       1
       8       1       1       8       1       1       8       1       1       8
       1       1       8       1       1       8       1       1       8       1
       1       8       1       1       8       1       1       8       1       1
       8       1       1       8       1       1       8       1       1       8
       1       1       8       1       1       8       1       1       8       1
       1       8       1       1       8       1       1       8       1       1
       8       1       1       8       1       1       8       1       1       8
       1       1       8       1       1       8       1       1       8       1
       1       8       1       1       8       1       1       8       1       1
       8       1       1       8       1       1       8       1       1       8
       1       1       8       1       1       8       1       1       8       1
       1       8       1       1       8       1       1       8       1       1
       8       1       1       8       1       1       8       1       1       8
       1       1       8       1       1       8       1       1       8       1
       1       8       1       1       8       1       1       8       1       1
       8       1       1       8       1       1       8       1       1       8
       1       1       8       1       1       8       1       1       8       1
       1       8       1       1       8       1       1       8       1       1
       8       1       1       8       1       1       8       1       1       8
       1       1       8       1       1       8       1       1       8       1
       1       8       1       1       8       1       1       8       1       1
       8       1       1       8       1       1       8       1       1       8
       1       1       8       1       1       8       1       1       8       1
       1       8       1       1       8       1       1       8       1       1
       8       1       1       8       1       1       8       1       1       8
       1       1       8       1       1       8       1       1       8       1
       1       8       1       1       8       1       1       8       1       1
       8       1       1       8       1       1       8       1       1       8
       1       1       8       1       1       8       1       1       8       1
       1       8       1       1       8       1       1       8       1       1
       8       1       1       8       1       1       8       1       1       8
       1       1       8       1       1       8       1       1       8       1
       1       8       1       1       8       1       1       8       1       1
       8       1       1       8       1       1       8       1       1       8
       1       1       8       1       1       8       1       1       8       1
       1       8       1       1       8       1       1       8       1       1
       8       1       1       8       1       1       8       1       1       8
       1       1       8       1       1       8       1       1       8       1
       1       8       1       1       8       1       1       8       1       1
       8       1       1       8       1       1       8       1       1       8
       1       1       8       1       1       8       1       1       8       1
       1       8       1       1       8       1       1       8       1       1
       8       1       1       8       1       1       8       1       1       8
       1       1       8       1       1       8       1       1       8       1
       1       8       1       1       8       1       1       8       1       1
       8       1       1       8       1       1       8       1       1       8
       1       1       8       1       1       8       1       1       8       1
       1       8       1       1       8       1       1       8       1       1
       8       1       1       8       1       1       8       1       1       8
       1       1       8       1       1       8       1       1       8       1
       1       8       1       1       8       1       1       8       1       1
       8       1       1       8       1       1       8       1       1       8
       1       1       8       1       1       8       1       1       8       1
       1       8       1       1       8       1       1       8       1       1
       8       1       1       8       1       1       8       1       1       8
       1       1       8       1       1       8       1       1       8       1
       1       8       1       1       8       1       1       8       1       1
       8       1       1       8       1       1       8       1       1       8
       1       1       8       1       1       8       1       1       8       1
       1       8       1       1       8       1       1       8       1       1
       8       1       1       8       1       1       8       1       1       8
       1       1       8       1       1       8       1       1       8       1
       1       8       1       1       8       1       1       8       1       1
       8       1       1       8       1       1       8       1       1       8
       1       1       8       1       1       8       1       1       8       1
       1       8       1       1       8       1       1       8       1       1
       8       1       1       8       1       1       8       1       1       8
       1       1       8       1       1       8       1       1       8       1
       1       8       1       1       8       1       1       8       1       1
       8       1       1       8       1       1       8       1       1       8
       1       1       8       1       1       8       1       1       8       1
       1       8       1       1       8       1       1       8       1       1
       8       1       1       8       1       1       8       1       1       8
       1       1       8       1       1       8       1       1       8       1
       1       8       1       1       8       1       1       8       1       1
       8       1       1       8       1       1       8       1       1       8
       1       1       8       1       1       8       1       1       8       1
       1       8       1       1       8       1       1       8       1       1
       8       1       1       8       1       1       8       1       1       8
       1       1       8       1       1       8       1       1       8       1
       1       8       1       1       8       1       1       8       1       1
       8       1       1       8       1       1       8       1       1       8
       1       1       8       1       1       8       1       1       8       1
       1       8       1       1       8       1       1       8       1       1
       8       1       1       8       1       1       8       1       1       8
       1       1       8       1       1       8       1       1       8       1
       1       8       1       1       8       1       1       8       1       1
       8       1       1       8       1       1       8       1       1       8
       1       1       8       1       1       8       1       1       8       1
       1       8       1       1       8       1       1       8       1       1
       8       1       1       8       1       1       8       1       1       8
       1       1       8       1       1       8       1       1       8       1
       1       8       1       1       8       1       1       8       1       1
       8       1       1       8       1       1       8       1       1       8
       1       1       8       1       1       8       1       1       8       1
       1       8       1       1       8       1       1       8       1       1
       8       1       1       8       1       1       8       1       1       8
       1       1       8       1       1       8       1       1       8       1
       1       8       1       1       8       1       1       8       1       1
       8       1       1       8       1       1       8       1       1       8
       1       1       8       1       1       8       1       1       8       1
       1       8       1       1       8       1       1       8       1       1
       8       1       1       8       1       1       8       1       1       8
       1       1       8       1       1       8       1       1       8       1
       1       8       1       1       8       1       1       8       1       1
       8       1       1       8       1       1       8       1       1       8
       1       1       8       1       1       8       1       1       8       1
       1       8       1       1       8       1       1       8       1       1
       8       1       1       8       1       1       8       1       1       8
       1       1       8       1       1       8       1       1       8       1
       1       8       1       1       8       1       1       8       1       1
       8       1       1       8       1       1       8       1       1       8
       1       1       8       1       1       8       1       1       8       1
       1       8       1       1       8       1       1       8       1       1
       8       1       1       8       1       1       8       1       1       8
       1       1       8       1       1       8       1       1       8       1
       1       8       1       1       8       1       1       8       1       1
       8       1       1       8       1       1       8       1       1       8
       1       1       8       1       1       8       1       1       8       1
       1       8       1       1       8       1       1       8       1       1
       8       1       1       8       1       1       8       1       1       8
       1       1       8       1       1       8       1       1       8       1
       1       8       1       1       8       1       1       8       1       1
       8       1       1       8       1       1       8       1       1       8
       1       1       8       1       1       8       1       1       8       1
       1       8       1       1       8       1       1       8       1       1
       8       1       1       8       1       1       8       1       1       8
       1       1       8       1       1       8       1       1       8       1
       1       8       1       1       8       1       1       8       1       1
       8       1       1       8       1       1       8       1       1       8
       1       1       8       1       1       8       1       1       8       1
       1       8       1       1       8       1       1       8       1       1
       8       1       1       8       1       1       8       1       1       8
       1       1       8       1       1       8       1       1       8       1
       1       8       1       1       8       1       1       8       1       1
       8       1       1       8       1       1       8       1       1       8
       1       1       8       1       1       8       1       1       8       1
       1       8       1       1       8       1       1       8       1       1
       8       1       1       8       1       1       8       1       1       8
       1       1       8       1       1       8       1       1       8       1
       1       8       1       1       8       1       1       8       1       1
       8       1       1       8       1       1       8       1       1       8
       1       1       8       1       1       8       1       1       8       1
       1       8       1       1       8       1       1       8       1       1
       8       1       1       8       1       1       8       1       1       8
       1       1       8       1       1       8       1       1       8       1
       1       8       1       1       8       1       1       8       1       1
       8       1       1       8       1       1       8       1       1       8
       1       1       8       1       1       8       1       1       8       1
       1       8       1       1       8       1       1       8       1       1
       8       1       1       8       1       1       8       1       1       8
       1       1       8       1       1       8       1       1       8       1
       1       8       1       1       8       1       1       8       1       1
       8       1       1       8       1       1       8       1       1       8
       1       1       8       1       1       8       1       1       8       1
       1       8       1       1       8       1       1       8       1       1
       8       1       1       8       1       1       8       1       1       8
       1       1       8       1       1       8       1       1       8       1
       1       8       1       1       8       1       1       8       1       1
       8       1       1       8       1       1       8       1       1       8
       1       1       8       1       1       8       1       1       8       1
       1       8       1       1       8       1       1       8       1       1
       8       1       1       8       1       1       8       1       1       8
       1       1       8       1       1       8       1       1       8       1
       1       8       1       1       8       1       1       8       1       1
       8       1       1       8       1       1       8       1       1       8
       1       1       8       1       1       8       1       1       8       1
       1       8       1       1       8       1       1       8       1       1
       8       1       1       8       1       1       8       1       1       8
       1       1       8       1       1       8       1       1       8       1
       1       8       1       1       8       1       1       8       1       1
       8       1       1       8       1       1       8       1       1       8
       1       1       8       1       1       8       1       1       8       1
       1       8       1       1       8       1       1       8       1       1
       8       1       1       8       1       1       8       1       1       8
       1       1       8       1       1       8       1       1       8       1
       1       8       1       1       8       1       1       8       1       1
       8       1       1       8       1       1       8       1       1       8
       1       1       8       1       1       8       1       1       8       1
       1       8       1       1       8       1       1       8       1       1
       8       1       1       8       1       1       8       1       1       8
       1       1       8       1       1       8       1       1       8       1
       1       8       1       1       8       1       1       8       1       1
       8       1       1       8       1       1       8       1       1       8
       1       1       8       1       1       8       1       1       8       1
       1       8       1       1       8       1       1       8       1       1
       8       1       1       8       1       1       8       1       1       8
       1       1       8       1       1       8       1       1       8       1
       1       8       1       1       8       1       1       8       1       1
       8       1       1       8       1       1       8       1       1       8
       1       1       8       1       1       8       1       1       8       1
       1       8       1       1       8       1       1       8       1       1
       8       1       1       8       1       1       8       1       1       8
       1       1       8       1       1       8       1       1       8       1
       1       8       1       1       8       1       1       8       1       1
       8       1       1       8       1       1       8       1       1       8
       1       1       8       1       1       8       1       1       8       1
       1       8       1       1       8       1       1       8       1       1
       8       1       1       8       1       1       8       1       1       8
       1       1       8       1       1       8       1       1       8       1
       1       8       1       1       8       1       1       8       1       1
       8       1       1       8       1       1       8       1       1       8
       1       1       8       1       1       8       1       1       8       1
       1       8       1       1       8       1       1       8       1       1
       8       1       1       8       1       1       8       1       1       8
       1       1       8       1       1       8       1       1       8       1
       1       8       1       1       8       1       1       8       1       1
       8       1       1       8       1       1       8       1       1       8
       1       1       8       1       1       8       1       1       8       1
       1       8       1       1       8       1       1       8       1       1
       8       1       1       8       1       1       8       1       1       8
       1       1       8       1       1       8       1       1       8       1
       1       8       1       1       8       1       1       8       1       1
       8       1       1       8       1       1       8       1       1       8
       1       1       8       1       1       8       1       1       8       1
       1       8       1       1       8       1       1       8       1       1
       8       1       1       8       1       1       8       1       1       8
       1       1       8       1       1       8       1       1       8       1
       1       8       1       1       8       1       1       8       1       1
       8       1       1       8       1       1       8       1       1       8
       1       1       8       1       1       8       1       1       8       1
       1       8       1       1       8       1       1       8       1       1
       8       1       1       8       1       1       8       1       1       8
       1       1       8       1       1       8       1       1       8       1
       1       8       1       1       8       1       1       8       1       1
       8       1       1       8       1       1       8       1       1       8
       1       1       8       1       1       8       1       1       8       1
       1       8       1       1       8       1       1       8       1       1
       8       1       1       8       1       1       8       1       1       8
       1       1       8       1       1       8       1       1       8       1
       1       8       1       1       8       1       1       8       1       1
       8       1       1       8       1       1       8       1       1       8
       1       1       8       1       1       8       1       1       8       1
       1       8       1       1       8       1       1       8       1       1
       8       1       1       8       1       1       8       1       1       8
       1       1       8       1       1       8       1       1       8       1
       1       8       1       1       8       1       1       8       1       1
       8       1       1       8       1       1       8       1       1       8
       1       1       8       1       1       8       1       1       8       1
       1       8       1       1       8       1       1       8       1       1
       8       1       1       8       1       1       8       1       1       8
       1       1       8       1       1       8       1       1       8       1
       1       8       1       1       8       1       1       8       1       1
       8       1       1       8       1       1       8       1       1       8
       1       1       8       1       1       8       1       1       8       1
       1       8       1       1       8       1       1       8       1       1
       8       1       1       8       1       1       8       1       1       8
       1       1       8       1       1       8       1       1       8       1
       1       8       1       1       8       1       1       8       1       1
       8       1       1       8       1       1       8       1       1       8
       1       1       8       1       1       8       1       1       8       1
       1       8       1       1       8       1       1       8       1       1
       8       1       1       8       1       1       8       1       1       8
       1       1       8       1       1       8       1       1       8       1
       1       8       1       1       8       1       1       8       1       1
       8       1       1       8       1       1       8       1       1       8
       1       1       8       1       1       8       1       1       8       1
       1       8       1       1       8       1       1       8       1       1
       8       1       1       8       1       1       8       1       1       8
       1       1       8       1       1       8       1       1       8       1
       1       8       1       1       8       1       1       8       1       1
       8       1       1       8       1       1       8       1       1       8
       1       1       8       1       1       8       1       1       8       1
       1       8       1       1       8       1       1       8       1       1
       8       1       1       8       1       1       8       1       1       8
       1       1       8       1       1       8       1       1       8       1
       1       8       1       1       8       1       1       8       1       1
       8       1       1       8       1       1       8       1       1       8
       1       1       8       1       1       8       1       1       8       1
       1       8       1       1       8       1       1       8       1       1
       8       1       1       8       1       1       8       1       1       8
       1       1       8       1       1       8       1       1       8       1
       1       8       1       1       8       1       1       8       1       1
       8       1       1       8       1       1       8       1       1       8
       1       1       8       1       1       8       1       1       8       1
       1       8       1       1       8       1       1       8       1       1
       8       1       1       8       1       1       8       1       1       8
       1       1       8       1       1       8       1       1       8       1
       1       8       1       1       8       1       1       8       1       1
       8       1       1       8       1       1       8       1       1       8
       1       1       8       1       1       8       1       1       8       1
       1       8       1       1       8       1       1       8       1       1
       8       1       1       8       1       1       8       1       1       8
       1       1       8       1       1       8       1       1       8       1
       1       8       1       1       8       1       1       8       1       1
       8       1       1       8       1       1       8       1       1       8
       1       1       8       1       1       8       1       1       8       1
       1       8       1       1       8       1       1       8       1       1
       8       1       1       8       1       1       8       1       1       8
       1       1       8       1       1       8       1       1       8       1
       1       8       1       1       8       1       1       8       1       1
       8       1       1       8       1       1       8       1       1       8
       1       1       8       1       1       8       1       1       8       1
       1       8       1       1       8       1       1       8       1       1
       8       1       1       8       1       1       8       1       1       8
       1       1       8       1       1       8       1       1       8       1
       1       8       1       1       8       1       1       8       1       1
       8       1       1       8       1       1       8       1       1       8
       1       1       8       1       1       8       1       1       8       1
       1       8       1       1       8       1       1       8       1       1
       8       1       1       8       1       1       8       1       1       8
       1       1       8       1       1       8       1       1       8       1
       1       8       1       1       8       1       1       8       1       1
       8       1       1       8       1       1       8       1       1       8
       1       1       8       1       1       8       1       1       8       1
       1       8       1       1       8       1       1       8       1       1
       8       1       1       8       1       1       8       1       1       8
       1       1       8       1       1       8       1       1       8       1
       1       8       1       1       8       1       1       8       1       1
       8       1       1       8       1       1       8       1       1       8
       1       1       8       1       1       8       1       1       8       1
       1       8       1       1       8       1       1       8       1       1
       8       1       1       8       1       1       8       1       1       8
       1       1       8       1       1       8       1       1       8       1
       1       8       1       1       8       1       1       8       1       1
       8       1       1       8       1       1       8       1       1       8
       1       1       8       1       1       8       1       1       8       1
       1       8       1       1       8       1       1       8       1       1
       8       1       1       8       1       1       8       1       1       8
       1       1       8       1       1       8       1       1       8       1
       1       8       1       1       8       1       1       8       1       1
       8       1       1       8       1       1       8       1       1       8
       1       1       8       1       1       8       1       1       8       1
       1       8       1       1       8       1       1       8       1       1
       8       1       1       8       1       1       8       1       1       8
       1       1       8       1       1       8       1       1       8       1
       1       8       1       1       8       1       1       8       1       1
       8       1       1       8       1       1       8       1       1       8
       1       1       8       1       1       8       1       1       8       1
       1       8       1       1       8       1       1       8       1       1
       8       1       1       8       1       1       8       1       1       8
       1       1       8       1       1       8       1       1       8       1
       1       8       1       1       8       1       1       8       1       1
       8       1       1       8       1       1       8       1       1       8
       1       1       8       1       1       8       1       1       8       1
       1       8       1       1       8       1       1       8       1       1
       8       1       1       8       1       1       8       1       1       8
       1       1       8       1       1       8       1       1       8       1
       1       8       1       1       8       1       1       8       1       1
       8       1       1       8       1       1       8       1       1       8
       1       1       8       1       1       8       1       1       8       1
       1       8       1       1       8       1       1       8       1       1
       8       1       1       8       1       1       8       1       1       8
       1       1       8       1       1       8       1       1       8       1
       1       8       1       1       8       1       1       8       1       1
       8       1       1       8       1       1       8       1       1       8
       1       1       8       1       1       8       1       1       8       1
       1       8       1       1       8       1       1       8       1       1
       8       1       1       8       1       1       8       1       1       8
       1       1       8       1       1       8       1       1       8       1
       1       8       1       1       8       1       1       8       1       1
       8       1       1       8       1       1       8       1       1       8
       1       1       8       1       1       8       1       1       8       1
       1       8       1       1       8       1       1       8       1       1
       8       1       1       8       1       1       8       1       1       8
       1       1       8       1       1       8       1       1       8       1
       1       8       1       1       8       1       1       8       1       1
       8       1       1       8       1       1       8       1       1       8
       1       1       8       1       1       8       1       1       8       1
       1       8       1       1       8       1       1       8       1       1
       8       1       1       8       1       1       8       1       1       8
       1       1       8       1       1       8       1       1       8       1
       1       8       1       1       8       1       1       8       1       1
       8       1       1       8       1       1       8       1       1       8
       1       1       8       1       1       8       1       1       8       1
       1       8       1       1       8       1       1       8       1       1
       8       1       1       8       1       1       8       1       1       8
       1       1       8       1       1       8       1       1       8       1
       1       8       1       1       8       1       1       8       1       1
       8       1       1       8       1       1       8       1       1       8
       1       1       8       1       1       8       1       1       8       1
       1       8       1       1       8       1       1       8       1       1
       8       1       1       8       1       1       8       1       1       8
       1       1       8       1       1       8       1       1       8       1
       1       8       1       1       8       1       1       8       1       1
       8       1       1       8       1       1       8       1       1       8
       1       1       8       1       1       8       1       1       8       1
       1       8       1       1       8       1       1       8       1       1
       8       1       1       8       1       1       8       1       1       8
       1       1       8       1       1       8       1       1       8       1
       1       8       1       1       8       1       1       8       1       1
       8       1       1       8       1       1       8       1       1       8
       1       1       8       1       1       8       1       1       8       1
       1       8       1       1       8       1       1       8       1       1
       8       1       1       8       1       1       8       1       1       8
       1       1       8       1       1       8       1       1       8       1
       1       8       1       1       8       1       1       8       1       1
       8       1       1       8       1       1       8       1       1       8
       1       1       8       1       1       8       1       1       8       1
       1       8       1       1       8       1       1       8       1       1
       8       1       1       8       1       1       8       1       1       8
       1       1       8       1       1       8       1       1       8       1
       1       8       1       1       8       1       1       8       1       1
       8       1       1       8       1       1       8       1       1       8
       1       1       8       1       1       8       1       1       8       1
       1       8       1       1       8       1       1       8       1       1
       8       1       1       8       1       1       8       1       1       8
       1       1       8       1       1       8       1       1       8       1
       1       8       1       1       8       1       1       8       1       1
       8       1       1       8       1       1       8       1       1       8
       1       1       8       1       1       8       1       1       8       1
       1       8       1       1       8       1       1       8       1       1
       8       1       1       8       1       1       8       1       1       8
       1       1       8       1       1       8       1       1       8       1
       1       8       1       1       8       1       1       8       1       1
       8       1       1       8       1       1       8       1       1       8
       1       1       8       1       1       8       1       1       8       1
       1       8       1       1       8       1       1       8       1       1
       8       1       1       8       1       1       8       1       1       8
       1       1       8       1       1       8       1       1       8       1
       1       8       1       1       8       1       1       8       1       1
       8       1       1       8       1       1       8       1       1       8
       1       1       8       1       1       8       1       1       8       1
       1       8       1       1       8       1       1       8       1       1
       8       1       1       8       1       1       8       1       1       8
       1       1       8       1       1       8       1       1       8       1
       1       8       1       1       8       1       1       8       1       1
       8       1       1       8       1       1       8       1       1       8
       1       1       8       1       1       8       1       1       8       1
       1       8       1       1       8       1       1       8       1       1
       8       1       1       8       1       1       8       1       1       8
       1       1       8       1       1       8       1       1       8       1
       1       8       1       1       8       1       1       8       1       1
       8       1       1       8       1       1       8       1       1       8
       1       1       8       1       1       8       1       1       8       1
       1       8       1       1       8       1       1       8       1       1
       8       1       1       8       1       1       8       1       1       8
       1       1       8       1       1       8       1       1       8       1
       1       8       1       1       8       1       1       8       1       1
       8       1       1       8       1       1       8       1       1       8
       1       1       8       1       1       8       1       1       8       1
       1       8       1       1       8       1       1       8       1       1
       8       1       1       8       1       1       8       1       1       8
       1       1       8       1       1       8       1       1       8       1
       1       8       1       1       8       1       1       8       1       1
       8       1       1       8       1       1       8       1       1       8
       1       1       8       1       1       8       1       1       8       1
       1       8       1       1       8       1       1       8       1       1
       8       1       1       8       1       1       8       1       1       8
       1       1       8       1       1       8       1       1       8       1
       1       8       1       1       8       1       1       8       1       1
       8       1       1       8       1       1       8       1       1       8
       1       1       8       1       1       8       1       1       8       1
       1       8       1       1       8       1       1       8       1       1
       8       1       1       8       1       1       8       1       1       8
       1       1       8       1       1       8       1       1       8       1
       1       8       1       1       8       1       1       8       1       1
       8       1       1       8       1       1       8       1       1       8
       1       1       8       1       1       8       1       1       8       1
       1       8       1       1       8       1       1       8       1       1
       8       1       1       8       1       1       8       1       1       8
       1       1       8       1       1       8       1       1       8       1
       1       8       1       1       8       1       1       8       1       1
       8       1       1       8       1       1       8       1       1       8
       1       1       8       1       1       8       1       1       8       1
       1       8       1       1       8       1       1       8       1       1
       8       1       1       8       1       1       8       1       1       8
       1       1       8       1       1       8       1       1       8       1
       1       8       1       1       8       1       1       8       1       1
       8       1       1       8       1       1       8       1       1       8
       1       1       8       1       1       8       1       1       8       1
       1       8       1       1       8       1       1       8       1       1
       8       1       1       8       1       1       8       1       1       8
       1       1       8       1       1       8       1       1       8       1
       1       8       1       1       8       1       1       8       1       1
       8       1       1       8       1       1       8       1       1       8
       1       1       8       1       1       8       1       1       8       1
       1       8       1       1       8       1       1       8       1       1
       8       1       1       8       1       1       8       1       1       8
       1       1       8       1       1       8       1       1       8       1
       1       8       1       1       8       1       1       8       1       1
       8       1       1       8       1       1       8       1       1       8
       1       1       8       1       1       8       1       1       8       1
       1       8       1       1       8       1       1       8       1       1
       8       1       1       8       1       1       8       1       1       8
       1       1       8       1       1       8       1       1       8       1
       1       8       1       1       8       1       1       8       1       1
       8       1       1       8       1       1       8       1       1       8
       1       1       8       1       1       8       1       1       8       1
       1       8       1       1       8       1       1       8       1       1
       8       1       1       8       1       1       8       1       1       8
       1       1       8       1       1       8       1       1       8       1
       1       8       1       1       8       1       1       8       1       1
       8       1       1       8       1       1       8       1       1       8
       1       1       8       1       1       8       1       1       8       1
       1       8       1       1       8       1       1       8       1       1
       8       1       1       8       1       1       8       1       1       8
       1       1       8       1       1       8       1       1       8       1
       1       8       1       1       8       1       1       8       1       1
       8       1       1       8       1       1       8       1       1       8
       1       1       8       1       1       8       1       1       8       1
       1       8       1       1       8       1       1       8       1       1
       8       1       1       8       1       1       8       1       1       8
       1       1       8       1       1       8       1       1       8       1
       1       8       1       1       8       1       1       8       1       1
       8       1       1       8       1       1       8       1       1       8
       1       1       8       1       1       8       1       1       8       1
       1       8       1       1       8       1       1       8       1       1
       8       1       1       8       1       1       8       1       1       8
       1       1       8       1       1       8       1       1       8       1
       1       8       1       1       8       1       1       8       1       1
       8       1       1       8       1       1       8       1       1       8
       1       1       8       1       1       8       1       1       8       1
       1       8       1       1       8       1       1       8       1       1
       8       1       1       8       1       1       8       1       1       8
       1       1       8       1       1       8       1       1       8       1
       1       8       1       1       8       1       1       8       1       1
       8       1       1       8       1       1       8       1       1       8
       1       1       8       1       1       8       1       1       8       1
       1       8       1       1       8       1       1       8       1       1
       8       1       1       8       1       1       8       1       1       8
       1       1       8       1       1       8       1       1       8       1
       1       8       1       1       8       1       1       8       1       1
       8       1       1       8       1       1       8       1       1       8
       1       1       8       1       1       8       1       1       8       1
       1       8       1       1       8       1       1       8       1       1
       8       1       1       8       1       1       8       1       1       8
       1       1       8       1       1       8       1       1       8       1
       1       8       1       1       8       1       1       8       1       1
       8       1       1       8       1       1       8       1       1       8
       1       1       8       1       1       8       1       1       8       1
       1       8       1       1       8       1       1       8       1       1
       8       1       1       8       1       1       8       1       1       8
       1       1       8       1       1       8       1       1       8       1
       1       8       1       1       8       1       1       8       1       1
       8       1       1       8       1       1       8       1       1       8
       1       1       8       1       1       8       1       1       8       1
       1       8       1       1       8       1       1       8       1       1
       8       1       1       8       1       1       8       1       1       8
       1       1       8       1       1       8       1       1       8       1
       1       8       1       1       8       1       1       8       1       1
       8       1       1       8       1       1       8       1       1       8
       1       1       8       1       1       8       1       1       8       1
       1       8       1       1       8       1       1       8       1       1
       8       1       1       8       1       1       8       1       1       8
       1       1       8       1       1       8       1       1       8       1
       1       8       1       1       8       1       1       8       1       1
       8       1       1       8       1       1       8       1       1       8
       1       1       8       1       1       8       1       1       8       1
       1       8       1       1       8       1       1       8       1       1
       8       1       1       8       1       1       8       1       1       8
       1       1       8       1       1       8       1       1       8       1
       1       8       1       1       8       1       1       8       1       1
       8       1       1       8       1       1       8       1       1       8
       1       1       8       1       1       8       1       1       8       1
       1       8       1       1       8       1       1       8       1       1
       8       1       1       8       1       1       8       1       1       8
       1       1       8       1       1       8       1       1       8       1
       1       8       1       1       8       1       1       8       1       1
       8       1       1       8       1       1       8       1       1       8
       1       1       8       1       1       8       1       1       8       1
       1       8       1       1       8       1       1       8       1       1
       8       1       1       8       1       1       8       1       1       8
       1       1       8       1       1       8       1       1       8       1
       1       8       1       1       8       1       1       8       1       1
       8       1       1       8       1       1       8       1       1       8
       1       1       8       1       1       8       1       1       8       1
       1       8       1       1       8       1       1       8       1       1
       8       1       1       8       1       1       8       1       1       8
       1       1       8       1       1       8       1       1       8       1
       1       8       1       1       8       1       1       8       1       1
       8       1       1       8       1       1       8       1       1       8
       1       1       8       1       1       8       1       1       8       1
       1       8       1       1       8       1       1       8       1       1
       8       1       1       8       1       1       8       1       1       8
       1       1       8       1       1       8       1       1       8       1
       1       8       1       1       8       1       1       8       1       1
       8       1       1       8       1       1       8       1       1       8
       1       1       8       1       1       8       1       1       8       1
       1       8       1       1       8       1       1       8       1       1
       8       1       1       8       1       1       8       1       1       8
       1       1       8       1       1       8       1       1       8       1
       1       8       1       1       8       1       1       8       1       1
       8       1       1       8       1       1       8       1       1       8
       1       1       8       1       1       8       1       1       8       1
       1       8       1       1       8       1       1       8       1       1
       8       1       1       8       1       1       8       1       1       8
       1       1       8       1       1       8       1       1       8       1
       1       8       1       1       8       1       1       8       1       1
       8       1       1       8       1       1       8       1       1       8
       1       1       8       1       1       8       1       1       8       1
       1       8       1       1       8       1       1       8       1       1
       8       1       1       8       1       1       8       1       1       8
       1       1       8       1       1       8       1       1       8       1
       1       8       1       1       8       1       1       8       1       1
       8       1       1       8       1       1       8       1       1       8
       1       1       8       1       1       8       1       1       8       1
       1       8       1       1       8       1       1       8       1       1
       8       1       1       8       1       1       8       1       1       8
       1       1       8       1       1       8       1       1       8       1
       1       8       1       1       8       1       1       8       1       1
       8       1       1       8       1       1       8       1       1       8
       1       1       8       1       1       8       1       1       8       1
       1       8       1       1       8       1       1       8       1       1
       8       1       1       8       1       1       8       1       1       8
       1       1       8       1       1       8       1       1       8       1
       1       8       1       1       8       1       1       8       1       1
       8       1       1       8       1       1       8       1       1       8
       1       1       8       1       1       8       1       1       8       1
       1       8       1       1       8       1       1       8       1       1
       8       1       1       8       1       1       8       1       1       8
       1       1       8       1       1       8       1       1       8       1
       1       8       1       1       8       1       1       8       1       1
       8       1       1       8       1       1       8       1       1       8
       1       1       8       1       1       8       1       1       8       1
       1       8       1       1       8       1       1       8       1       1
       8       1       1       8       1       1       8       1       1       8
       1       1       8       1       1       8       1       1       8       1
       1       8       1       1       8       1       1       8       1       1
       8       1       1       8       1       1       8       1       1       8
       1       1       8       1       1       8       1       1       8       1
       1       8       1       1       8       1       1       8       1       1
       8       1       1       8       1       1       8       1       1       8
       1       1       8       1       1       8       1       1       8       1
       1       8       1       1       8       1       1       8       1       1
       8       1       1       8       1       1       8       1       1       8
       1       1       8       1       1       8       1       1       8       1
       1       8       1       1       8       1       1       8       1       1
       8       1       1       8       1       1       8       1       1       8
       1       1       8       1       1       8       1       1       8       1
       1       8       1       1       8       1       1       8       1       1
       8       1       1       8       1       1       8       1       1       8
       1       1       8       1       1       8       1       1       8       1
       1       8       1       1       8       1       1       8       1       1
       8       1       1       8       1       1       8       1       1       8
       1       1       8       1       1       8       1       1       8       1
       1       8       1       1       8       1       1       8       1       1
       8       1       1       8       1       1       8       1       1       8
       1       1       8       1       1       8       1       1       8       1
       1       8       1       1       8       1       1       8       1       1
       8       1       1       8       1       1       8       1       1       8
       1       1       8       1       1       8       1       1       8       1
       1       8       1       1       8       1       1       8       1       1
       8       1       1       8       1       1       8       1       1       8
       1       1       8       1       1       8       1       1       8       1
       1       8       1       1       8       1       1       8       1       1
       8       1       1       8       1       1       8       1       1       8
       1       1       8       1       1       8       1       1       8       1
       1       8       1       1       8       1       1       8       1       1
       8       1       1       8       1       1       8       1       1       8
       1       1       8       1       1       8       1       1       8       1
       1       8       1       1       8       1       1       8       1       1
       8       1       1       8       1       1       8       1       1       8
       1       1       8       1       1       8       1       1       8       1
       1       8       1       1       8       1       1       8       1       1
       8       1       1       8       1       1       8       1       1       8
       1       1       8       1       1       8       1       1       8       1
       1       8       1       1       8       1       1       8       1       1
       8       1       1       8       1       1       8       1       1       8
       1       1       8       1       1       8       1       1       8       1
       1       8       1       1       8       1       1       8       1       1
       8       1       1       8       1       1       8       1       1       8
       1       1       8       1       1       8       1       1       8       1
       1       8       1       1       8       1       1       8       1       1
       8       1       1       8       1       1       8       1       1       8
       1       1       8       1       1       8       1       1       8       1
       1       8       1       1       8       1       1       8       1       1
       8       1       1       8       1       1       8       1       1       8
       1       1       8       1       1       8       1       1       8       1
       1       8       1       1       8       1       1       8       1       1
       8       1       1       8       1       1       8       1       1       8
       1       1       8       1       1       8       1       1       8       1
       1       8       1       1       8       1       1       8       1       1
       8       1       1       8       1       1       8       1       1       8
       1       1       8       1       1       8       1       1       8       1
       1       8       1       1       8       1       1       8       1       1
       8       1       1       8       1       1       8       1       1       8
       1       1       8       1       1       8       1       1       8       1
       1       8       1       1       8       1       1       8       1       1
       8       1       1       8       1       1       8       1       1       8
       1       1       8       1       1       8       1       1       8       1
       1       8       1       1       8       1       1       8       1       1
       8       1       1       8       1       1       8       1       1       8
       1       1       8       1       1       8       1       1       8       1
       1       8       1       1       8       1       1       8       1       1
       8       1       1       8       1       1       8       1       1       8
       1       1       8       1       1       8       1       1       8       1
       1       8       1       1       8       1       1       8       1       1
       8       1       1       8       1       1       8       1       1       8
       1       1       8       1       1       8       1       1       8       1
       1       8       1       1       8       1       1       8       1       1
       8       1       1       8       1       1       8       1       1       8
       1       1       8       1       1       8       1       1       8       1
       1       8       1       1       8       1       1       8       1       1
       8       1       1       8       1       1       8       1       1       8
       1       1       8       1       1       8       1       1       8       1
       1       8       1       1       8       1       1       8       1       1
       8       1       1       8       1       1       8       1       1       8
       1       1       8       1       1       8       1       1       8       1
       1       8       1       1       8       1       1       8       1       1
       8       1       1       8       1       1       8       1       1       8
       1       1       8       1       1       8       1       1       8       1
       1       8       1       1       8       1       1       8       1       1
       8       1       1       8       1       1       8       1       1       8
       1       1       8       1       1       8       1       1       8       1
       1       8       1       1       8       1       1       8       1       1
       8       1       1       8       1       1       8       1       1       8
       1       1       8       1       1       8       1       1       8       1
       1       8       1       1       8       1       1       8       1       1
       8       1       1       8       1       1       8       1       1       8
       1       1       8       1       1       8       1       1       8       1
       1       8       1       1       8       1       1       8       1       1
       8       1       1       8       1       1       8       1       1       8
       1       1       8       1       1       8       1       1       8       1
       1       8       1       1       8       1       1       8       1       1
       8       1       1       8       1       1       8       1       1       8
       1       1       8       1       1       8       1       1       8       1
       1       8       1       1       8       1       1       8       1       1
       8       1       1       8       1       1       8       1       1       8
       1       1       8       1       1       8       1       1       8       1
       1       8       1       1       8       1       1       8       1       1
       8       1       1       8       1       1       8       1       1       8
       1       1       8       1       1       8       1       1       8       1
       1       8       1       1       8       1       1       8       1       1
       8       1       1       8       1       1       8       1       1       8
       1       1       8       1       1       8       1       1       8       1
       1       8       1       1       8       1       1       8       1       1
       8       1       1       8       1       1       8       1       1       8
       1       1       8       1       1       8       1       1       8       1
       1       8       1       1       8       1       1       8       1       1
       8       1       1       8       1       1       8       1       1       8
       1       1       8       1       1       8       1       1       8       1
       1       8       1       1       8       1       1       8       1       1
       8       1       1       8       1       1       8       1       1       8
       1       1       8       1       1       8       1       1       8       1
       1       8       1       1       8       1       1       8       1       1
       8       1       1       8       1       1       8       1       1       8
       1       1       8       1       1       8       1       1       8       1
       1       8       1       1       8       1       1       8       1       1
       8       1       1       8       1       1       8       1       1       8
       1       1       8       1       1       8       1       1       8       1
       1       8       1       1       8       1       1       8       1       1
       8       1       1       8       1       1       8       1       1       8
       1       1       8       1       1       8       1       1       8       1
       1       8       1       1       8       1       1       8       1       1
       8       1       1       8       1       1       8       1       1       8
       1       1       8       1       1       8       1       1       8       1
       1       8       1       1       8       1       1       8       1       1
       8       1       1       8       1       1       8       1       1       8
       1       1       8       1       1       8       1       1       8       1
       1       8       1       1       8       1       1       8       1       1
       8       1       1       8       1       1       8       1       1       8
       1       1       8       1       1       8       1       1       8       1
       1       8       1       1       8       1       1       8       1       1
       8       1       1       8       1       1       8       1       1       8
       1       1       8       1       1       8       1       1       8       1
       1       8       1       1       8       1       1       8       1       1
       8       1       1       8       1       1       8       1       1       8
       1       1       8       1       1       8       1       1       8       1
       1       8       1       1       8       1       1       8       1       1
       8       1       1       8       1       1       8       1       1       8
       1       1       8       1       1       8       1       1       8       1
       1       8       1       1       8       1       1       8       1       1
       8       1       1       8       1       1       8       1       1       8
       1       1       8       1       1       8       1       1       8       1
       1       8       1       1       8       1       1       8       1       1
       8       1       1       8       1       1       8       1       1       8
       1       1       8       1       1       8       1       1       8       1
       1       8       1       1       8       1       1       8       1       1
       8       1       1       8       1       1       8       1       1       8
       1       1       8       1       1       8       1       1       8       1
       1       8       1       1       8       1       1       8       1       1
       8       1       1       8       1       1       8       1       1       8
       1       1       8       1       1       8       1       1       8       1
       1       8       1       1       8       1       1       8       1       1
       8       1       1       8       1       1       8       1       1       8
       1       1       8       1       1       8       1       1       8       1
       1       8       1       1       8       1       1       8       1       1
       8       1       1       8       1       1       8       1       1       8
       1       1       8       1       1       8       1       1       8       1
       1       8       1       1       8       1       1       8       1       1
       8       1       1       8       1       1       8       1       1       8
       1       1       8       1       1       8       1       1       8       1
       1       8       1       1       8       1       1       8       1       1
       8       1       1       8       1       1       8       1       1       8
       1       1       8       1       1       8       1       1       8       1
       1       8       1       1       8       1       1       8       1       1
       8       1       1       8       1       1       8       1       1       8
       1       1       8       1       1       8       1       1       8       1
       1       8       1       1       8       1       1       8       1       1
       8       1       1       8       1       1       8       1       1       8
       1       1       8       1       1       8       1       1       8       1
       1       8       1       1       8       1       1       8       1       1
       8       1       1       8       1       1       8       1       1       8
       1       1       8       1       1       8       1       1       8       1
       1       8       1       1       8       1       1       8       1       1
       8       1       1       8       1       1       8       1       1       8
       1       1       8       1       1       8       1       1       8       1
       1       8       1       1       8       1       1       8       1       1
       8       1       1       8       1       1       8       1       1       8
       1       1       8       1       1       8       1       1       8       1
       1       8       1       1       8       1       1       8       1       1
       8       1       1       8       1       1       8       1       1       8
       1       1       8       1       1       8       1       1       8       1
       1       8       1       1       8       1       1       8       1       1
       8       1       1       8       1       1       8       1       1       8
       1       1       8       1       1       8       1       1       8       1
       1       8       1       1       8       1       1       8       1       1
       8       1       1       8       1       1       8       1       1       8
       1       1       8       1       1       8       1       1       8       1
       1       8       1       1       8       1       1       8       1       1
       8       1       1       8       1       1       8       1       1       8
       1       1       8       1       1       8       1       1       8       1
       1       8       1       1       8       1       1       8       1       1
       8       1       1       8       1       1       8       1       1       8
       1       1       8       1       1       8       1       1       8       1
       1       8       1       1       8       1       1       8       1       1
       8       1       1       8       1       1       8       1       1       8
       1       1       8       1       1       8       1       1       8       1
       1       8       1       1       8       1       1       8       1       1
       8       1       1       8       1       1       8       1       1       8
       1       1       8       1       1       8       1       1       8       1
       1       8       1       1       8       1       1       8       1       1
       8       1       1       8       1       1       8       1       1       8
       1       1       8       1       1       8       1       1       8       1
       1       8       1       1       8       1       1       8       1       1
       8       1       1       8       1       1       8       1       1       8
       1       1       8       1       1       8       1       1       8       1
       1       8       1       1       8       1       1       8       1       1
       8       1       1       8       1       1       8       1       1       8
       1       1       8       1       1       8       1       1       8       1
       1       8       1       1       8       1       1       8       1       1
       8       1       1       8       1       1       8       1       1       8
       1       1       8       1       1       8       1       1       8       1
       1       8       1       1       8       1       1       8       1       1
       8       1       1       8       1       1       8       1       1       8
       1       1       8       1       1       8       1       1       8       1
       1       8       1       1       8       1       1       8       1       1
       8       1       1       8       1       1       8       1       1       8
       1       1       8       1       1       8       1       1       8       1
       1       8       1       1       8       1       1       8       1       1
       8       1       1       8       1       1       8       1       1       8
       1       1       8       1       1       8       1       1       8       1
       1       8       1       1       8       1       1       8       1       1
       8       1       1       8       1       1       8       1       1       8
       1       1       8       1       1       8       1       1       8       1
       1       8       1       1       8       1       1       8       1       1
       8       1       1       8       1       1       8       1       1       8
       1       1       8       1       1       8       1       1       8       1
       1       8       1       1       8       1       1       8       1       1
       8       1       1       8       1       1       8       1       1       8
       1       1       8       1       1       8       1       1       8       1
       1       8       1       1       8       1       1       8       1       1
       8       1       1       8       1       1       8       1       1       8
       1       1       8       1       1       8       1       1       8       1
       1       8       1       1       8       1       1       8       1       1
       8       1       1       8       1       1       8       1       1       8
       1       1       8       1       1       8       1       1       8       1
       1       8       1       1       8       1       1       8       1       1
       8       1       1       8       1       1       8       1       1       8
       1       1       8       1       1       8       1       1       8       1
       1       8       1       1       8       1       1       8       1       1
       8       1       1       8       1       1       8       1       1       8
       1       1       8       1       1       8       1       1       8       1
       1       8       1       1       8       1       1       8       1       1
       8       1       1       8       1       1       8       1       1       8
       1       1       8       1       1       8       1       1       8       1
       1       8       1       1       8       1       1       8       1       1
       8       1       1       8       1       1       8       1       1       8
       1       1       8       1       1       8       1       1       8       1
       1       8       1       1       8       1       1       8       1       1
       8       1       1       8       1       1       8       1       1       8
       1       1       8       1       1       8       1       1       8       1
       1       8       1       1       8       1       1       8       1       1
       8       1       1       8       1       1       8       1       1       8
       1       1       8       1       1       8       1       1       8       1
       1       8       1       1       8       1       1       8       1       1
       8       1       1       8       1       1       8       1       1       8
       1       1       8       1       1       8       1       1       8       1
       1       8       1       1       8       1       1       8       1       1
       8       1       1       8       1       1       8       1       1       8
       1       1       8       1       1       8       1       1       8       1
       1       8       1       1       8       1       1       8       1       1
       8       1       1       8       1       1       8       1       1       8
       1       1       8       1       1       8       1       1       8       1
       1       8       1       1       8       1       1       8       1       1
       8       1       1       8       1       1       8       1       1       8
       1       1       8       1       1       8       1       1       8       1
       1       8       1       1       8       1       1       8       1       1
       8       1       1       8       1       1       8       1       1       8
       1       1       8       1       1       8       1       1       8       1
       1       8       1       1       8       1       1       8       1       1
       8       1       1       8       1       1       8       1       1       8
       1       1       8       1       1       8       1       1       8       1
       1       8       1       1       8       1       1       8       1       1
       8       1       1       8       1       1       8       1       1       8
       1       1       8       1       1       8       1       1       8       1
       1       8       1       1       8       1       1       8       1       1
       8       1       1       8       1       1       8       1       1       8
       1       1       8       1       1       8       1       1       8       1
       1       8       1       1       8       1       1       8       1       1
       8       1       1       8       1       1       8       1       1       8
       1       1       8       1       1       8       1       1       8       1
       1       8       1       1       8       1       1       8       1       1
       8       1       1       8       1       1       8       1       1       8
       1       1       8       1       1       8       1       1       8       1
       1       8       1       1       8       1       1       8       1       1
       8       1       1       8       1       1       8       1       1       8
       1       1       8       1       1       8       1       1       8       1
       1       8       1       1       8       1       1       8       1       1
       8       1       1       8       1       1       8       1       1       8
       1       1       8       1       1       8       1       1       8       1
       1       8       1       1       8       1       1       8       1       1
       8       1       1       8       1       1       8       1       1       8
       1       1       8       1       1       8       1       1       8       1
       1       8       1       1       8       1       1       8       1       1
       8       1       1       8       1       1       8       1       1       8
       1       1       8       1       1       8       1       1       8       1
       1       8       1       1       8       1       1       8       1       1
       8       1       1       8       1       1       8       1       1       8
       1       1       8       1       1       8       1       1       8       1
       1       8       1       1       8       1       1       8       1       1
       8       1       1       8       1       1       8       1       1       8
       1       1       8       1       1       8       1       1       8       1
       1       8       1       1       8       1       1       8       1       1
       8       1       1       8       1       1       8       1       1       8
       1       1       8       1       1       8       1       1       8       1
       1       8       1       1       8       1       1       8       1       1
       8       1       1       8       1       1       8       1       1       8
       1       1       8       1       1       8       1       1       8       1
       1       8       1       1       8       1       1       8       1       1
       8       1       1       8       1       1       8       1       1       8
       1       1       8       1       1       8       1       1       8       1
       1       8       1       1       8       1       1       8       1       1
       8       1       1       8       1       1       8       1       1       8
       1       1       8       1       1       8       1       1       8       1
       1       8       1       1       8       1       1       8       1       1
       8       1       1       8       1       1       8       1       1       8
       1       1       8       1       1       8       1       1       8       1
       1       8       1       1       8       1       1       8       1       1
       8       1       1       8       1       1       8       1       1       8
       1       1       8       1       1       8       1       1       8       1
       1       8       1       1       8       1       1       8       1       1
       8       1       1       8       1       1       8       1       1       8
       1       1       8       1       1       8       1       1       8       1
       1       8       1       1       8       1       1       8       1       1
       8       1       1       8       1       1       8       1       1       8
       1       1       8       1       1       8       1       1       8       1
       1       8       1       1       8       1       1       8       1       1
       8       1       1       8       1       1       8       1       1       8
       1       1       8       1       1       8       1       1       8       1
       1       8       1       1       8       1       1       8       1       1
       8       1       1       8       1       1       8       1       1       8
       1       1       8       1       1       8       1       1       8       1
       1       8       1       1       8       1       1       8       1       1
       8       1       1       8       1       1       8       1       1       8
       1       1       8       1       1       8       1       1       8       1
       1       8       1       1       8       1       1       8       1       1
       8       1       1       8       1       1       8       1       1       8
       1       1       8       1       1       8       1       1       8       1
       1       8       1       1       8       1       1       8       1       1
       8       1       1       8       1       1       8       1       1       8
       1       1       8       1       1       8       1       1       8       1
       1       8       1       1       8       1       1       8       1       1
       8       1       1       8       1       1       8       1       1       8
       1       1       8       1       1       8       1       1       8       1
       1       8       1       1       8       1       1       8       1       1
       8       1       1       8       1       1       8       1       1       8
       1       1       8       1       1       8       1       1       8       1
       1       8       1       1       8       1       1       8       1       1
       8       1       1       8       1       1       8       1       1       8
       1       1       8       1       1       8       1       1       8       1
       1       8       1       1       8       1       1       8       1       1
       8       1       1       8       1       1       8       1       1       8
       1       1       8       1       1       8       1       1       8       1
       1       8       1       1       8       1       1       8       1       1
       8       1       1       8       1       1       8       1       1       8
       1       1       8       1       1       8       1       1       8       1
       1       8       1       1       8       1       1       8       1       1
       8       1       1       8       1       1       8       1       1       8
       1       1       8       1       1       8       1       1       8       1
       1       8       1       1       8       1       1       8       1       1
       8       1       1       8       1       1       8       1       1       8
       1       1       8       1       1       8       1       1       8       1
       1       8       1       1       8       1       1       8       1       1
       8       1       1       8       1       1       8       1       1       8
       1       1       8       1       1       8       1       1       8       1
       1       8       1       1       8       1       1       8       1       1
       8       1       1       8       1       1       8       1       1       8
       1       1       8       1       1       8       1       1       8       1
       1       8       1       1       8       1       1       8       1       1
       8       1       1       8       1       1       8       1       1       8
       1       1       8       1       1       8       1       1       8       1
       1       8       1       1       8       1       1       8       1       1
       8       1       1       8       1       1       8       1       1       8
       1       1       8       1       1       8       1       1       8       1
       1       8       1       1       8       1       1       8       1       1
       8       1       1       8       1       1       8       1       1       8
       1       1       8       1       1       8       1       1       8       1
       1       8       1       1       8       1       1       8       1       1
       8       1       1       8       1       1       8       1       1       8
       1       1       8       1       1       8       1       1       8       1
       1       8       1       1       8       1       1       8       1       1
       8       1       1       8       1       1       8       1       1       8
       1       1       8       1       1       8       1       1       8       1
       1       8       1       1       8       1       1       8       1       1
       8       1       1       8       1       1       8       1       1       8
       1       1       8       1       1       8       1       1       8       1
       1       8       1       1       8       1       1       8       1       1
       8       1       1       8       1       1       8       1       1       8
       1       1       8       1       1       8       1       1       8       1
       1       8       1       1       8       1       1       8       1       1
       8       1       1       8       1       1       8       1       1       8
       1       1       8       1       1       8       1       1       8       1
       1       8       1       1       8       1       1       8       1       1
       8       1       1       8       1       1       8       1       1       8
       1       1       8       1       1       8       1       1       8       1
       1       8       1       1       8       1       1       8       1       1
       8       1       1       8       1       1       8       1       1       8
       1       1       8       1       1       8       1       1       8       1
       1       8       1       1       8       1       1       8       1       1
       8       1       1       8       1       1       8       1       1       8
       1       1       8       1       1       8       1       1       8       1
       1       8       1       1       8       1       1       8       1       1
       8       1       1       8       1       1       8       1       1       8
       1       1       8       1       1       8       1       1       8       1
       1       8       1       1       8       1       1       8       1       1
       8       1       1       8       1       1       8       1       1       8
       1       1       8       1       1       8       1       1       8       1
       1       8       1       1       8       1       1       8       1       1
       8       1       1       8       1       1       8       1       1       8
       1       1       8       1       1       8       1       1       8       1
       1       8       1       1       8       1       1       8       1       1
       8       1       1       8       1       1       8       1       1       8
       1       1       8       1       1       8       1       1       8       1
       1       8       1       1       8       1       1       8       1       1
       8       1       1       8       1       1       8       1       1       8
       1       1       8       1       1       8       1       1       8       1
       1       8       1       1       8       1       1       8       1       1
       8       1       1       8       1       1       8       1       1       8
       1       1       8       1       1       8       1       1       8       1
       1       8       1       1       8       1       1       8       1       1
       8       1       1       8       1       1       8       1       1       8
       1       1       8       1       1       8       1       1       8       1
       1       8       1       1       8       1       1       8       1       1
       8       1       1       8       1       1       8       1       1       8
       1       1       8       1       1       8       1       1       8       1
       1       8       1       1       8       1       1       8       1       1
       8       1       1       8       1       1       8       1       1       8
       1       1       8       1       1       8       1       1       8       1
       1       8       1       1       8       1       1       8       1       1
       8       1       1       8       1       1       8       1       1       8
       1       1       8       1       1       8       1       1       8       1
       1       8       1       1       8       1       1       8       1       1
       8       1       1       8       1       1       8       1       1       8
       1       1       8       1       1       8       1       1       8       1
       1       8       1       1       8       1       1       8       1       1
       8       1       1       8       1       1       8       1       1       8
       1       1       8       1       1       8       1       1       8       1
       1       8       1       1       8       1       1       8       1       1
       8       1       1       8       1       1       8       1       1       8
       1       1       8       1       1       8       1       1       8       1
       1       8       1       1       8       1       1       8       1       1
       8       1       1       8       1       1       8       1       1       8
       1       1       8       1       1       8       1       1       8       1
       1       8       1       1       8       1       1       8       1       1
       8       1       1       8       1       1       8       1       1       8
       1       1       8       1       1       8       1       1       8       1
       1       8       1       1       8       1       1       8       1       1
       8       1       1       8       1       1       8       1       1       8
       1       1       8       1       1       8       1       1       8       1
       1       8       1       1       8       1       1       8       1       1
       8       1       1       8       1       1       8       1       1       8
       1       1       8       1       1       8       1       1       8       1
       1       8       1       1       8       1       1       8       1       1
       8       1       1       8       1       1       8       1       1       8
       1       1       8       1       1       8       1       1       8       1
       1       8       1       1       8       1       1       8       1       1
       8       1       1       8       1       1       8       1       1       8
       1       1       8       1       1       8       1       1       8       1
       1       8       1       1       8       1       1       8       1       1
       8       1       1       8       1       1       8       1       1       8
       1       1       8       1       1       8       1       1       8       1
       1       8       1       1       8       1       1       8       1       1
       8       1       1       8       1       1       8       1       1       8
       1       1       8       1       1       8       1       1       8       1
       1       8       1       1       8       1       1       8       1       1
       8       1       1       8       1       1       8       1       1       8
       1       1       8       1       1       8       1       1       8       1
       1       8       1       1       8       1       1       8       1       1
       8       1       1       8       1       1       8       1       1       8
       1       1       8       1       1       8       1       1       8       1
       1       8       1       1       8       1       1       8       1       1
       8       1       1       8       1       1       8       1       1       8
       1       1       8       1       1       8       1       1       8       1
       1       8       1       1       8       1       1       8       1       1
       8       1       1       8       1       1       8       1       1       8
       1       1       8       1       1       8       1       1       8       1
       1       8       1       1       8       1       1       8       1       1
       8       1       1       8       1       1       8       1       1       8
       1       1       8       1       1       8       1       1       8       1
       1       8       1       1       8       1       1       8       1       1
       8       1       1       8       1       1       8       1       1       8
       1       1       8       1       1       8       1       1       8       1
       1       8       1       1       8       1       1       8       1       1
       8       1       1       8       1       1       8       1       1       8
       1       1       8       1       1       8       1       1       8       1
       1       8       1       1       8       1       1       8       1       1
       8       1       1       8       1       1       8       1       1       8
       1       1       8       1       1       8       1       1       8       1
       1       8       1       1       8       1       1       8       1       1
       8       1       1       8       1       1       8       1       1       8
       1       1       8       1       1       8       1       1       8       1
       1       8       1       1       8       1       1       8       1       1
       8       1       1       8       1       1       8       1       1       8
       1       1       8       1       1       8       1       1       8       1
       1       8       1       1       8       1       1       8       1       1
       8       1       1       8       1       1       8       1       1       8
       1       1       8       1       1       8       1       1       8       1
       1       8       1       1       8       1       1       8       1       1
       8       1       1       8       1       1       8       1       1       8
       1       1       8       1       1       8       1       1       8       1
       1       8       1       1       8       1       1       8       1       1
       8       1       1       8       1       1       8       1       1       8
       1       1       8       1       1       8       1       1       8       1
       1       8       1       1       8       1       1       8       1       1
       8       1       1       8       1       1       8       1       1       8
       1       1       8       1       1       8       1       1       8       1
       1       8       1       1       8       1       1       8       1       1
       8       1       1       8       1       1       8       1       1       8
       1       1       8       1       1       8       1       1       8       1
       1       8       1       1       8       1       1       8       1       1
       8       1       1       8       1       1       8       1       1       8
       1       1       8       1       1       8       1       1       8       1
       1       8       1       1       8       1       1       8       1       1
       8       1       1       8       1       1       8       1       1       8
       1       1       8       1       1       8       1       1       8       1
       1       8       1       1       8       1       1       8       1       1
       8       1       1       8       1       1       8       1       1       8
       1       1       8       1       1       8       1       1       8       1
       1       8       1       1       8       1       1       8       1       1
       8       1       1       8       1       1       8       1       1       8
       1       1       8       1       1       8       1       1       8       1
       1       8       1       1       8       1       1       8       1       1
       8       1       1       8       1       1       8       1       1       8
       1       1       8       1       1       8       1       1       8       1
       1       8       1       1       8       1       1       8       1       1
       8       1       1       8       1       1       8       1       1       8
       1       1       8       1       1       8       1       1       8       1
       1       8       1       1       8       1       1       8       1       1
       8       1       1       8       1       1       8       1       1       8
       1       1       8       1       1       8       1       1       8       1
       1       8       1       1       8       1       1       8       1       1
       8       1       1       8       1       1       8       1       1       8
       1       1       8       1       1       8       1       1       8       1
       1       8       1       1       8       1       1       8       1       1
       8       1       1       8       1       1       8       1       1       8
       1       1       8       1       1       8       1       1       8       1
       1       8       1       1       8       1       1       8       1       1
       8       1       1       8       1       1       8       1       1       8
       1       1       8       1       1       8       1       1       8       1
       1       8       1       1       8       1       1       8       1       1
       8       1       1       8       1       1       8       1       1       8
       1       1       8       1       1       8       1       1       8       1
       1       8       1       1       8       1       1       8       1       1
       8       1       1       8       1       1       8       1       1       8
       1       1       8       1       1       8       1       1       8       1
       1       8       1       1       8       1       1       8       1       1
       8       1       1       8       1       1       8       1       1       8
       1       1       8       1       1       8       1       1       8       1
       1       8       1       1       8       1       1       8       1       1
       8       1       1       8       1       1       8       1       1       8
       1       1       8       1       1       8       1       1       8       1
       1       8       1       1       8       1       1       8       1       1
       8       1       1       8       1       1       8       1       1       8
       1       1       8       1       1       8       1       1       8       1
       1       8       1       1       8       1       1       8       1       1
       8       1       1       8       1       1       8       1       1       8
       1       1       8       1       1       8       1       1       8       1
       1       8       1       1       8       1       1       8       1       1
       8       1       1       8       1       1       8       1       1       8
       1       1       8       1       1       8       1       1       8       1
       1       8       1       1       8       1       1       8       1       1
       8       1       1       8       1       1       8       1       1       8
       1       1       8       1       1       8       1       1       8       1
       1       8       1       1       8       1       1       8       1       1
       8       1       1       8       1       1       8       1       1       8
       1       1       8       1       1       8       1       1       8       1
       1       8       1       1       8       1       1       8       1       1
       8       1       1       8       1       1       8       1       1       8
       1       1       8       1       1       8       1       1       8       1
       1       8       1       1       8       1       1       8       1       1
       8       1       1       8       1       1       8       1       1       8
       1       1       8       1       1       8       1       1       8       1
       1       8       1       1       8       1       1       8       1       1
       8       1       1       8       1       1       8       1       1       8
       1       1       8       1       1       8       1       1       8       1
       1       8       1       1       8       1       1       8       1       1
       8       1       1       8       1       1       8       1       1       8
       1       1       8       1       1       8       1       1       8       1
       1       8       1       1       8       1       1       8       1       1
       8       1       1       8       1       1       8       1       1       8
       1       1       8       1       1       8       1       1       8       1
       1       8       1       1       8       1       1       8       1       1
       8       1       1       8       1       1       8       1       1       8
       1       1       8       1       1       8       1       1       8       1
       1       8       1       1       8       1       1       8       1       1
       8       1       1       8       1       1       8       1       1       8
       1       1       8       1       1       8       1       1       8       1
       1       8       1       1       8       1       1       8       1       1
       8       1       1       8       1       1       8       1       1       8
       1       1       8       1       1       8       1       1       8       1
       1       8       1       1       8       1       1       8       1       1
       8       1       1       8       1       1       8       1       1       8
       1       1       8       1       1       8       1       1       8       1
       1       8       1       1       8       1       1       8       1       1
       8       1       1       8       1       1       8       1       1       8
       1       1       8       1       1       8       1       1       8       1
       1       8       1       1       8       1       1       8       1       1
       8       1       1       8       1       1       8       1       1       8
       1       1       8       1       1       8       1       1       8       1
       1       8       1       1       8       1       1       8       1       1
       8       1       1       8       1       1       8       1       1       8
       1       1       8       1       1       8       1       1       8       1
       1       8       1       1       8       1       1       8       1       1
       8       1       1       8       1       1       8       1       1       8
       1       1       8       1       1       8       1       1       8       1
       1       8       1       1       8       1       1       8       1       1
       8       1       1       8       1       1       8       1       1       8
       1       1       8       1       1       8       1       1       8       1
       1       8       1       1       8       1       1       8       1       1
       8       1       1       8       1       1       8       1       1       8
       1       1       8       1       1       8       1       1       8       1
       1       8       1       1       8       1       1       8       1       1
       8       1       1       8       1       1       8       1       1       8
       1       1       8       1       1       8       1       1       8       1
       1       8       1       1       8       1       1       8       1       1
       8       1       1       8       1       1       8       1       1       8
       1       1       8       1       1       8       1       1       8       1
       1       8       1       1       8       1       1       8       1       1
       8       1       1       8       1       1       8       1       1       8
       1       1       8       1       1       8       1       1       8       1
       1       8       1       1       8       1       1       8       1       1
       8       1       1       8       1       1       8       1       1       8
       1       1       8       1       1       8       1       1       8       1
       1       8       1       1       8       1       1       8       1       1
       8       1       1       8       1       1       8       1       1       8
       1       1       8       1       1       8       1       1       8       1
       1       8       1       1       8       1       1       8       1       1
       8       1       1       8       1       1       8       1       1       8
       1       1       8       1       1       8       1       1       8       1
       1       8       1       1       8       1       1       8       1       1
       8       1       1       8       1       1       8       1       1       8
       1       1       8       1       1       8       1       1       8       1
       1       8       1       1       8       1       1       8       1       1
       8       1       1       8       1       1       8       1       1       8
       1       1       8       1       1       8       1       1       8       1
       1       8       1       1       8       1       1       8       1       1
       8       1       1       8       1       1       8       1       1       8
       1       1       8       1       1       8       1       1       8       1
       1       8       1       1       8       1       1       8       1       1
       8       1       1       8       1       1       8       1       1       8
       1       1       8       1       1       8       1       1       8       1
       1       8       1       1       8       1       1       8       1       1
       8       1       1       8       1       1       8       1       1       8
       1       1       8       1       1       8       1       1       8       1
       1       8       1       1       8       1       1       8       1       1
       8       1       1       8       1       1       8       1       1       8
       1       1       8       1       1       8       1       1       8       1
       1       8       1       1       8       1       1       8       1       1
       8       1       1       8       1       1       8       1       1       8
       1       1       8       1       1       8       1       1       8       1
       1       8       1       1       8       1       1       8       1       1
       8       1       1       8       1       1       8       1       1       8
       1       1       8       1       1       8       1       1       8       1
       1       8       1       1       8       1       1       8       1       1
       8       1       1       8       1       1       8       1       1       8
       1       1       8       1       1       8       1       1       8       1
       1       8       1       1       8       1       1       8       1       1
       8       1       1       8       1       1       8       1       1       8
       1       1       8       1       1       8       1       1       8       1
       1       8       1       1       8       1       1       8       1       1
       8       1       1       8       1       1       8       1       1       8
       1       1       8       1       1       8       1       1       8       1
       1       8       1       1       8       1       1       8       1       1
       8       1       1       8       1       1       8       1       1       8
       1       1       8       1       1       8       1       1       8       1
       1       8       1       1       8       1       1       8       1       1
       8       1       1       8       1       1       8       1       1       8
       1       1       8       1       1       8       1       1       8       1
       1       8       1       1       8       1       1       8       1       1
       8       1       1       8       1       1       8       1       1       8
       1       1       8       1       1       8       1       1       8       1
       1       8       1       1       8       1       1       8       1       1
       8       1       1       8       1       1       8       1       1       8
       1       1       8       1       1       8       1       1       8       1
       1       8       1       1       8       1       1       8       1       1
       8       1       1       8       1       1       8       1       1       8
       1       1       8       1       1       8       1       1       8       1
       1       8       1       1       8       1       1       8       1       1
       8       1       1       8       1       1       8       1       1       8
       1       1       8       1       1       8       1       1       8       1
       1       8       1       1       8       1       1       8       1       1
       8       1       1       8       1       1       8       1       1       8
       1       1       8       1       1       8       1       1       8       1
       1       8       1       1       8       1       1       8       1       1
       8       1       1       8       1       1       8       1       1       8
       1       1       8       1       1       8       1       1       8       1
       1       8       1       1       8       1       1       8       1       1
       8       1       1       8       1       1       8       1       1       8
       1       1       8       1       1       8       1       1       8       1
       1       8       1       1       8       1       1       8       1       1
       8       1       1       8       1       1       8       1       1       8
       1       1       8       1       1       8       1       1       8       1
       1       8       1       1       8       1       1       8       1       1
       8       1       1       8       1       1       8       1       1       8
       1       1       8       1       1       8       1       1       8       1
       1       8       1       1       8       1       1       8       1       1
       8       1       1       8       1       1       8       1       1       8
       1       1       8       1       1       8       1       1       8       1
       1       8       1       1       8       1       1       8       1       1
       8       1       1       8       1       1       8       1       1       8
       1       1       8       1       1       8       1       1       8       1
       1       8       1       1       8       1       1       8       1       1
       8       1       1       8       1       1       8       1       1       8
       1       1       8       1       1       8       1       1       8       1
       1       8       1       1       8       1       1       8       1       1
       8       1       1       8       1       1       8       1       1       8
       1       1       8       1       1       8       1       1       8       1
       1       8       1       1       8       1       1       8       1       1
       8       1       1       8       1       1       8       1       1       8
       1       1       8       1       1       8       1       1       8       1
       1       8       1       1       8       1       1       8       1       1
       8       1       1       8       1       1       8       1       1       8
       1       1       8       1       1       8       1       1       8       1
       1       8       1       1       8       1       1       8       1       1
       8       1       1       8       1       1       8       1       1       8
       1       1       8       1       1       8       1       1       8       1
       1       8       1       1       8       1       1       8       1       1
       8       1       1       8       1       1       8       1       1       8
       1       1       8       1       1       8       1       1       8       1
       1       8       1       1       8       1       1       8       1       1
       8       1       1       8       1       1       8       1       1       8
       1       1       8       1       1       8       1       1       8       1
       1       8       1       1       8       1       1       8       1       1
       8       1       1       8       1       1       8       1       1       8
       1       1       8       1       1       8       1       1       8       1
       1       8       1       1       8       1       1       8       1       1
       8       1       1       8       1       1       8       1       1       8
       1       1       8       1       1       8       1       1       8       1
       1       8       1       1       8       1       1       8       1       1
       8       1       1       8       1       1       8       1       1       8
       1       1       8       1       1       8       1       1       8       1
       1       8       1       1       8       1       1       8       1       1
       8       1       1       8       1       1       8       1       1       8
       1       1       8       1       1       8       1       1       8       1
       1       8       1       1       8       1       1       8       1       1
       8       1       1       8       1       1       8       1       1       8
       1       1       8       1       1       8       1       1       8       1
       1       8       1       1       8       1       1       8       1       1
       8       1       1       8       1       1       8       1       1       8
       1       1       8       1       1       8       1       1       8       1
       1       8       1       1       8       1       1       8       1       1
       8       1       1       8       1       1       8       1       1       8
       1       1       8       1       1       8       1       1       8       1
       1       8       1       1       8       1       1       8       1       1
       8       1       1       8       1       1       8       1       1       8
       1       1       8       1       1       8       1       1       8       1
       1       8       1       1       8       1       1       8       1       1
       8       1       1       8       1       1       8       1       1       8
       1       1       8       1       1       8       1       1       8       1
       1       8       1       1       8       1       1       8       1       1
       8       1       1       8       1       1       8       1       1       8
       1       1       8       1       1       8       1       1       8       1
       1       8       1       1       8       1       1       8       1       1
       8       1       1       8       1       1       8       1       1       8
       1       1       8       1       1       8       1       1       8       1
       1       8       1       1       8       1       1       8       1       1
       8       1       1       8       1       1       8       1       1       8
       1       1       8       1       1       8       1       1       8       1
       1       8       1       1       8       1       1       8       1       1
       8       1       1       8       1       1       8       1       1       8
       1       1       8       1       1       8       1       1       8       1
       1       8       1       1       8       1       1       8       1       1
       8       1       1       8       1       1       8       1       1       8
       1       1       8       1       1       8       1       1       8       1
       1       8       1       1       8       1       1       8       1       1
       8       1       1       8       1       1       8       1       1       8
       1       1       8       1       1       8       1       1       8       1
       1       8       1       1       8       1       1       8       1       1
       8       1       1       8       1       1       8       1       1       8
       1       1       8       1       1       8       1       1       8       1
       1       8       1       1       8       1       1       8       1       1
       8       1       1       8       1       1       8       1       1       8
       1       1       8       1       1       8       1       1       8       1
       1       8       1       1       8       1       1       8       1       1
       8       1       1       8       1       1       8       1       1       8
       1       1       8       1       1       8       1       1       8       1
       1       8       1       1       8       1       1       8       1       1
       8       1       1       8       1       1       8       1       1       8
       1       1       8       1       1       8       1       1       8       1
       1       8       1       1       8       1       1       8       1       1
       8       1       1       8       1       1       8       1       1       8
       1       1       8       1       1       8       1       1       8       1
       1       8       1       1       8       1       1       8       1       1
       8       1       1       8       1       1       8       1       1       8
       1       1       8       1       1       8       1       1       8       1
       1       8       1       1       8       1       1       8       1       1
       8       1       1       8       1       1       8       1       1       8
       1       1       8       1       1       8       1       1       8       1
       1       8       1       1       8       1       1       8       1       1
       8       1       1       8       1       1       8       1       1       8
       1       1       8       1       1       8       1       1       8       1
       1       8       1       1       8       1       1       8       1       1
       8       1       1       8       1       1       8       1       1       8
       1       1       8       1       1       8       1       1       8       1
       1       8       1       1       8       1       1       8       1       1
       8       1       1       8       1       1       8       1       1       8
       1       1       8       1       1       8       1       1       8       1
       1       8       1       1       8       1       1       8       1       1
       8       1       1       8       1       1       8       1       1       8
       1       1       8       1       1       8       1       1       8       1
       1       8       1       1       8       1       1       8       1       1
       8       1       1       8       1       1       8       1       1       8
       1       1       8       1       1       8       1       1       8       1
       1       8       1       1       8       1       1       8       1       1
       8       1       1       8       1       1       8       1       1       8
       1       1       8       1       1       8       1       1       8       1
       1       8       1       1       8       1       1       8       1       1
       8       1       1       8       1       1       8       1       1       8
       1       1       8       1       1       8       1       1       8       1
       1       8       1       1       8       1       1       8       1       1
       8       1       1       8       1       1       8       1       1       8
       1       1       8       1       1       8       1       1       8       1
       1       8       1       1       8       1       1       8       1       1
       8       1       1       8       1       1       8       1       1       8
       1       1       8       1       1       8       1       1       8       1
       1       8       1       1       8       1       1       8       1       1
       8       1       1       8       1       1       8       1       1       8
       1       1       8       1       1       8       1       1       8       1
       1       8       1       1       8       1       1       8       1       1
       8       1       1       8       1       1       8       1       1       8
       1       1       8       1       1       8       1       1       8       1
       1       8       1       1       8       1       1       8       1       1
       8       1       1       8       1       1       8       1       1       8
       1       1       8       1       1       8       1       1       8       1
       1       8       1       1       8       1       1       8       1       1
       8       1       1       8       1       1       8       1       1       8
       1       1       8       1       1       8       1       1       8       1
       1       8       1       1       8       1       1       8       1       1
       8       1       1       8       1       1       8       1       1       8
       1       1       8       1       1       8       1       1       8       1
       1       8       1       1       8       1       1       8       1       1
       8       1       1       8       1       1       8       1       1       8
       1       1       8       1       1       8       1       1       8       1
       1       8       1       1       8       1       1       8       1       1
       8       1       1       8       1       1       8       1       1       8
       1       1       8       1       1       8       1       1       8       1
       1       8       1       1       8       1       1       8       1       1
       8       1       1       8       1       1       8       1       1       8
       1       1       8       1       1       8       1       1       8       1
       1       8       1       1       8       1       1       8       1       1
       8       1       1       8       1       1       8       1       1       8
       1       1       8       1       1       8       1       1       8       1
       1       8       1       1       8       1       1       8       1       1
       8       1       1       8       1       1       8       1       1       8
       1       1       8       1       1       8       1       1       8       1
       1       8       1       1       8       1       1       8       1       1
       8       1       1       8       1       1       8       1       1       8
       1       1       8       1       1       8       1       1       8       1
       1       8       1       1       8       1       1       8       1       1
       8       1       1       8       1       1       8       1       1       8
       1       1       8       1       1       8       1       1       8       1
       1       8       1       1       8       1       1       8       1       1
       8       1       1       8       1       1       8       1       1       8
       1       1       8       1       1       8       1       1       8       1
       1       8       1       1       8       1       1       8       1       1
       8       1       1       8       1       1       8       1       1       8
       1       1       8       1       1       8       1       1       8       1
       1       8       1       1       8       1       1       8       1       1
       8       1       1       8       1       1       8       1       1       8
       1       1       8       1       1       8       1       1       8       1
       1       8       1       1       8       1       1       8       1       1
       8       1       1       8       1       1       8       1       1       8
       1       1       8       1       1       8       1       1       8       1
       1       8       1       1       8       1       1       8       1       1
       8       1       1       8       1       1       8       1       1       8
       1       1       8       1       1       8       1       1       8       1
       1       8       1       1       8       1       1       8       1       1
       8       1       1       8       1       1       8       1       1       8
       1       1       8       1       1       8       1       1       8       1
       1       8       1       1       8       1       1       8       1       1
       8       1       1       8       1       1       8       1       1       8
       1       1       8       1       1       8       1       1       8       1
       1       8       1       1       8       1       1       8       1       1
       8       1       1       8       1       1       8       1       1       8
       1       1       8       1       1       8       1       1       8       1
       1       8       1       1       8       1       1       8       1       1
       8       1       1       8       1       1       8       1       1       8
       1       1       8       1       1       8       1       1       8       1
       1       8       1       1       8       1       1       8       1       1
       8       1       1       8       1       1       8       1       1       8
       1       1       8       1       1       8       1       1       8       1
       1       8       1       1       8       1       1       8       1       1
       8       1       1       8       1       1       8       1       1       8
       1       1       8       1       1       8       1       1       8       1
       1       8       1       1       8       1       1       8       1       1
       8       1       1       8       1       1       8       1       1       8
       1       1       8       1       1       8       1       1       8       1
       1       8       1       1       8       1       1       8       1       1
       8       1       1       8       1       1       8       1       1       8
       1       1       8       1       1       8       1       1       8       1
       1       8       1       1       8       1       1       8       1       1
       8       1       1       8       1       1       8       1       1       8
       1       1       8       1       1       8       1       1       8       1
       1       8       1       1       8       1       1       8       1       1
       8       1       1       8       1       1       8       1       1       8
       1       1       8       1       1       8       1       1       8       1
       1       8       1       1       8       1       1       8       1       1
       8       1       1       8       1       1       8       1       1       8
       1       1       8       1       1       8       1       1       8       1
       1       8       1       1       8       1       1       8       1       1
       8       1       1       8       1       1       8       1       1       8
       1       1       8       1       1       8       1       1       8       1
       1       8       1       1       8       1       1       8       1       1
       8       1       1       8       1       1       8       1       1       8
       1       1       8       1       1       8       1       1       8       1
       1       8       1       1       8       1       1       8       1       1
       8       1       1       8       1       1       8       1       1       8
       1       1       8       1       1       8       1       1       8       1
       1       8       1       1       8       1       1       8       1       1
       8       1       1       8       1       1       8       1       1       8
       1       1       8       1       1       8       1       1       8       1
       1       8       1       1       8       1       1       8       1       1
       8       1       1       8       1       1       8       1       1       8
       1       1       8       1       1       8       1       1       8       1
       1       8       1       1       8       1       1       8       1       1
       8       1       1       8       1       1       8       1       1       8
       1       1       8       1       1       8       1       1       8       1
       1       8       1       1       8       1       1       8       1       1
       8       1       1       8       1       1       8       1       1       8
       1       1       8       1       1       8       1       1       8       1
       1       8       1       1       8       1       1       8       1       1
       8       1       1       8       1       1       8       1       1       8
       1       1       8       1       1       8       1       1       8       1
       1       8       1       1       8       1       1       8       1       1
       8       1       1       8       1       1       8       1       1       8
       1       1       8       1       1       8       1       1       8       1
       1       8       1       1       8       1       1       8       1       1
       8       1       1       8       1       1       8       1       1       8
       1       1       8       1       1       8       1       1       8       1
       1       8       1       1       8       1       1       8       1       1
       8       1       1       8       1       1       8       1       1       8
       1       1       8       1       1       8       1       1       8       1
       1       8       1       1       8       1       1       8       1       1
       8       1       1       8       1       1       8       1       1       8
       1       1       8       1       1       8       1       1       8       1
       1       8       1       1       8       1       1       8       1       1
       8       1       1       8       1       1       8       1       1       8
       1       1       8       1       1       8       1       1       8       1
       1       8       1       1       8       1       1       8       1       1
       8       1       1       8       1       1       8       1       1       8
       1       1       8       1       1       8       1       1       8       1
       1       8       1       1       8       1       1       8       1       1
       8       1       1       8       1       1       8       1       1       8
       1       1       8       1       1       8       1       1       8       1
       1       8       1       1       8       1       1       8       1       1
       8       1       1       8       1       1       8       1       1       8
       1       1       8       1       1       8       1       1       8       1
       1       8       1       1       8       1       1       8       1       1
       8       1       1       8       1       1       8       1       1       8
       1       1       8       1       1       8       1       1       8       1
       1       8       1       1       8       1       1       8       1       1
       8       1       1       8       1       1       8       1       1       8
       1       1       8       1       1       8       1       1       8       1
       1       8       1       1       8       1       1       8       1       1
       8       1       1       8       1       1       8       1       1       8
       1       1       8       1       1       8       1       1       8       1
       1       8       1       1       8       1       1       8       1       1
       8       1       1       8       1       1       8       1       1       8
       1       1       8       1       1       8       1       1       8       1
       1       8       1       1       8       1       1       8       1       1
       8       1       1       8       1       1       8       1       1       8
       1       1       8       1       1       8       1       1       8       1
       1       8       1       1       8       1       1       8       1       1
       8       1       1       8       1       1       8       1       1       8
       1       1       8       1       1       8       1       1       8       1
       1       8       1       1       8       1       1       8       1       1
       8       1       1       8       1       1       8       1       1       8
       1       1       8       1       1       8       1       1       8       1
       1       8       1       1       8       1       1       8       1       1
       8       1       1       8       1       1       8       1       1       8
       1       1       8       1       1       8       1       1       8       1
       1       8       1       1       8       1       1       8       1       1
       8       1       1       8       1       1       8       1       1       8
       1       1       8       1       1       8       1       1       8       1
       1       8       1       1       8       1       1       8       1       1
       8       1       1       8       1       1       8       1       1       8
       1       1       8       1       1       8       1       1       8       1
       1       8       1       1       8       1       1       8       1       1
       8       1       1       8       1       1       8       1       1       8
       1       1       8       1       1       8       1       1       8       1
       1       8       1       1       8       1       1       8       1       1
       8       1       1       8       1       1       8       1       1       8
       1       1       8       1       1       8       1       1       8       1
       1       8       1       1       8       1       1       8       1       1
       8       1       1       8       1       1       8       1       1       8
       1       1       8       1       1       8       1       1       8       1
       1       8       1       1       8       1       1       8       1       1
       8       1       1       8       1       1       8       1       1       8
       1       1       8       1       1       8       1       1       8       1
       1       8       1       1       8       1       1       8       1       1
       8       1       1       8       1       1       8       1       1       8
       1       1       8       1       1       8       1       1       8       1
       1       8       1       1       8       1       1       8       1       1
       8       1       1       8       1       1       8       1       1       8
       1       1       8       1       1       8       1       1       8       1
       1       8       1       1       8       1       1       8       1       1
       8       1       1       8       1       1       8       1       1       8
       1       1       8       1       1       8       1       1       8       1
       1       8       1       1       8       1       1       8       1       1
       8       1       1       8       1       1       8       1       1       8
       1       1       8       1       1       8       1       1       8       1
       1       8       1       1       8       1       1       8       1       1
       8       1       1       8       1       1       8       1       1       8
       1       1       8       1       1       8       1       1       8       1
       1       8       1       1       8       1       1       8       1       1
       8       1       1       8       1       1       8       1       1       8
       1       1       8       1       1       8       1       1       8       1
       1       8       1       1       8       1       1       8       1       1
       8       1       1       8       1       1       8       1       1       8
       1       1       8       1       1       8       1       1       8       1
       1       8       1       1       8       1       1       8       1       1
       8       1       1       8       1       1       8       1       1       8
       1       1       8       1       1       8       1       1       8       1
       1       8       1       1       8       1       1       8       1       1
       8       1       1       8       1       1       8       1       1       8
       1       1       8       1       1       8       1       1       8       1
       1       8       1       1       8       1       1       8       1       1
       8       1       1       8       1       1       8       1       1       8
       1       1       8       1       1       8       1       1       8       1
       1       8       1       1       8       1       1       8       1       1
       8       1       1       8       1       1       8       1       1       8
       1       1       8       1       1       8       1       1       8       1
       1       8       1       1       8       1       1       8       1       1
       8       1       1       8       1       1       8       1       1       8
       1       1       8       1       1       8       1       1       8       1
       1       8       1       1       8       1       1       8       1       1
       8       1       1       8       1       1       8       1       1       8
       1       1       8       1       1       8       1       1       8       1
       1       8       1       1       8       1       1       8       1       1
       8       1       1       8       1       1       8       1       1       8
       1       1       8       1       1       8       1       1       8       1
       1       8       1       1       8       1       1       8       1       1
       8       1       1       8       1       1       8       1       1       8
       1       1       8       1       1       8       1       1       8       1
       1       8       1       1       8       1       1       8       1       1
       8       1       1       8       1       1       8       1       1       8
       1       1       8       1       1       8       1       1       8       1
       1       8       1       1       8       1       1       8       1       1
       8       1       1       8       1       1       8       1       1       8
       1       1       8       1       1       8       1       1       8       1
       1       8       1       1       8       1       1       8       1       1
       8       1       1       8       1       1       8       1       1       8
       1       1       8       1       1       8       1       1       8       1
       1       8       1       1       8       1       1       8       1       1
       8       1       1       8       1       1       8       1       1       8
       1       1       8       1       1       8       1       1       8       1
       1       8       1       1       8       1       1       8       1       1
       8       1       1       8       1       1       8       1       1       8
       1       1       8       1       1       8       1       1       8       1
       1       8       1       1       8       1       1       8       1       1
       8       1       1       8       1       1       8       1       1       8
       1       1       8       1       1       8       1       1       8       1
       1       8       1       1       8       1       1       8       1       1
       8       1       1       8       1       1       8       1       1       8
       1       1       8       1       1       8       1       1       8       1
       1       8       1       1       8       1       1       8       1       1
       8       1       1       8       1       1       8       1       1       8
       1       1       8       1       1       8       1       1       8       1
       1       8       1       1       8       1       1       8       1       1
       8       1       1       8       1       1       8       1       1       8
       1       1       8       1       1       8       1       1       8       1
       1       8       1       1       8       1       1       8       1       1
       8       1       1       8       1       1       8       1       1       8
       1       1       8       1       1       8       1       1       8       1
       1       8       1       1       8       1       1       8       1       1
       8       1       1       8       1       1       8       1       1       8
       1       1       8       1       1       8       1       1       8       1
       1       8       1       1       8       1       1       8       1       1
       8       1       1       8       1       1       8       1       1       8
       1       1       8       1       1       8       1       1       8       1
       1       8       1       1       8       1       1       8       1       1
       8       1       1       8       1       1       8       1       1       8
       1       1       8       1       1       8       1       1       8       1
       1       8       1       1       8       1       1       8       1       1
       8       1       1       8       1       1       8       1       1       8
       1       1       8       1       1       8       1       1       8       1
       1       8       1       1       8       1       1       8       1       1
       8       1       1       8       1       1       8       1       1       8
       1       1       8       1       1       8       1       1       8       1
       1       8       1       1       8       1       1       8       1       1
       8       1       1       8       1       1       8       1       1       8
       1       1       8       1       1       8       1       1       8       1
       1       8       1       1       8       1       1       8       1       1
       8       1       1       8       1       1       8       1       1       8
       1       1       8       1       1       8       1       1       8       1
       1       8       1       1       8       1       1       8       1       1
       8       1       1       8       1       1       8       1       1       8
       1       1       8       1       1       8       1       1       8       1
       1       8       1       1       8       1       1       8       1       1
       8       1       1       8       1       1       8       1       1       8
       1       1       8       1       1       8       1       1       8       1
       1       8       1       1       8       1       1       8       1       1
       8       1       1       8       1       1       8       1       1       8
       1       1       8       1       1       8       1       1       8       1
       1       8       1       1       8       1       1       8       1       1
       8       1       1       8       1       1       8       1       1       8
       1       1       8       1       1       8       1       1       8       1
       1       8       1       1       8       1       1       8       1       1
       8       1       1       8       1       1       8       1       1       8
       1       1       8       1       1       8       1       1       8       1
       1       8       1       1       8       1       1       8       1       1
       8       1       1       8       1       1       8       1       1       8
       1       1       8       1       1       8       1       1       8       1
       1       8       1       1       8       1       1       8       1       1
       8       1       1       8       1       1       8       1       1       8
       1       1       8       1       1       8       1       1       8       1
       1       8       1       1       8       1       1       8       1       1
       8       1       1       8       1       1       8       1       1       8
       1       1       8       1       1       8       1       1       8       1
       1       8       1       1       8       1       1       8       1       1
       8       1       1       8       1       1       8       1       1       8
       1       1       8       1       1       8       1       1       8       1
       1       8       1       1       8       1       1       8       1       1
       8       1       1       8       1       1       8       1       1       8
       1       1       8       1       1       8       1       1       8       1
       1       8       1       1       8       1       1       8       1       1
       8       1       1       8       1       1       8       1       1       8
       1       1       8       1       1       8       1       1       8       1
       1       8       1       1       8       1       1       8       1       1
       8       1       1       8       1       1       8       1       1       8
       1       1       8       1       1       8       1       1       8       1
       1       8       1       1       8       1       1       8       1       1
       8       1       1       8       1       1       8       1       1       8
       1       1       8       1       1       8       1       1       8       1
       1       8       1       1       8       1       1       8       1       1
       8       1       1       8       1       1       8       1       1       8
       1       1       8       1       1       8       1       1       8       1
       1       8       1       1       8       1       1       8       1       1
       8       1       1       8       1       1       8       1       1       8
       1       1       8       1       1       8       1       1       8       1
       1       8       1       1       8       1       1       8       1       1
       8       1       1       8       1       1       8       1       1       8
       1       1       8       1       1       8       1       1       8       1
       1       8       1       1       8       1       1       8       1       1
       8       1       1       8       1       1       8       1       1       8
       1       1       8       1       1       8       1       1       8       1
       1       8       1       1       8       1       1       8       1       1
       8       1       1       8       1       1       8       1       1       8
       1       1       8       1       1       8       1       1       8       1
       1       8       1       1       8       1       1       8       1       1
       8       1       1       8       1       1       8       1       1       8
       1       1       8       1       1       8       1       1       8       1
       1       8       1       1       8       1       1       8       1       1
       8       1       1       8       1       1       8       1       1       8
       1       1       8       1       1       8       1       1       8       1
       1       8       1       1       8       1       1       8       1       1
       8       1       1       8       1       1       8       1       1       8
       1       1       8       1       1       8       1       1       8       1
       1       8       1       1       8       1       1       8       1       1
       8       1       1       8       1       1       8       1       1       8
       1       1       8       1       1       8       1       1       8       1
       1       8       1       1       8       1       1       8       1       1
       8       1       1       8       1       1       8       1       1       8
       1       1       8       1       1       8       1       1       8       1
       1       8       1       1       8       1       1       8       1       1
       8       1       1       8       1       1       8       1       1       8
       1       1       8       1       1       8       1       1       8       1
       1       8       1       1       8       1       1       8       1       1
       8       1       1       8       1       1       8       1       1       8
       1       1       8       1       1       8       1       1       8       1
       1       8       1       1       8       1       1       8       1       1
       8       1       1       8       1       1       8       1       1       8
       1       1       8       1       1       8       1       1       8       1
       1       8       1       1       8       1       1       8       1       1
       8       1       1       8       1       1       8       1       1       8
       1       1       8       1       1       8       1       1       8       1
       1       8       1       1       8       1       1       8       1       1
       8       1       1       8       1       1       8       1       1       8
       1       1       8       1       1       8       1       1       8       1
       1       8       1       1       8       1       1       8       1       1
       8       1       1       8       1       1       8       1       1       8
       1       1       8       1       1       8       1       1       8       1
       1       8       1       1       8       1       1       8       1       1
       8       1       1       8       1       1       8       1       1       8
       1       1       8       1       1       8       1       1       8       1
       1       8       1       1       8       1       1       8       1       1
       8       1       1       8       1       1       8       1       1       8
       1       1       8       1       1       8       1       1       8       1
       1       8       1       1       8       1       1       8       1       1
       8       1       1       8       1       1       8       1       1       8
       1       1       8       1       1       8       1       1       8       1
       1       8       1       1       8       1       1       8       1       1
       8       1       1       8       1       1       8       1       1       8
       1       1       8       1       1       8       1       1       8       1
       1       8       1       1       8       1       1       8       1       1
       8       1       1       8       1       1       8       1       1       8
       1       1       8       1       1       8       1       1       8       1
       1       8       1       1       8       1       1       8       1       1
       8       1       1       8       1       1       8       1       1       8
       1       1       8       1       1       8       1       1       8       1
       1       8       1       1       8       1       1       8       1       1
       8       1       1       8       1       1       8       1       1       8
       1       1       8       1       1       8       1       1       8       1
       1       8       1       1       8       1       1       8       1       1
       8       1       1       8       1       1       8       1       1       8
       1       1       8       1       1       8       1       1       8       1
       1       8       1       1       8       1       1       8       1       1
       8       1       1       8       1       1       8       1       1       8
       1       1       8       1       1       8       1       1       8       1
       1       8       1       1       8       1       1       8       1       1
       8       1       1       8       1       1       8       1       1       8
       1       1       8       1       1       8       1       1       8       1
       1       8       1       1       8       1       1       8       1       1
       8       1       1       8       1       1       8       1       1       8
       1       1       8       1       1       8       1       1       8       1
       1       8       1       1       8       1       1       8       1       1
       8       1       1       8       1       1       8       1       1       8
       1       1       8       1       1       8       1       1       8       1
       1       8       1       1       8       1       1       8       1       1
       8       1       1       8       1       1       8       1       1       8
       1       1       8       1       1       8       1       1       8       1
       1       8       1       1       8       1       1       8       1       1
       8       1       1       8       1       1       8       1       1       8
       1       1       8       1       1       8       1       1       8       1
       1       8       1       1       8       1       1       8       1       1
       8       1       1       8       1       1       8       1       1       8
       1       1       8       1       1       8       1       1       8       1
       1       8       1       1       8       1       1       8       1       1
       8       1       1       8       1       1       8       1       1       8
       1       1       8       1       1       8       1       1       8       1
       1       8       1       1       8       1       1       8       1       1
       8       1       1       8       1       1       8       1       1       8
       1       1       8       1       1       8       1       1       8       1
       1       8       1       1       8       1       1       8       1       1
       8       1       1       8       1       1       8       1       1       8
       1       1       8       1       1       8       1       1       8       1
       1       8       1       1       8       1       1       8       1       1
       8       1       1       8       1       1       8       1       1       8
       1       1       8       1       1       8       1       1       8       1
       1       8       1       1       8       1       1       8       1       1
       8       1       1       8       1       1       8       1       1       8
       1       1       8       1       1       8       1       1       8       1
       1       8       1       1       8       1       1       8       1       1
       8       1       1       8       1       1       8       1       1       8
       1       1       8       1       1       8       1       1       8       1
       1       8       1       1       8       1       1       8       1       1
       8       1       1       8       1       1       8       1       1       8
       1       1       8       1       1       8       1       1       8       1
       1       8       1       1       8       1       1       8       1       1
       8       1       1       8       1       1       8       1       1       8
       1       1       8       1       1       8       1       1       8       1
       1       8       1       1       8       1       1       8       1       1
       8       1       1       8       1       1       8       1       1       8
       1       1       8       1       1       8       1       1       8       1
       1       8       1       1       8       1       1       8       1       1
       8       1       1       8       1       1       8       1       1       8
       1       1       8       1       1       8       1       1       8       1
       1       8       1       1       8       1       1       8       1       1
       8       1       1       8       1       1       8       1       1       8
       1       1       8       1       1       8       1       1       8       1
       1       8       1       1       8       1       1       8       1       1
       8       1       1       8       1       1       8       1       1       8
       1       1       8       1       1       8       1       1       8       1
       1       8       1       1       8       1       1       8       1       1
       8       1       1       8       1       1       8       1       1       8
       1       1       8       1       1       8       1       1       8       1
       1       8       1       1       8       1       1       8       1       1
       8       1       1       8       1       1       8       1       1       8
       1       1       8       1       1       8       1       1       8       1
       1       8       1       1       8       1       1       8       1       1
       8       1       1       8       1       1       8       1       1       8
       1       1       8       1       1       8       1       1       8       1
       1       8       1       1       8       1       1       8       1       1
       8       1       1       8       1       1       8       1       1       8
       1       1       8       1       1       8       1       1       8       1
       1       8       1       1       8       1       1       8       1       1
       8       1       1       8       1       1       8       1       1       8
       1       1       8       1       1       8       1       1       8       1
       1       8       1       1       8       1       1       8       1       1
       8       1       1       8       1       1       8       1       1       8
       1       1       8       1       1       8       1       1       8       1
       1       8       1       1       8       1       1       8       1       1
       8       1       1       8       1       1       8       1       1       8
       1       1       8       1       1       8       1       1       8       1
       1       8       1       1       8       1       1       8       1       1
       8       1       1       8       1       1       8       1       1       8
       1       1       8       1       1       8       1       1       8       1
       1       8       1       1       8       1       1       8       1       1
       8       1       1       8       1       1       8       1       1       8
       1       1       8       1       1       8       1       1       8       1
       1       8       1       1       8       1       1       8       1       1
       8       1       1       8       1       1       8       1       1       8
       1       1       8       1       1       8       1       1       8       1
       1       8       1       1       8       1       1       8       1       1
       8       1       1       8       1       1       8       1       1       8
       1       1       8       1       1       8       1       1       8       1
       1       8       1       1       8       1       1       8       1       1
       8       1       1       8       1       1       8       1       1       8
       1       1       8       1       1       8       1       1       8       1
       1       8       1       1       8       1       1       8       1       1
       8       1       1       8       1       1       8       1       1       8
       1       1       8       1       1       8       1       1       8       1
       1       8       1       1       8       1       1       8       1       1
       8       1       1       8       1       1       8       1       1       8
       1       1       8       1       1       8       1       1       8       1
       1       8       1       1       8       1       1       8       1       1
       8       1       1       8       1       1       8       1       1       8
       1       1       8       1       1       8       1       1       8       1
       1       8       1       1       8       1       1       8       1       1
       8       1       1       8       1       1       8       1       1       8
       1       1       8       1       1       8       1       1       8       1
       1       8       1       1       8       1       1       8       1       1
       8       1       1       8       1       1       8       1       1       8
       1       1       8       1       1       8       1       1       8       1
       1       8       1       1       8       1       1       8       1       1
       8       1       1       8       1       1       8       1       1       8
       1       1       8       1       1       8       1       1       8       1
       1       8       1       1       8       1       1       8       1       1
       8       1       1       8       1       1       8       1       1       8
       1       1       8       1       1       8       1       1       8       1
       1       8       1       1       8       1       1       8       1       1
       8       1       1       8       1       1       8       1       1       8
       1       1       8       1       1       8       1       1       8       1
       1       8       1       1       8       1       1       8       1       1
       8       1       1       8       1       1       8       1       1       8
       1       1       8       1       1       8       1       1       8       1
       1       8       1       1       8       1       1       8       1       1
       8       1       1       8       1       1       8       1       1       8
       1       1       8       1       1       8       1       1       8       1
       1       8       1       1       8       1       1       8       1       1
       8       1       1       8       1       1       8       1       1       8
       1       1       8       1       1       8       1       1       8       1
       1       8       1       1       8       1       1       8       1       1
       8       1       1       8       1       1       8       1       1       8
       1       1       8       1       1       8       1       1       8       1
       1       8       1       1       8       1       1       8       1       1
       8       1       1       8       1       1       8       1       1       8
       1       1       8       1       1       8       1       1       8       1
       1       8       1       1       8       1       1       8       1       1
       8       1       1       8       1       1       8       1       1       8
       1       1       8       1       1       8       1       1       8       1
       1       8       1       1       8       1       1       8       1       1
       8       1       1       8       1       1       8       1       1       8
       1       1       8       1       1       8       1       1       8       1
       1       8       1       1       8       1       1       8       1       1
       8       1       1       8       1       1       8       1       1       8
       1       1       8       1       1       8       1       1       8       1
       1       8       1       1       8       1       1       8       1       1
       8       1       1       8       1       1       8       1       1       8
       1       1       8       1       1       8       1       1       8       1
       1       8       1       1       8       1       1       8       1       1
       8       1       1       8       1       1       8       1       1       8
       1       1       8       1       1       8       1       1       8       1
       1       8       1       1       8       1       1       8       1       1
       8       1       1       8       1       1       8       1       1       8
       1       1       8       1       1       8       1       1       8       1
       1       8       1       1       8       1       1       8       1       1
       8       1       1       8       1       1       8       1       1       8
       1       1       8       1       1       8       1       1       8       1
       1       8       1       1       8       1       1       8       1       1
       8       1       1       8       1       1       8       1       1       8
       1       1       8       1       1       8       1       1       8       1
       1       8       1       1       8       1       1       8       1       1
       8       1       1       8       1       1       8       1       1       8
       1       1       8       1       1       8       1       1       8       1
       1       8       1       1       8       1       1       8       1       1
       8       1       1       8       1       1       8       1       1       8
       1       1       8       1       1       8       1       1       8       1
       1       8       1       1       8       1       1       8       1       1
       8       1       1       8       1       1       8       1       1       8
       1       1       8       1       1       8       1       1       8       1
       1       8       1       1       8       1       1       8       1       1
       8       1       1       8       1       1       8       1       1       8
       1       1       8       1       1       8       1       1       8       1
       1       8       1       1       8       1       1       8       1       1
       8       1       1       8       1       1       8       1       1       8
       1       1       8       1       1       8       1       1       8       1
       1       8       1       1       8       1       1       8       1       1
       8       1       1       8       1       1       8       1       1       8
       1       1       8       1       1       8       1       1       8       1
       1       8       1       1       8       1       1       8       1       1
       8       1       1       8       1       1       8       1       1       8
       1       1       8       1       1       8       1       1       8       1
       1       8       1       1       8       1       1       8       1       1
       8       1       1       8       1       1       8       1       1       8
       1       1       8       1       1       8       1       1       8       1
       1       8       1       1       8       1       1       8       1       1
       8       1       1       8       1       1       8       1       1       8
       1       1       8       1       1       8       1       1       8       1
       1       8       1       1       8       1       1       8       1       1
       8       1       1       8       1       1       8       1       1       8
       1       1       8       1       1       8       1       1       8       1
       1       8       1       1       8       1       1       8       1       1
       8       1       1       8       1       1       8       1       1       8
       1       1       8       1       1       8       1       1       8       1
       1       8       1       1       8       1       1       8       1       1
       8       1       1       8       1       1       8       1       1       8
       1       1       8       1       1       8       1       1       8       1
       1       8       1       1       8       1       1       8       1       1
       8       1       1       8       1       1       8       1       1       8
       1       1       8       1       1       8       1       1       8       1
       1       8       1       1       8       1       1       8       1       1
       8       1       1       8       1       1       8       1       1       8
       1       1       8       1       1       8       1       1       8       1
       1       8       1       1       8       1       1       8       1       1
       8       1       1       8       1       1       8       1       1       8
       1       1       8       1       1       8       1       1       8       1
       1       8       1       1       8       1       1       8       1       1
       8       1       1       8       1       1       8       1       1       8
       1       1       8       1       1       8       1       1       8       1
       1       8       1       1       8       1       1       8       1       1
       8       1       1       8       1       1       8       1       1       8
       1       1       8       1       1       8       1       1       8       1
       1       8       1       1       8       1       1       8       1       1
       8       1       1       8       1       1       8       1       1       8
       1       1       8       1       1       8       1       1       8       1
       1       8       1       1       8       1       1       8       1       1
       8       1       1       8       1       1       8       1       1       8
       1       1       8       1       1       8       1       1       8       1
       1       8       1       1       8       1       1       8       1       1
       8       1       1       8       1       1       8       1       1       8
       1       1       8       1       1       8       1       1       8       1
       1       8       1       1       8       1       1       8       1       1
       8       1       1       8       1       1       8       1       1       8
       1       1       8       1       1       8       1       1       8       1
       1       8       1       1       8       1       1       8       1       1
       8       1       1       8       1       1       8       1       1       8
       1       1       8       1       1       8       1       1       8       1
       1       8       1       1       8       1       1       8       1       1
       8       1       1       8       1       1       8       1       1       8
       1       1       8       1       1       8       1       1       8       1
       1       8       1       1       8       1       1       8       1       1
       8       1       1       8       1       1       8       1       1       8
       1       1       8       1       1       8       1       1       8       1
       1       8       1       1       8       1       1       8       1       1
       8       1       1       8       1       1       8       1       1       8
       1       1       8       1       1       8       1       1       8       1
       1       8       1       1       8       1       1       8       1       1
       8       1       1       8       1       1       8       1       1       8
       1       1       8       1       1       8       1       1       8       1
       1       8       1       1       8       1       1       8       1       1
       8       1       1       8       1       1       8       1       1       8
       1       1       8       1       1       8       1       1       8       1
       1       8       1       1       8       1       1       8       1       1
       8       1       1       8       1       1       8       1       1       8
       1       1       8       1       1       8       1       1       8       1
       1       8       1       1       8       1       1       8       1       1
       8       1       1       8       1       1       8       1       1       8
       1       1       8       1       1       8       1       1       8       1
       1       8       1       1       8       1       1       8       1       1
       8       1       1       8       1       1       8       1       1       8
       1       1       8       1       1       8       1       1       8       1
       1       8       1       1       8       1       1       8       1       1
       8       1       1       8       1       1       8       1       1       8
       1       1       8       1       1       8       1       1       8       1
       1       8       1       1       8       1       1       8       1       1
       8       1       1       8       1       1       8       1       1       8
       1       1       8       1       1       8       1       1       8       1
       1       8       1       1       8       1       1       8       1       1
       8       1       1       8       1       1       8       1       1       8
       1       1       8       1       1       8       1       1       8       1
       1       8       1       1       8       1       1       8       1       1
       8       1       1       8       1       1       8       1       1       8
       1       1       8       1       1       8       1       1       8       1
       1       8       1       1       8       1       1       8       1       1
       8       1       1       8       1       1       8       1       1       8
       1       1       8       1       1       8       1       1       8       1
       1       8       1       1       8       1       1       8       1       1
       8       1       1       8       1       1       8       1       1       8
       1       1       8       1       1       8       1       1       8       1
       1       8       1       1       8       1       1       8       1       1
       8       1       1       8       1       1       8       1       1       8
       1       1       8       1       1       8       1       1       8       1
       1       8       1       1       8       1       1       8       1       1
       8       1       1       8       1       1       8       1       1       8
       1       1       8       1       1       8       1       1       8       1
       1       8       1       1       8       1       1       8       1       1
       8       1       1       8       1       1       8       1       1       8
       1       1       8       1       1       8       1       1       8       1
       1       8       1       1       8       1       1       8       1       1
       8       1       1       8       1       1       8       1       1       8
       1       1       8       1       1       8       1       1       8       1
       1       8       1       1       8       1       1       8       1       1
       8       1       1       8       1       1       8       1       1       8
       1       1       8       1       1       8       1       1       8       1
       1       8       1       1       8       1       1       8       1       1
       8       1       1       8       1       1       8       1       1       8
       1       1       8       1       1       8       1       1       8       1
       1       8       1       1       8       1       1       8       1       1
       8       1       1       8       1       1       8       1       1       8
       1       1       8       1       1       8       1       1       8       1
       1       8       1       1       8       1       1       8       1       1
       8       1       1       8       1       1       8       1       1       8
       1       1       8       1       1       8       1       1       8       1
       1       8       1       1       8       1       1       8       1       1
       8       1       1       8       1       1       8       1       1       8
       1       1       8       1       1       8       1       1       8       1
       1       8       1       1       8       1       1       8       1       1
       8       1       1       8       1       1       8       1       1       8
       1       1       8       1       1       8       1       1       8       1
       1       8       1       1       8       1       1       8       1       1
       8       1       1       8       1       1       8       1       1       8
       1       1       8       1       1       8       1       1       8       1
       1       8       1       1       8       1       1       8       1       1
       8       1       1       8       1       1       8       1       1       8
       1       1       8       1       1       8       1       1       8       1
       1       8       1       1       8       1       1       8       1       1
       8       1       1       8       1       1       8       1       1       8
       1       1       8       1       1       8       1       1       8       1
       1       8       1       1       8       1       1       8       1       1
       8       1       1       8       1       1       8       1       1       8
       1       1       8       1       1       8       1       1       8       1
       1       8       1       1       8       1       1       8       1       1
       8       1       1       8       1       1       8       1       1       8
       1       1       8       1       1       8       1       1       8       1
       1       8       1       1       8       1       1       8       1       1
       8       1       1       8       1       1       8       1       1       8
       1       1       8       1       1       8       1       1       8       1
       1       8       1       1       8       1       1       8       1       1
       8       1       1       8       1       1       8       1       1       8
       1       1       8       1       1       8       1       1       8       1
       1       8       1       1       8       1       1       8       1       1
       8       1       1       8       1       1       8       1       1       8
       1       1       8       1       1       8       1       1       8       1
       1       8       1       1       8       1       1       8       1       1
       8       1       1       8       1       1       8       1       1       8
       1       1       8       1       1       8       1       1       8       1
       1       8       1       1       8       1       1       8       1       1
       8       1       1       8       1       1       8       1       1       8
       1       1       8       1       1       8       1       1       8       1
       1       8       1       1       8       1       1       8       1       1
       8       1       1       8       1       1       8       1       1       8
       1       1       8       1       1       8       1       1       8       1
       1       8       1       1       8       1       1       8       1       1
       8       1       1       8       1       1       8       1       1       8
       1       1       8       1       1       8       1       1       8       1
       1       8       1       1       8       1       1       8       1       1
       8       1       1       8       1       1       8       1       1       8
       1       1       8       1       1       8       1       1       8       1
       1       8       1       1       8       1       1       8       1       1
       8       1       1       8       1       1       8       1       1       8
       1       1       8       1       1       8       1       1       8       1
       1       8       1       1       8       1       1       8       1       1
       8       1       1       8       1       1       8       1       1       8
       1       1       8       1       1       8       1       1       8       1
       1       8       1       1       8       1       1       8       1       1
       8       1       1       8       1       1       8       1       1       8
       1       1       8       1       1       8       1       1       8       1
       1       8       1       1       8       1       1       8       1       1
       8       1       1       8       1       1       8       1       1       8
       1       1       8       1       1       8       1       1       8       1
       1       8       1       1       8       1       1       8       1       1
       8       1       1       8       1       1       8       1       1       8
       1       1       8       1       1       8       1       1       8       1
       1       8       1       1       8       1       1       8       1       1
       8       1       1       8       1       1       8       1       1       8
       1       1       8       1       1       8       1       1       8       1
       1       8       1       1       8       1       1       8       1       1
       8       1       1       8       1       1       8       1       1       8
       1       1       8       1       1       8       1       1       8       1
       1       8       1       1       8       1       1       8       1       1
       8       1       1       8       1       1       8       1       1       8
       1       1       8       1       1       8       1       1       8       1
       1       8       1       1       8       1       1       8       1       1
       8       1       1       8       1       1       8       1       1       8
       1       1       8       1       1       8       1       1       8       1
       1       8       1       1       8       1       1       8       1       1
       8       1       1       8       1       1       8       1       1       8
       1       1       8       1       1       8       1       1       8       1
       1       8       1       1       8       1       1       8       1       1
       8       1       1       8       1       1       8       1       1       8
       1       1       8       1       1       8       1       1       8       1
       1       8       1       1       8       1       1       8       1       1
       8       1       1       8       1       1       8       1       1       8
       1       1       8       1       1       8       1       1       8       1
       1       8       1       1       8       1       1       8       1       1
       8       1       1       8       1       1       8       1       1       8
       1       1       8       1       1       8       1       1       8       1
       1       8       1       1       8       1       1       8       1       1
       8       1       1       8       1       1       8       1       1       8
       1       1       8       1       1       8       1       1       8       1
       1       8       1       1       8       1       1       8       1       1
       8       1       1       8       1       1       8       1       1       8
       1       1       8       1       1       8       1       1       8       1
       1       8       1       1       8       1       1       8       1       1
       8       1       1       8       1       1       8       1       1       8
       1       1       8       1       1       8       1       1       8       1
       1       8       1       1       8       1       1       8       1       1
       8       1       1       8       1       1       8       1       1       8
       1       1       8       1       1       8       1       1       8       1
       1       8       1       1       8       1       1       8       1       1
       8       1       1       8       1       1       8       1       1       8
       1       1       8       1       1       8       1       1       8       1
       1       8       1       1       8       1       1       8       1       1
       8       1       1       8       1       1       8       1       1       8
       1       1       8       1       1       8       1       1       8       1
       1       8       1       1       8       1       1       8       1       1
       8       1       1       8       1       1       8       1       1       8
       1       1       8       1       1       8       1       1       8       1
       1       8       1       1       8       1       1       8       1       1
       8       1       1       8       1       1       8       1       1       8
       1       1       8       1       1       8       1       1       8       1
       1       8       1       1       8       1       1       8       1       1
       8       1       1       8       1       1       8       1       1       8
       1       1       8       1       1       8       1       1       8       1
       1       8       1       1       8       1       1       8       1       1
       8       1       1       8       1       1       8       1       1       8
       1       1       8       1       1       8       1       1       8       1
       1       8       1       1       8       1       1       8       1       1
       8       1       1       8       1       1       8       1       1       8
       1       1       8       1       1       8       1       1       8       1
       1       8       1       1       8       1       1       8       1       1
       8       1       1       8       1       1       8       1       1       8
       1       1       8       1       1       8       1       1       8       1
       1       8       1       1       8       1       1       8       1       1
       8       1       1       8       1       1       8       1       1       8
       1       1       8       1       1       8       1       1       8       1
       1       8       1       1       8       1       1       8       1       1
       8       1       1       8       1       1       8       1       1       8
       1       1       8       1       1       8       1       1       8       1
       1       8       1       1       8       1       1       8       1       1
       8       1       1       8       1       1       8       1       1       8
       1       1       8       1       1       8       1       1       8       1
       1       8       1       1       8       1       1       8       1       1
       8       1       1       8       1       1       8       1       1       8
       1       1       8       1       1       8       1       1       8       1
       1       8       1       1       8       1       1       8       1       1
       8       1       1       8       1       1       8       1       1       8
       1       1       8       1       1       8       1       1       8       1
       1       8       1       1       8       1       1       8       1       1
       8       1       1       8       1       1       8       1       1       8
       1       1       8       1       1       8       1       1       8       1
       1       8       1       1       8       1       1       8       1       1
       8       1       1       8       1       1       8       1       1       8
       1       1       8       1       1       8       1       1       8       1
       1       8       1       1       8       1       1       8       1       1
       8       1       1       8       1       1       8       1       1       8
       1       1       8       1       1       8       1       1       8       1
       1       8       1       1       8       1       1       8       1       1
       8       1       1       8       1       1       8       1       1       8
       1       1       8       1       1       8       1       1       8       1
       1       8       1       1       8       1       1       8       1       1
       8       1       1       8       1       1       8       1       1       8
       1       1       8       1       1       8       1       1       8       1
       1       8       1       1       8       1       1       8       1       1
       8       1       1       8       1       1       8       1       1       8
       1       1       8       1       1       8       1       1       8       1
       1       8       1       1       8       1       1       8       1       1
       8       1       1       8       1       1       8       1       1       8
       1       1       8       1       1       8       1       1       8       1
       1       8       1       1       8       1       1       8       1       1
       8       1       1       8       1       1       8       1       1       8
       1       1       8       1       1       8       1       1       8       1
       1       8       1       1       8       1       1       8       1       1
       8       1       1       8       1       1       8       1       1       8
       1       1       8       1       1       8       1       1       8       1
       1       8       1       1       8       1       1       8       1       1
       8       1       1       8       1       1       8       1       1       8
       1       1       8       1       1       8       1       1       8       1
       1       8       1       1       8       1       1       8       1       1
       8       1       1       8       1       1       8       1       1       8
       1       1       8       1       1       8       1       1       8       1
       1       8       1       1       8       1       1       8       1       1
       8       1       1       8       1       1       8       1       1       8
       1       1       8       1       1       8       1       1       8       1
       1       8       1       1       8       1       1       8       1       1
       8       1       1       8       1       1       8       1       1       8
       1       1       8       1       1       8       1       1       8       1
       1       8       1       1       8       1       1       8       1       1
       8       1       1       8       1       1       8       1       1       8
       1       1       8       1       1       8       1       1       8       1
       1       8       1       1       8       1       1       8       1       1
       8       1       1       8       1       1       8       1       1       8
       1       1       8       1       1       8       1       1       8       1
       1       8       1       1       8       1       1       8       1       1
       8       1       1       8       1       1       8       1       1       8
       1       1       8       1       1       8       1       1       8       1
       1       8       1       1       8       1       1       8       1       1
       8       1       1       8       1       1       8       1       1       8
       1       1       8       1       1       8       1       1       8       1
       1       8       1       1       8       1       1       8       1       1
       8       1       1       8       1       1       8       1       1       8
       1       1       8       1       1       8       1       1       8       1
       1       8       1       1       8       1       1       8       1       1
       8       1       1       8       1       1       8       1       1       8
       1       1       8       1       1       8       1       1       8       1
       1       8       1       1       8       1       1       8       1       1
       8       1       1       8       1       1       8       1       1       8
       1       1       8       1       1       8       1       1       8       1
       1       8       1       1       8       1       1       8       1       1
       8       1       1       8       1       1       8       1       1       8
       1       1       8       1       1       8       1       1       8       1
       1       8       1       1       8       1       1       8       1       1
       8       1       1       8       1       1       8       1       1       8
       1       1       8       1       1       8       1       1       8       1
       1       8       1       1       8       1       1       8       1       1
       8       1       1       8       1       1       8       1       1       8
       1       1       8       1       1       8       1       1       8       1
       1       8       1       1       8       1       1       8       1       1
       8       1       1       8       1       1       8       1       1       8
       1       1       8       1       1       8       1       1       8       1
       1       8       1       1       8       1       1       8       1       1
       8       1       1       8       1       1       8       1       1       8
       1       1       8       1       1       8       1       1       8       1
       1       8       1       1       8       1       1       8       1       1
       8       1       1       8       1       1       8       1       1       8
       1       1       8       1       1       8       1       1       8       1
       1       8       1       1       8       1       1       8       1       1
       8       1       1       8       1       1       8       1       1       8
       1       1       8       1       1       8       1       1       8       1
       1       8       1       1       8       1       1       8       1       1
       8       1       1       8       1       1       8       1       1       8
       1       1       8       1       1       8       1       1       8       1
       1       8       1       1       8       1       1       8       1       1
       8       1       1       8       1       1       8       1       1       8
       1       1       8       1       1       8       1       1       8       1
       1       8       1       1       8       1       1       8       1       1
       8       1       1       8       1       1       8       1       1       8
       1       1       8       1       1       8       1       1       8       1
       1       8       1       1       8       1       1       8       1       1
       8       1       1       8       1       1       8       1       1       8
       1       1       8       1       1       8       1       1       8       1
       1       8       1       1       8       1       1       8       1       1
       8       1       1       8       1       1       8       1       1       8
       1       1       8       1       1       8       1       1       8       1
       1       8       1       1       8       1       1       8       1       1
       8       1       1       8       1       1       8       1       1       8
       1       1       8       1       1       8       1       1       8       1
       1       8       1       1       8       1       1       8       1       1
       8       1       1       8       1       1       8       1       1       8
       1       1       8       1       1       8       1       1       8       1
       1       8       1       1       8       1       1       8       1       1
       8       1       1       8       1       1       8       1       1       8
       1       1       8       1       1       8       1       1       8       1
       1       8       1       1       8       1       1       8       1       1
       8       1       1       8       1       1       8       1       1       8
       1       1       8       1       1       8       1       1       8       1
       1       8       1       1       8       1       1       8       1       1
       8       1       1       8       1       1       8       1       1       8
       1       1       8       1       1       8       1       1       8       1
       1       8       1       1       8       1       1       8       1       1
       8       1       1       8       1       1       8       1       1       8
       1       1       8       1       1       8       1       1       8       1
       1       8       1       1       8       1       1       8       1       1
       8       1       1       8       1       1       8       1       1       8
       1       1       8       1       1       8       1       1       8       1
       1       8       1       1       8       1       1       8       1       1
       8       1       1       8       1       1       8       1       1       8
       1       1       8       1       1       8       1       1       8       1
       1       8       1       1       8       1       1       8       1       1
       8       1       1       8       1       1       8       1       1       8
       1       1       8       1       1       8       1       1       8       1
       1       8       1       1       8       1       1       8       1       1
       8       1       1       8       1       1       8       1       1       8
       1       1       8       1       1       8       1       1       8       1
       1       8       1       1       8       1       1       8       1       1
       8       1       1       8       1       1       8       1       1       8
       1       1       8       1       1       8       1       1       8       1
       1       8       1       1       8       1       1       8       1       1
       8       1       1       8       1       1       8       1       1       8
       1       1       8       1       1       8       1       1       8       1
       1       8       1       1       8       1       1       8       1       1
       8       1       1       8       1       1       8       1       1       8
       1       1       8       1       1       8       1       1       8       1
       1       8       1       1       8       1       1       8       1       1
       8       1       1       8       1       1       8       1       1       8
       1       1       8       1       1       8       1       1       8       1
       1       8       1       1       8       1       1       8       1       1
       8       1       1       8       1       1       8       1       1       8
       1       1       8       1       1       8       1       1       8       1
       1       8       1       1       8       1       1       8       1       1
       8       1       1       8       1       1       8       1       1       8
       1       1       8       1       1       8       1       1       8       1
       1       8       1       1       8       1       1       8       1       1
       8       1       1       8       1       1       8       1       1       8
       1       1       8       1       1       8       1       1       8       1
       1       8       1       1       8       1       1       8       1       1
       8       1       1       8       1       1       8       1       1       8
       1       1       8       1       1       8       1       1       8       1
       1       8       1       1       8       1       1       8       1       1
       8       1       1       8       1       1       8       1       1       8
       1       1       8       1       1       8       1       1       8       1
       1       8       1       1       8       1       1       8       1       1
       8       1       1       8       1       1       8       1       1       8
       1       1       8       1       1       8       1       1       8       1
       1       8       1       1       8       1       1       8       1       1
       8       1       1       8       1       1       8       1       1       8
       1       1       8       1       1       8       1       1       8       1
       1       8       1       1       8       1       1       8       1       1
       8       1       1       8       1       1       8       1       1       8
       1       1       8       1       1       8       1       1       8       1
       1       8       1       1       8       1       1       8       1       1
       8       1       1       8       1       1       8       1       1       8
       1       1       8       1       1       8       1       1       8       1
       1       8       1       1       8       1       1       8       1       1
       8       1       1       8       1       1       8       1       1       8
       1       1       8       1       1       8       1       1       8       1
       1       8       1       1       8       1       1       8       1       1
       8       1       1       8       1       1       8       1       1       8
       1       1       8       1       1       8       1       1       8       1
       1       8       1       1       8       1       1       8       1       1
       8       1       1       8       1       1       8       1       1       8
       1       1       8       1       1       8       1       1       8       1
       1       8       1       1       8       1       1       8       1       1
       8       1       1       8       1       1       8       1       1       8
       1       1       8       1       1       8       1       1       8       1
       1       8       1       1       8       1       1       8       1       1
       8       1       1       8       1       1       8       1       1       8
       1       1       8       1       1       8       1       1       8       1
       1       8       1       1       8       1       1       8       1       1
       8       1       1       8       1       1       8       1       1       8
       1       1       8       1       1       8       1       1       8       1
       1       8       1       1       8       1       1       8       1       1
       8       1       1       8       1       1       8       1       1       8
       1       1       8       1       1       8       1       1       8       1
       1       8       1       1       8       1       1       8       1       1
       8       1       1       8       1       1       8       1       1       8
       1       1       8       1       1       8       1       1       8       1
       1       8       1       1       8       1       1       8       1       1
       8       1       1       8       1       1       8       1       1       8
       1       1       8       1       1       8       1       1       8       1
       1       8       1       1       8       1       1       8       1       1
       8       1       1       8       1       1       8       1       1       8
       1       1       8       1       1       8       1       1       8       1
       1       8       1       1       8       1       1       8       1       1
       8       1       1       8       1       1       8       1       1       8
       1       1       8       1       1       8       1       1       8       1
       1       8       1       1       8       1       1       8       1       1
       8       1       1       8       1       1       8       1       1       8
       1       1       8       1       1       8       1       1       8       1
       1       8       1       1       8       1       1       8       1       1
       8       1       1       8       1       1       8       1       1       8
       1       1       8       1       1       8       1       1       8       1
       1       8       1       1       8       1       1       8       1       1
       8       1       1       8       1       1       8       1       1       8
       1       1       8       1       1       8       1       1       8       1
       1       8       1       1       8       1       1       8       1       1
       8       1       1       8       1       1       8       1       1       8
       1       1       8       1       1       8       1       1       8       1
       1       8       1       1       8       1       1       8       1       1
       8       1       1       8       1       1       8       1       1       8
       1       1       8       1       1       8       1       1       8       1
       1       8       1       1       8       1       1       8       1       1
       8       1       1       8       1       1       8       1       1       8
       1       1       8       1       1       8       1       1       8       1
       1       8       1       1       8       1       1       8       1       1
       8       1       1       8       1       1       8       1       1       8
       1       1       8       1       1       8       1       1       8       1
       1       8       1       1       8       1       1       8       1       1
       8       1       1       8       1       1       8       1       1       8
       1       1       8       1       1       8       1       1       8       1
       1       8       1       1       8       1       1       8       1       1
       8       1       1       8       1       1       8       1       1       8
       1       1       8       1       1       8       1       1       8       1
       1       8       1       1       8       1       1       8       1       1
       8       1       1       8       1       1       8       1       1       8
       1       1       8       1       1       8       1       1       8       1
       1       8       1       1       8       1       1       8       1       1
       8       1       1       8       1       1       8       1       1       8
       1       1       8       1       1       8       1       1       8       1
       1       8       1       1       8       1       1       8       1       1
       8       1       1       8       1       1       8       1       1       8
       1       1       8       1       1       8       1       1       8       1
       1       8       1       1       8       1       1       8       1       1
       8       1       1       8       1       1       8       1       1       8
       1       1       8       1       1       8       1       1       8       1
       1       8       1       1       8       1       1       8       1       1
       8       1       1       8       1       1       8       1       1       8
       1       1       8       1       1       8       1       1       8       1
       1       8       1       1       8       1       1       8       1       1
       8       1       1       8       1       1       8       1       1       8
       1       1       8       1       1       8       1       1       8       1
       1       8       1       1       8       1       1       8       1       1
       8       1       1       8       1       1       8       1       1       8
       1       1       8       1       1       8       1       1       8       1
       1       8       1       1       8       1       1       8       1       1
       8       1       1       8       1       1       8       1       1       8
       1       1       8       1       1       8       1       1       8       1
       1       8       1       1       8       1       1       8       1       1
       8       1       1       8       1       1       8       1       1       8
       1       1       8       1       1       8       1       1       8       1
       1       8       1       1       8       1       1       8       1       1
       8       1       1       8       1       1       8       1       1       8
       1       1       8       1       1       8       1       1       8       1
       1       8       1       1       8       1       1       8       1       1
       8       1       1       8       1       1       8       1       1       8
       1       1       8       1       1       8       1       1       8       1
       1       8       1       1       8       1       1       8       1       1
       8       1       1       8       1       1       8       1       1       8
       1       1       8       1       1       8       1       1       8       1
       1       8       1       1       8       1       1       8       1       1
       8       1       1       8       1       1       8       1       1       8
       1       1       8       1       1       8       1       1       8       1
       1       8       1       1       8       1       1       8       1       1
       8       1       1       8       1       1       8       1       1       8
       1       1       8       1       1       8       1       1       8       1
       1       8       1       1       8       1       1       8       1       1
       8       1       1       8       1       1       8       1       1       8
       1       1       8       1       1       8       1       1       8       1
       1       8       1       1       8       1       1       8       1       1
       8       1       1       8       1       1       8       1       1       8
       1       1       8       1       1       8       1       1       8       1
       1       8       1       1       8       1       1       8       1       1
       8       1       1       8       1       1       8       1       1       8
       1       1       8       1       1       8       1       1       8       1
       1       8       1       1       8       1       1       8       1       1
       8       1       1       8       1       1       8       1       1       8
       1       1       8       1       1       8       1       1       8       1
       1       8       1       1       8       1       1       8       1       1
       8       1       1       8       1       1       8       1       1       8
       1       1       8       1       1       8       1       1       8       1
       1       8       1       1       8       1       1       8       1       1
       8       1       1       8       1       1       8       1       1       8
       1       1       8       1       1       8       1       1       8       1
       1       8       1       1       8       1       1       8       1       1
       8       1       1       8       1       1       8       1       1       8
       1       1       8       1       1       8       1       1       8       1
       1       8       1       1       8       1       1       8       1       1
       8       1       1       8       1       1       8       1       1       8
       1       1       8       1       1       8       1       1       8       1
       1       8       1       1       8       1       1       8       1       1
       8       1       1       8       1       1       8       1       1       8
       1       1       8       1       1       8       1       1       8       1
       1       8       1       1       8       1       1       8       1       1
       8       1       1       8       1       1       8       1       1       8
       1       1       8       1       1       8       1       1       8       1
       1       8       1       1       8       1       1       8       1       1
       8       1       1       8       1       1       8       1       1       8
       1       1       8       1       1       8       1       1       8       1
       1       8       1       1       8       1       1       8       1       1
       8       1       1       8       1       1       8       1       1       8
       1       1       8       1       1       8       1       1       8       1
       1       8       1       1       8       1       1       8       1       1
       8       1       1       8       1       1       8       1       1       8
       1       1       8       1       1       8       1       1       8       1
       1       8       1       1       8       1       1       8       1       1
       8       1       1       8       1       1       8       1       1       8
       1       1       8       1       1       8       1       1       8       1
       1       8       1       1       8       1       1       8       1       1
       8       1       1       8       1       1       8       1       1       8
       1       1       8       1       1       8       1       1       8       1
       1       8       1       1       8       1       1       8       1       1
       8       1       1       8       1       1       8       1       1       8
       1       1       8       1       1       8       1       1       8       1
       1       8       1       1       8       1       1       8       1       1
       8       1       1       8       1       1       8       1       1       8
       1       1       8       1       1       8       1       1       8       1
       1       8       1       1       8       1       1       8       1       1
       8       1       1       8       1       1       8       1       1       8
       1       1       8       1       1       8       1       1       8       1
       1       8       1       1       8       1       1       8       1       1
       8       1       1       8       1       1       8       1       1       8
       1       1       8       1       1       8       1       1       8       1
       1       8       1       1       8       1       1       8       1       1
       8       1       1       8       1       1       8       1       1       8
       1       1       8       1       1       8       1       1       8       1
       1       8       1       1       8       1       1       8       1       1
       8       1       1       8       1       1       8       1       1       8
       1       1       8       1       1       8       1       1       8       1
       1       8       1       1       8       1       1       8       1       1
       8       1       1       8       1       1       8       1       1       8
       1       1       8       1       1       8       1       1       8       1
       1       8       1       1       8       1       1       8       1       1
       8       1       1       8       1       1       8       1       1       8
       1       1       8       1       1       8       1       1       8       1
       1       8       1       1       8       1       1       8       1       1
       8       1       1       8       1       1       8       1       1       8
       1       1       8       1       1       8       1       1       8       1
       1       8       1       1       8       1       1       8       1       1
       8       1       1       8       1       1       8       1       1       8
       1       1       8       1       1       8       1       1       8       1
       1       8       1       1       8       1       1       8       1       1
       8       1       1       8       1       1       8       1       1       8
       1       1       8       1       1       8       1       1       8       1
       1       8       1       1       8       1       1       8       1       1
       8       1       1       8       1       1       8       1       1       8
       1       1       8       1       1       8       1       1       8       1
       1       8       1       1       8       1       1       8       1       1
       8       1       1       8       1       1       8       1       1       8
       1       1       8       1       1       8       1       1       8       1
       1       8       1       1       8       1       1       8       1       1
       8       1       1       8       1       1       8       1       1       8
       1       1       8       1       1       8       1       1       8       1
       1       8       1       1       8       1       1       8       1       1
       8       1       1       8       1       1       8       1       1       8
       1       1       8       1       1       8       1       1       8       1
       1       8       1       1       8       1       1       8       1       1
       8       1       1       8       1       1       8       1       1       8
       1       1       8       1       1       8       1       1       8       1
       1       8       1       1       8       1       1       8       1       1
       8       1       1       8       1       1       8       1       1       8
       1       1       8       1       1       8       1       1       8       1
       1       8       1       1       8       1       1       8       1       1
       8       1       1       8       1       1       8       1       1       8
       1       1       8       1       1       8       1       1       8       1
       1       8       1       1       8       1       1       8       1       1
       8       1       1       8       1       1       8       1       1       8
       1       1       8       1       1       8       1       1       8       1
       1       8       1       1       8       1       1       8       1       1
       8       1       1       8       1       1       8       1       1       8
       1       1       8       1       1       8       1       1       8       1
       1       8       1       1       8       1       1       8       1       1
       8       1       1       8       1       1       8       1       1       8
       1       1       8       1       1       8       1       1       8       1
       1       8       1       1       8       1       1       8       1       1
       8       1       1       8       1       1       8       1       1       8
       1       1       8       1       1       8       1       1       8       1
       1       8       1       1       8       1       1       8       1       1
       8       1       1       8       1       1       8       1       1       8
       1       1       8       1       1       8       1       1       8       1
       1       8       1       1       8       1       1       8       1       1
       8       1       1       8       1       1       8       1       1       8
       1       1       8       1       1       8       1       1       8       1
       1       8       1       1       8       1       1       8       1       1
       8       1       1       8       1       1       8       1       1       8
       1       1       8       1       1       8       1       1       8       1
       1       8       1       1       8       1       1       8       1       1
       8       1       1       8       1       1       8       1       1       8
       1       1       8       1       1       8       1       1       8       1
       1       8       1       1       8       1       1       8       1       1
       8       1       1       8       1       1       8       1       1       8
       1       1       8       1       1       8       1       1       8       1
       1       8       1       1       8       1       1       8       1       1
       8       1       1       8       1       1       8       1       1       8
       1       1       8       1       1       8       1       1       8       1
       1       8       1       1       8       1       1       8       1       1
       8       1       1       8       1       1       8       1       1       8
       1       1       8       1       1       8       1       1       8       1
       1       8       1       1       8       1       1       8       1       1
       8       1       1       8       1       1       8       1       1       8
       1       1       8       1       1       8       1       1       8       1
       1       8       1       1       8       1       1       8       1       1
       8       1       1       8       1       1       8       1       1       8
       1       1       8       1       1       8       1       1       8       1
       1       8       1       1       8       1       1       8       1       1
       8       1       1       8       1       1       8       1       1       8
       1       1       8       1       1       8       1       1       8       1
       1       8       1       1       8       1       1       8       1       1
       8       1       1       8       1       1       8       1       1       8
       1       1       8       1       1       8       1       1       8       1
       1       8       1       1       8       1       1       8       1       1
       8       1       1       8       1       1       8       1       1       8
       1       1       8       1       1       8       1       1       8       1
       1       8       1       1       8       1       1       8       1       1
       8       1       1       8       1       1       8       1       1       8
       1       1       8       1       1       8       1       1       8       1
       1       8       1       1       8       1       1       8       1       1
       8       1       1       8       1       1       8       1       1       8
       1       1       8       1       1       8       1       1       8       1
       1       8       1       1       8       1       1       8       1       1
       8       1       1       8       1       1       8       1       1       8
       1       1       8       1       1       8       1       1       8       1
       1       8       1       1       8       1       1       8       1       1
       8       1       1       8       1       1       8       1       1       8
       1       1       8       1       1       8       1       1       8       1
       1       8       1       1       8       1       1       8       1       1
       8       1       1       8       1       1       8       1       1       8
       1       1       8       1       1       8       1       1       8       1
       1       8       1       1       8       1       1       8       1       1
       8       1       1       8       1       1       8       1       1       8
       1       1       8       1       1       8       1       1       8       1
       1       8       1       1       8       1       1       8       1       1
       8       1       1       8       1       1       8       1       1       8
       1       1       8       1       1       8       1       1       8       1
       1       8       1       1       8       1       1       8       1       1
       8       1       1       8       1       1       8       1       1       8
       1       1       8       1       1       8       1       1       8       1
       1       8       1       1       8       1       1       8       1       1
       8       1       1       8       1       1       8       1       1       8
       1       1       8       1       1       8       1       1       8       1
       1       8       1       1       8       1       1       8       1       1
       8       1       1       8       1       1       8       1       1       8
       1       1       8       1       1       8       1       1       8       1
       1       8       1       1       8       1       1       8       1       1
       8       1       1       8       1       1       8       1       1       8
       1       1       8       1       1       8       1       1       8       1
       1       8       1       1       8       1       1       8       1       1
       8       1       1       8       1       1       8       1       1       8
       1       1       8       1       1       8       1       1       8       1
       1       8       1       1       8       1       1       8       1       1
       8       1       1       8       1       1       8       1       1       8
       1       1       8       1       1       8       1       1       8       1
       1       8       1       1       8       1       1       8       1       1
       8       1       1       8       1       1       8       1       1       8
       1       1       8       1       1       8       1       1       8       1
       1       8       1       1       8       1       1       8       1       1
       8       1       1       8       1       1       8       1       1       8
       1       1       8       1       1       8       1       1       8       1
       1       8       1       1       8       1       1       8       1       1
       8       1       1       8       1       1       8       1       1       8
       1       1       8       1       1       8       1       1       8       1
       1       8       1       1       8       1       1       8       1       1
       8       1       1       8       1       1       8       1       1       8
       1       1       8       1       1       8       1       1       8       1
       1       8       1       1       8       1       1       8       1       1
       8       1       1       8       1       1       8       1       1       8
       1       1       8       1       1       8       1       1       8       1
       1       8       1       1       8       1       1       8       1       1
       8       1       1       8       1       1       8       1       1       8
       1       1       8       1       1       8       1       1       8       1
       1       8       1       1       8       1       1       8       1       1
       8       1       1       8       1       1       8       1       1       8
       1       1       8       1       1       8       1       1       8       1
       1       8       1       1       8       1       1       8       1       1
       8       1       1       8       1       1       8       1       1       8
       1       1       8       1       1       8       1       1       8       1
       1       8       1       1       8       1       1       8       1       1
       8       1       1       8       1       1       8       1       1       8
       1       1       8       1       1       8       1       1       8       1
       1       8       1       1       8       1       1       8       1       1
       8       1       1       8       1       1       8       1       1       8
       1       1       8       1       1       8       1       1       8       1
       1       8       1       1       8       1       1       8       1       1
       8       1       1       8       1       1       8       1       1       8
       1       1       8       1       1       8       1       1       8       1
       1       8       1       1       8       1       1       8       1       1
       8       1       1       8       1       1       8       1       1       8
       1       1       8       1       1       8       1       1       8       1
       1       8       1       1       8       1       1       8       1       1
       8       1       1       8       1       1       8       1       1       8
       1       1       8       1       1       8       1       1       8       1
       1       8       1       1       8       1       1       8       1       1
       8       1       1       8       1       1       8       1       1       8
       1       1       8       1       1       8       1       1       8       1
       1       8       1       1       8       1       1       8       1       1
       8       1       1       8       1       1       8       1       1       8
       1       1       8       1       1       8       1       1       8       1
       1       8       1       1       8       1       1       8       1       1
       8       1       1       8       1       1       8       1       1       8
       1       1       8       1       1       8       1       1       8       1
       1       8       1       1       8       1       1       8       1       1
       8       1       1       8       1       1       8       1       1       8
       1       1       8       1       1       8       1       1       8       1
       1       8       1       1       8       1       1       8       1       1
       8       1       1       8       1       1       8       1       1       8
       1       1       8       1       1       8       1       1       8       1
       1       8       1       1       8       1       1       8       1       1
       8       1       1       8       1       1       8       1       1       8
       1       1       8       1       1       8       1       1       8       1
       1       8       1       1       8       1       1       8       1       1
       8       1       1       8       1       1       8       1       1       8
       1       1       8       1       1       8       1       1       8       1
       1       8       1       1       8       1       1       8       1       1
       8       1       1       8       1       1       8       1       1       8
       1       1       8       1       1       8       1       1       8       1
       1       8       1       1       8       1       1       8       1       1
       8       1       1       8       1       1       8       1       1       8
       1       1       8       1       1       8       1       1       8       1
       1       8       1       1       8       1       1       8       1       1
       8       1       1       8       1       1       8       1       1       8
       1       1       8       1       1       8       1       1       8       1
       1       8       1       1       8       1       1       8       1       1
       8       1       1       8       1       1       8       1       1       8
       1       1       8       1       1       8       1       1       8       1
       1       8       1       1       8       1       1       8       1       1
       8       1       1       8       1       1       8       1       1       8
       1       1       8       1       1       8       1       1       8       1
       1       8       1       1       8       1       1       8       1       1
       8       1       1       8       1       1       8       1       1       8
       1       1       8       1       1       8       1       1       8       1
       1       8       1       1       8       1       1       8       1       1
       8       1       1       8       1       1       8       1       1       8
       1       1       8       1       1       8       1       1       8       1
       1       8       1       1       8       1       1       8       1       1
       8       1       1       8       1       1       8       1       1       8
       1       1       8       1       1       8       1       1       8       1
       1       8       1       1       8       1       1       8       1       1
       8       1       1       8       1       1       8       1       1       8
       1       1       8       1       1       8       1       1       8       1
       1       8       1       1       8       1       1       8       1       1
       8       1       1       8       1       1       8       1       1       8
       1       1       8       1       1       8       1       1       8       1
       1       8       1       1       8       1       1       8       1       1
       8       1       1       8       1       1       8       1       1       8
       1       1       8       1       1       8       1       1       8       1
       1       8       1       1       8       1       1       8       1       1
       8       1       1       8       1       1       8       1       1       8
       1       1       8       1       1       8       1       1       8       1
       1       8       1       1       8       1       1       8       1       1
       8       1       1       8       1       1       8       1       1       8
       1       1       8       1       1       8       1       1       8       1
       1       8       1       1       8       1       1       8       1       1
       8       1       1       8       1       1       8       1       1       8
       1       1       8       1       1       8       1       1       8       1
       1       8       1       1       8       1       1       8       1       1
       8       1       1       8       1       1       8       1       1       8
       1       1       8       1       1       8       1       1       8       1
       1       8       1       1       8       1       1       8       1       1
       8       1       1       8       1       1       8       1       1       8
       1       1       8       1       1       8       1       1       8       1
       1       8       1       1       8       1       1       8       1       1
       8       1       1       8       1       1       8       1       1       8
       1       1       8       1       1       8       1       1       8       1
       1       8       1       1       8       1       1       8       1       1
       8       1       1       8       1       1       8       1       1       8
       1       1       8       1       1       8       1       1       8       1
       1       8       1       1       8       1       1       8       1       1
       8       1       1       8       1       1       8       1       1       8
       1       1       8       1       1       8       1       1       8       1
       1       8       1       1       8       1       1       8       1       1
       8       1       1       8       1       1       8       1       1       8
       1       1       8       1       1       8       1       1       8       1
       1       8       1       1       8       1       1       8       1       1
       8       1       1       8       1       1       8       1       1       8
       1       1       8       1       1       8       1       1       8       1
       1       8       1       1       8       1       1       8       1       1
       8       1       1       8       1       1       8       1       1       8
       1       1       8       1       1       8       1       1       8       1
       1       8       1       1       8       1       1       8       1       1
       8       1       1       8       1       1       8       1       1       8
       1       1       8       1       1       8       1       1       8       1
       1       8       1       1       8       1       1       8       1       1
       8       1       1       8       1       1       8       1       1       8
       1       1       8       1       1       8       1       1       8       1
       1       8       1       1       8       1       1       8       1       1
       8       1       1       8       1       1       8       1       1       8
       1       1       8       1       1       8       1       1       8       1
       1       8       1       1       8       1       1       8       1       1
       8       1       1       8       1       1       8       1       1       8
       1       1       8       1       1       8       1       1       8       1
       1       8       1       1       8       1       1       8       1       1
       8       1       1       8       1       1       8       1       1       8
       1       1       8       1       1       8       1       1       8       1
       1       8       1       1       8       1       1       8       1       1
       8       1       1       8       1       1       8       1       1       8
       1       1       8       1       1       8       1       1       8       1
       1       8       1       1       8       1       1       8       1       1
       8       1       1       8       1       1       8       1       1       8
       1       1       8       1       1       8       1       1       8       1
       1       8       1       1       8       1       1       8       1       1
       8       1       1       8       1       1       8       1       1       8
       1       1       8       1       1       8       1       1       8       1
       1       8       1       1       8       1       1       8       1       1
       8       1       1       8       1       1       8       1       1       8
       1       1       8       1       1       8       1       1       8       1
       1       8       1       1       8       1       1       8       1       1
       8       1       1       8       1       1       8       1       1       8
       1       1       8       1       1       8       1       1       8       1
       1       8       1       1       8       1       1       8       1       1
       8       1       1       8       1       1       8       1       1       8
       1       1       8       1       1       8       1       1       8       1
       1       8       1       1       8       1       1       8       1       1
       8       1       1       8       1       1       8       1       1       8
       1       1       8       1       1       8       1       1       8       1
       1       8       1       1       8       1       1       8       1       1
       8       1       1       8       1       1       8       1       1       8
       1       1       8       1       1       8       1       1       8       1
       1       8       1       1       8       1       1       8       1       1
       8       1       1       8       1       1       8       1       1       8
       1       1       8       1       1       8       1       1       8       1
       1       8       1       1       8       1       1       8       1       1
       8       1       1       8       1       1       8       1       1       8
       1       1       8       1       1       8       1       1       8       1
       1       8       1       1       8       1       1       8       1       1
       8       1       1       8       1       1       8       1       1       8
       1       1       8       1       1       8       1       1       8       1
       1       8       1       1       8       1       1       8       1       1
       8       1       1       8       1       1       8       1       1       8
       1       1       8       1       1       8       1       1       8       1
       1       8       1       1       8       1       1       8       1       1
       8       1       1       8       1       1       8       1       1       8
       1       1       8       1       1       8       1       1       8       1
       1       8       1       1       8       1       1       8       1       1
       8       1       1       8       1       1       8       1       1       8
       1       1       8       1       1       8       1       1       8       1
       1       8       1       1       8       1       1       8       1       1
       8       1       1       8       1       1       8       1       1       8
       1       1       8       1       1       8       1       1       8       1
       1       8       1       1       8       1       1       8       1       1
       8       1       1       8       1       1       8       1       1       8
       1       1       8       1       1       8       1       1       8       1
       1       8       1       1       8       1       1       8       1       1
       8       1       1       8       1       1       8       1       1       8
       1       1       8       1       1       8       1       1       8       1
       1       8       1       1       8       1       1       8       1       1
       8       1       1       8       1       1       8       1       1       8
       1       1       8       1       1       8       1       1       8       1
       1       8       1       1       8       1       1       8       1       1
       8       1       1       8       1       1       8       1       1       8
       1       1       8       1       1       8       1       1       8       1
       1       8       1       1       8       1       1       8       1       1
       8       1       1       8       1       1       8       1       1       8
       1       1       8       1       1       8       1       1       8       1
       1       8       1       1       8       1       1       8       1       1
       8       1       1       8       1       1       8       1       1       8
       1       1       8       1       1       8       1       1       8       1
       1       8       1       1       8       1       1       8       1       1
       8       1       1       8       1       1       8       1       1       8
       1       1       8       1       1       8       1       1       8       1
       1       8       1       1       8       1       1       8       1       1
       8       1       1       8       1       1       8       1       1       8
       1       1       8       1       1       8       1       1       8       1
       1       8       1       1       8       1       1       8       1       1
       8       1       1       8       1       1       8       1       1       8
       1       1       8       1       1       8       1       1       8       1
       1       8       1       1       8       1       1       8       1       1
       8       1       1       8       1       1       8       1       1       8
       1       1       8       1       1       8       1       1       8       1
       1       8       1       1       8       1       1       8       1       1
       8       1       1       8       1       1       8       1       1       8
       1       1       8       1       1       8       1       1       8       1
       1       8       1       1       8       1       1       8       1       1
       8       1       1       8       1       1       8       1       1       8
       1       1       8       1       1       8       1       1       8       1
       1       8       1       1       8       1       1       8       1       1
       8       1       1       8       1       1       8       1       1       8
       1       1       8       1       1       8       1       1       8       1
       1       8       1       1       8       1       1       8       1       1
       8       1       1       8       1       1       8       1       1       8
       1       1       8       1       1       8       1       1       8       1
       1       8       1       1       8       1       1       8       1       1
       8       1       1       8       1       1       8       1       1       8
       1       1       8       1       1       8       1       1       8       1
       1       8       1       1       8       1       1       8       1       1
       8       1       1       8       1       1       8       1       1       8
       1       1       8       1       1       8       1       1       8       1
       1       8       1       1       8       1       1       8       1       1
       8       1       1       8       1       1       8       1       1       8
       1       1       8       1       1       8       1       1       8       1
       1       8       1       1       8       1       1       8       1       1
       8       1       1       8       1       1       8       1       1       8
       1       1       8       1       1       8       1       1       8       1
       1       8       1       1       8       1       1       8       1       1
       8       1       1       8       1       1       8       1       1       8
       1       1       8       1       1       8       1       1       8       1
       1       8       1       1       8       1       1       8       1       1
       8       1       1       8       1       1       8       1       1       8
       1       1       8       1       1       8       1       1       8       1
       1       8       1       1       8       1       1       8       1       1
       8       1       1       8       1       1       8       1       1       8
       1       1       8       1       1       8       1       1       8       1
       1       8       1       1       8       1       1       8       1       1
       8       1       1       8       1       1       8       1       1       8
       1       1       8       1       1       8       1       1       8       1
       1       8       1       1       8       1       1       8       1       1
       8       1       1       8       1       1       8       1       1       8
       1       1       8       1       1       8       1       1       8       1
       1       8       1       1       8       1       1       8       1       1
       8       1       1       8       1       1       8       1       1       8
       1       1       8       1       1       8       1       1       8       1
       1       8       1       1       8       1       1       8       1       1
       8       1       1       8       1       1       8       1       1       8
       1       1       8       1       1       8       1       1       8       1
       1       8       1       1       8       1       1       8       1       1
       8       1       1       8       1       1       8       1       1       8
       1       1       8       1       1       8       1       1       8       1
       1       8       1       1       8       1       1       8       1       1
       8       1       1       8       1       1       8       1       1       8
       1       1       8       1       1       8       1       1       8       1
       1       8       1       1       8       1       1       8       1       1
       8       1       1       8       1       1       8       1       1       8
       1       1       8       1       1       8       1       1       8       1
       1       8       1       1       8       1       1       8       1       1
       8       1       1       8       1       1       8       1       1       8
       1       1       8       1       1       8       1       1       8       1
       1       8       1       1       8       1       1       8       1       1
       8       1       1       8       1       1       8       1       1       8
       1       1       8       1       1       8       1       1       8       1
       1       8       1       1       8       1       1       8       1       1
       8       1       1       8       1       1       8       1       1       8
       1       1       8       1       1       8       1       1       8       1
       1       8       1       1       8       1       1       8       1       1
       8       1       1       8       1       1       8       1       1       8
       1       1       8       1       1       8       1       1       8       1
       1       8       1       1       8       1       1       8       1       1
       8       1       1       8       1       1       8       1       1       8
       1       1       8       1       1       8       1       1       8       1
       1       8       1       1       8       1       1       8       1       1
       8       1       1       8       1       1       8       1       1       8
       1       1       8       1       1       8       1       1       8       1
       1       8       1       1       8       1       1       8       1       1
       8       1       1       8       1       1       8       1       1       8
       1       1       8       1       1       8       1       1       8       1
       1       8       1       1       8       1       1       8       1       1
       8       1       1       8       1       1       8       1       1       8
       1       1       8       1       1       8       1       1       8       1
       1       8       1       1       8       1       1       8       1       1
       8       1       1       8       1       1       8       1       1       8
       1       1       8       1       1       8       1       1       8       1
       1       8       1       1       8       1       1       8       1       1
       8       1       1       8       1       1       8       1       1       8
       1       1       8       1       1       8       1       1       8       1
       1       8       1       1       8       1       1       8       1       1
       8       1       1       8       1       1       8       1       1       8
       1       1       8       1       1       8       1       1       8       1
       1       8       1       1       8       1       1       8       1       1
       8       1       1       8       1       1       8       1       1       8
       1       1       8       1       1       8       1       1       8       1
       1       8       1       1       8       1       1       8       1       1
       8       1       1       8       1       1       8       1       1       8
       1       1       8       1       1       8       1       1       8       1
       1       8       1       1       8       1       1       8       1       1
       8       1       1       8       1       1
%FLAG MASS                                                                      
%FORMAT(5E16.8)                                                                 
  1.00800000E+00  1.20100000E+01  1.00800000E+00  1.00800000E+00  1.20100000E+01
  1.60000000E+01  1.40100000E+01  1.00800000E+00  1.20100000E+01  1.00800000E+00
  1.20100000E+01  1.00800000E+00  1.00800000E+00  1.20100000E+01  1.00800000E+00
  1.00800000E+00  1.20100000E+01  1.60000000E+01  1.40100000E+01  1.00800000E+00
  1.00800000E+00  1.20100000E+01  1.60000000E+01  1.40100000E+01  1.00800000E+00
  1.20100000E+01  1.00800000E+00  1.20100000E+01  1.00800000E+00  1.00800000E+00
  3.20600000E+01  1.20100000E+01  1.60000000E+01  1.40100000E+01  1.00800000E+00
  1.20100000E+01  1.00800000E+00  1.20100000E+01  1.00800000E+00  1.00800000E+00
  3.20600000E+01  1.20100000E+01  1.60000000E+01  1.40100000E+01  1.00800000E+00
  1.20100000E+01  1.00800000E+00  1.20100000E+01  1.00800000E+00  1.20100000E+01
  1.00800000E+00  1.00800000E+00  1.00800000E+00  1.60000000E+01  1.00800000E+00
  1.20100000E+01  1.60000000E+01  1.40100000E+01  1.00800000E+00  1.20100000E+01
  1.00800000E+00  1.20100000E+01  1.00800000E+00  1.00800000E+00  1.60000000E+01
  1.00800000E+00  1.20100000E+01  1.60000000E+01  1.40100000E+01  1.00800000E+00
  1.20100000E+01  1.00800000E+00  1.20100000E+01  1.00800000E+00  1.20100000E+01
  1.00800000E+00  1.00800000E+00  1.00800000E+00  1.20100000E+01  1.00800000E+00
  1.00800000E+00  1.20100000E+01  1.00800000E+00  1.00800000E+00  1.00800000E+00
  1.20100000E+01  1.60000000E+01  1.40100000E+01  1.00800000E+00  1.20100000E+01
  1.00800000E+00  1.20100000E+01  1.00800000E+00  1.00800000E+00  3.20600000E+01
  1.20100000E+01  1.60000000E+01  1.40100000E+01  1.00800000E+00  1.20100000E+01
  1.00800000E+00  1.20100000E+01  1.00800000E+00  1.00800000E+00  1.60000000E+01
  1.00800000E+00  1.20100000E+01  1.60000000E+01  1.40100000E+01  1.00800000E+00
  1.20100000E+01  1.00800000E+00  1.20100000E+01  1.00800000E+00  1.00800000E+00
  1.20100000E+01  1.00800000E+00  1.20100000E+01  1.00800000E+00  1.00800000E+00
  1.00800000E+00  1.20100000E+01  1.00800000E+00  1.00800000E+00  1.00800000E+00
  1.20100000E+01  1.60000000E+01  1.40100000E+01  1.00800000E+00  1.20100000E+01
  1.00800000E+00  1.20100000E+01  1.00800000E+00  1.00800000E+00  1.20100000E+01
  1.20100000E+01  1.00800000E+00  1.20100000E+01  1.00800000E+00  1.20100000E+01
  1.60000000E+01  1.00800000E+00  1.20100000E+01  1.00800000E+00  1.20100000E+01
  1.00800000E+00  1.20100000E+01  1.60000000E+01  1.40100000E+01  1.00800000E+00
  1.20100000E+01  1.00800000E+00  1.20100000E+01  1.00800000E+00  1.00800000E+00
  1.20100000E+01  1.00800000E+00  1.00800000E+00  1.20100000E+01  1.60000000E+01
  1.40100000E+01  1.00800000E+00  1.00800000E+00  1.20100000E+01  1.60000000E+01
  1.40100000E+01  1.00800000E+00  1.20100000E+01  1.00800000E+00  1.20100000E+01
  1.00800000E+00  1.00800000E+00  1.20100000E+01  1.00800000E+00  1.20100000E+01
  1.00800000E+00  1.00800000E+00  1.00800000E+00  1.20100000E+01  1.00800000E+00
  1.00800000E+00  1.00800000E+00  1.20100000E+01  1.60000000E+01  1.40100000E+01
  1.00800000E+00  1.20100000E+01  1.00800000E+00  1.20100000E+01  1.00800000E+00
  1.00800000E+00  1.20100000E+01  1.00800000E+00  1.00800000E+00  1.20100000E+01
  1.60000000E+01  1.60000000E+01  1.00800000E+00  1.20100000E+01  1.60000000E+01
  1.00800000E+00  1.00800000E+00  1.00800000E+00  1.40100000E+01  1.00800000E+00
  1.20100000E+01  1.00800000E+00  1.20100000E+01  1.00800000E+00  1.00800000E+00
  1.20100000E+01  1.60000000E+01  1.40100000E+01  1.00800000E+00  1.00800000E+00
  1.20100000E+01  1.60000000E+01  1.40100000E+01  1.00800000E+00  1.20100000E+01
  1.00800000E+00  1.20100000E+01  1.00800000E+00  1.00800000E+00  1.20100000E+01
  1.20100000E+01  1.00800000E+00  1.20100000E+01  1.00800000E+00  1.20100000E+01
  1.60000000E+01  1.00800000E+00  1.20100000E+01  1.00800000E+00  1.20100000E+01
  1.00800000E+00  1.20100000E+01  1.60000000E+01  1.40100000E+01  1.00800000E+00
  1.20100000E+01  1.00800000E+00  1.20100000E+01  1.00800000E+00  1.00800000E+00
  3.20600000E+01  1.20100000E+01  1.60000000E+01  1.40100000E+01  1.00800000E+00
  1.20100000E+01  1.00800000E+00  1.00800000E+00  1.00800000E+00  1.00800000E+00
  1.20100000E+01  1.00800000E+00  1.00800000E+00  1.20100000E+01  1.60000000E+01
  1.40100000E+01  1.00800000E+00  1.20100000E+01  1.00800000E+00  1.20100000E+01
  1.00800000E+00  1.00800000E+00  1.20100000E+01  1.40100000E+01  1.00800000E+00
  1.20100000E+01  1.00800000E+00  1.40100000E+01  1.00800000E+00  1.20100000E+01
  1.00800000E+00  1.20100000E+01  1.60000000E+01  1.40100000E+01  1.00800000E+00
  1.20100000E+01  1.00800000E+00  1.20100000E+01  1.00800000E+00  1.00800000E+00
  1.20100000E+01  1.00800000E+00  1.20100000E+01  1.00800000E+00  1.00800000E+00
  1.00800000E+00  1.20100000E+01  1.00800000E+00  1.00800000E+00  1.00800000E+00
  1.20100000E+01  1.60000000E+01  1.40100000E+01  1.00800000E+00  1.20100000E+01
  1.00800000E+00  1.20100000E+01  1.00800000E+00  1.00800000E+00  3.20600000E+01
  1.20100000E+01  1.60000000E+01  1.40100000E+01  1.00800000E+00  1.20100000E+01
  1.00800000E+00  1.00800000E+00  1.20100000E+01  1.60000000E+01  1.40100000E+01
  1.00800000E+00  1.20100000E+01  1.00800000E+00  1.20100000E+01  1.00800000E+00
  1.00800000E+00  1.60000000E+01  1.00800000E+00  1.20100000E+01  1.60000000E+01
  1.40100000E+01  1.00800000E+00  1.20100000E+01  1.00800000E+00  1.20100000E+01
  1.00800000E+00  1.00800000E+00  1.20100000E+01  1.40100000E+01  1.00800000E+00
  1.20100000E+01  1.00800000E+00  1.40100000E+01  1.00800000E+00  1.20100000E+01
  1.00800000E+00  1.20100000E+01  1.60000000E+01  1.40100000E+01  1.00800000E+00
  1.20100000E+01  1.00800000E+00  1.20100000E+01  1.00800000E+00  1.00800000E+00
  1.20100000E+01  1.00800000E+00  1.20100000E+01  1.00800000E+00  1.00800000E+00
  1.00800000E+00  1.20100000E+01  1.00800000E+00  1.00800000E+00  1.00800000E+00
  1.20100000E+01  1.60000000E+01  1.40100000E+01  1.00800000E+00  1.20100000E+01
  1.00800000E+00  1.20100000E+01  1.00800000E+00  1.20100000E+01  1.00800000E+00
  1.00800000E+00  1.00800000E+00  1.20100000E+01  1.00800000E+00  1.00800000E+00
  1.00800000E+00  1.20100000E+01  1.60000000E+01  1.40100000E+01  1.00800000E+00
  1.20100000E+01  1.00800000E+00  1.20100000E+01  1.00800000E+00  1.00800000E+00
  1.20100000E+01  1.00800000E+00  1.00800000E+00  1.20100000E+01  1.60000000E+01
  1.60000000E+01  1.00800000E+00  1.20100000E+01  1.60000000E+01  1.00800000E+00
  1.00800000E+00  1.00800000E+00  1.40100000E+01  1.00800000E+00  1.20100000E+01
  1.00800000E+00  1.20100000E+01  1.00800000E+00  1.00800000E+00  1.00800000E+00
  1.20100000E+01  1.60000000E+01  1.40100000E+01  1.00800000E+00  1.20100000E+01
  1.00800000E+00  1.20100000E+01  1.00800000E+00  1.00800000E+00  1.20100000E+01
  1.00800000E+00  1.20100000E+01  1.00800000E+00  1.00800000E+00  1.00800000E+00
  1.20100000E+01  1.00800000E+00  1.00800000E+00  1.00800000E+00  1.20100000E+01
  1.60000000E+01  1.40100000E+01  1.00800000E+00  1.20100000E+01  1.00800000E+00
  1.20100000E+01  1.00800000E+00  1.00800000E+00  1.20100000E+01  1.20100000E+01
  1.00800000E+00  1.20100000E+01  1.00800000E+00  1.20100000E+01  1.60000000E+01
  1.00800000E+00  1.20100000E+01  1.00800000E+00  1.20100000E+01  1.00800000E+00
  1.20100000E+01  1.60000000E+01  1.40100000E+01  1.00800000E+00  1.20100000E+01
  1.00800000E+00  1.20100000E+01  1.00800000E+00  1.00800000E+00  1.20100000E+01
  1.00800000E+00  1.20100000E+01  1.00800000E+00  1.00800000E+00  1.00800000E+00
  1.20100000E+01  1.00800000E+00  1.00800000E+00  1.00800000E+00  1.20100000E+01
  1.60000000E+01  1.40100000E+01  1.00800000E+00  1.20100000E+01  1.00800000E+00
  1.20100000E+01  1.00800000E+00  1.20100000E+01  1.00800000E+00  1.00800000E+00
  1.00800000E+00  1.20100000E+01  1.00800000E+00  1.00800000E+00  1.00800000E+00
  1.20100000E+01  1.60000000E+01  1.40100000E+01  1.00800000E+00  1.20100000E+01
  1.00800000E+00  1.20100000E+01  1.00800000E+00  1.00800000E+00  3.20600000E+01
  1.20100000E+01  1.60000000E+01  1.40100000E+01  1.00800000E+00  1.20100000E+01
  1.00800000E+00  1.00800000E+00  1.20100000E+01  1.60000000E+01  1.40100000E+01
  1.00800000E+00  1.20100000E+01  1.00800000E+00  1.20100000E+01  1.00800000E+00
  1.00800000E+00  1.20100000E+01  1.00800000E+00  1.00800000E+00  1.20100000E+01
  1.60000000E+01  1.60000000E+01  1.00800000E+00  1.20100000E+01  1.60000000E+01
  1.00800000E+00  1.00800000E+00  1.00800000E+00  1.40100000E+01  1.00800000E+00
  1.20100000E+01  1.00800000E+00  1.20100000E+01  1.00800000E+00  1.00800000E+00
  1.20100000E+01  1.00800000E+00  1.00800000E+00  1.20100000E+01  1.00800000E+00
  1.00800000E+00  1.40100000E+01  1.00800000E+00  1.20100000E+01  1.40100000E+01
  1.00800000E+00  1.00800000E+00  1.40100000E+01  1.00800000E+00  1.00800000E+00
  1.20100000E+01  1.60000000E+01  1.40100000E+01  1.00800000E+00  1.20100000E+01
  1.00800000E+00  1.00800000E+00  1.20100000E+01  1.60000000E+01  1.40100000E+01
  1.00800000E+00  1.20100000E+01  1.00800000E+00  1.20100000E+01  1.00800000E+00
  1.00800000E+00  1.20100000E+01  1.20100000E+01  1.00800000E+00  1.20100000E+01
  1.00800000E+00  1.20100000E+01  1.00800000E+00  1.20100000E+01  1.00800000E+00
  1.20100000E+01  1.00800000E+00  1.20100000E+01  1.60000000E+01  1.40100000E+01
  1.00800000E+00  1.20100000E+01  1.00800000E+00  1.20100000E+01  1.00800000E+00
  1.00800000E+00  1.20100000E+01  1.20100000E+01  1.00800000E+00  1.20100000E+01
  1.00800000E+00  1.20100000E+01  1.00800000E+00  1.20100000E+01  1.00800000E+00
  1.20100000E+01  1.00800000E+00  1.20100000E+01  1.60000000E+01  1.40100000E+01
  1.00800000E+00  1.20100000E+01  1.00800000E+00  1.20100000E+01  1.00800000E+00
  1.00800000E+00  1.20100000E+01  1.20100000E+01  1.00800000E+00  1.20100000E+01
  1.00800000E+00  1.20100000E+01  1.60000000E+01  1.00800000E+00  1.20100000E+01
  1.00800000E+00  1.20100000E+01  1.00800000E+00  1.20100000E+01  1.60000000E+01
  1.40100000E+01  1.00800000E+00  1.20100000E+01  1.00800000E+00  1.20100000E+01
  1.00800000E+00  1.20100000E+01  1.00800000E+00  1.00800000E+00  1.00800000E+00
  1.60000000E+01  1.00800000E+00  1.20100000E+01  1.60000000E+01  1.40100000E+01
  1.00800000E+00  1.20100000E+01  1.00800000E+00  1.00800000E+00  1.00800000E+00
  1.00800000E+00  1.20100000E+01  1.00800000E+00  1.00800000E+00  1.20100000E+01
  1.60000000E+01  1.40100000E+01  1.00800000E+00  1.20100000E+01  1.00800000E+00
  1.20100000E+01  1.00800000E+00  1.00800000E+00  1.20100000E+01  1.00800000E+00
  1.00800000E+00  1.20100000E+01  1.60000000E+01  1.40100000E+01  1.00800000E+00
  1.00800000E+00  1.20100000E+01  1.60000000E+01  1.40100000E+01  1.00800000E+00
  1.20100000E+01  1.00800000E+00  1.20100000E+01  1.00800000E+00  1.00800000E+00
  3.20600000E+01  1.20100000E+01  1.60000000E+01  1.40100000E+01  1.00800000E+00
  1.20100000E+01  1.00800000E+00  1.20100000E+01  1.00800000E+00  1.00800000E+00
  3.20600000E+01  1.20100000E+01  1.60000000E+01  1.40100000E+01  1.00800000E+00
  1.20100000E+01  1.00800000E+00  1.20100000E+01  1.00800000E+00  1.20100000E+01
  1.00800000E+00  1.00800000E+00  1.00800000E+00  1.60000000E+01  1.00800000E+00
  1.20100000E+01  1.60000000E+01  1.40100000E+01  1.00800000E+00  1.20100000E+01
  1.00800000E+00  1.20100000E+01  1.00800000E+00  1.00800000E+00  1.60000000E+01
  1.00800000E+00  1.20100000E+01  1.60000000E+01  1.40100000E+01  1.00800000E+00
  1.20100000E+01  1.00800000E+00  1.20100000E+01  1.00800000E+00  1.20100000E+01
  1.00800000E+00  1.00800000E+00  1.00800000E+00  1.20100000E+01  1.00800000E+00
  1.00800000E+00  1.20100000E+01  1.00800000E+00  1.00800000E+00  1.00800000E+00
  1.20100000E+01  1.60000000E+01  1.40100000E+01  1.00800000E+00  1.20100000E+01
  1.00800000E+00  1.20100000E+01  1.00800000E+00  1.00800000E+00  3.20600000E+01
  1.20100000E+01  1.60000000E+01  1.40100000E+01  1.00800000E+00  1.20100000E+01
  1.00800000E+00  1.20100000E+01  1.00800000E+00  1.00800000E+00  1.60000000E+01
  1.00800000E+00  1.20100000E+01  1.60000000E+01  1.40100000E+01  1.00800000E+00
  1.20100000E+01  1.00800000E+00  1.20100000E+01  1.00800000E+00  1.00800000E+00
  1.20100000E+01  1.00800000E+00  1.20100000E+01  1.00800000E+00  1.00800000E+00
  1.00800000E+00  1.20100000E+01  1.00800000E+00  1.00800000E+00  1.00800000E+00
  1.20100000E+01  1.60000000E+01  1.40100000E+01  1.00800000E+00  1.20100000E+01
  1.00800000E+00  1.20100000E+01  1.00800000E+00  1.00800000E+00  1.20100000E+01
  1.20100000E+01  1.00800000E+00  1.20100000E+01  1.00800000E+00  1.20100000E+01
  1.60000000E+01  1.00800000E+00  1.20100000E+01  1.00800000E+00  1.20100000E+01
  1.00800000E+00  1.20100000E+01  1.60000000E+01  1.40100000E+01  1.00800000E+00
  1.20100000E+01  1.00800000E+00  1.20100000E+01  1.00800000E+00  1.00800000E+00
  1.20100000E+01  1.00800000E+00  1.00800000E+00  1.20100000E+01  1.60000000E+01
  1.40100000E+01  1.00800000E+00  1.00800000E+00  1.20100000E+01  1.60000000E+01
  1.40100000E+01  1.00800000E+00  1.20100000E+01  1.00800000E+00  1.20100000E+01
  1.00800000E+00  1.00800000E+00  1.20100000E+01  1.00800000E+00  1.20100000E+01
  1.00800000E+00  1.00800000E+00  1.00800000E+00  1.20100000E+01  1.00800000E+00
  1.00800000E+00  1.00800000E+00  1.20100000E+01  1.60000000E+01  1.40100000E+01
  1.00800000E+00  1.20100000E+01  1.00800000E+00  1.20100000E+01  1.00800000E+00
  1.00800000E+00  1.20100000E+01  1.00800000E+00  1.00800000E+00  1.20100000E+01
  1.60000000E+01  1.60000000E+01  1.00800000E+00  1.20100000E+01  1.60000000E+01
  1.00800000E+00  1.00800000E+00  1.00800000E+00  1.40100000E+01  1.00800000E+00
  1.20100000E+01  1.00800000E+00  1.20100000E+01  1.00800000E+00  1.00800000E+00
  1.20100000E+01  1.60000000E+01  1.40100000E+01  1.00800000E+00  1.00800000E+00
  1.20100000E+01  1.60000000E+01  1.40100000E+01  1.00800000E+00  1.20100000E+01
  1.00800000E+00  1.20100000E+01  1.00800000E+00  1.00800000E+00  1.20100000E+01
  1.20100000E+01  1.00800000E+00  1.20100000E+01  1.00800000E+00  1.20100000E+01
  1.60000000E+01  1.00800000E+00  1.20100000E+01  1.00800000E+00  1.20100000E+01
  1.00800000E+00  1.20100000E+01  1.60000000E+01  1.40100000E+01  1.00800000E+00
  1.20100000E+01  1.00800000E+00  1.20100000E+01  1.00800000E+00  1.00800000E+00
  3.20600000E+01  1.20100000E+01  1.60000000E+01  1.40100000E+01  1.00800000E+00
  1.20100000E+01  1.00800000E+00  1.00800000E+00  1.00800000E+00  1.00800000E+00
  1.20100000E+01  1.00800000E+00  1.00800000E+00  1.20100000E+01  1.60000000E+01
  1.40100000E+01  1.00800000E+00  1.20100000E+01  1.00800000E+00  1.20100000E+01
  1.00800000E+00  1.00800000E+00  1.20100000E+01  1.40100000E+01  1.00800000E+00
  1.20100000E+01  1.00800000E+00  1.40100000E+01  1.00800000E+00  1.20100000E+01
  1.00800000E+00  1.20100000E+01  1.60000000E+01  1.40100000E+01  1.00800000E+00
  1.20100000E+01  1.00800000E+00  1.20100000E+01  1.00800000E+00  1.00800000E+00
  1.20100000E+01  1.00800000E+00  1.20100000E+01  1.00800000E+00  1.00800000E+00
  1.00800000E+00  1.20100000E+01  1.00800000E+00  1.00800000E+00  1.00800000E+00
  1.20100000E+01  1.60000000E+01  1.40100000E+01  1.00800000E+00  1.20100000E+01
  1.00800000E+00  1.20100000E+01  1.00800000E+00  1.00800000E+00  3.20600000E+01
  1.20100000E+01  1.60000000E+01  1.40100000E+01  1.00800000E+00  1.20100000E+01
  1.00800000E+00  1.00800000E+00  1.20100000E+01  1.60000000E+01  1.40100000E+01
  1.00800000E+00  1.20100000E+01  1.00800000E+00  1.20100000E+01  1.00800000E+00
  1.00800000E+00  1.60000000E+01  1.00800000E+00  1.20100000E+01  1.60000000E+01
  1.40100000E+01  1.00800000E+00  1.20100000E+01  1.00800000E+00  1.20100000E+01
  1.00800000E+00  1.00800000E+00  1.20100000E+01  1.40100000E+01  1.00800000E+00
  1.20100000E+01  1.00800000E+00  1.40100000E+01  1.00800000E+00  1.20100000E+01
  1.00800000E+00  1.20100000E+01  1.60000000E+01  1.40100000E+01  1.00800000E+00
  1.20100000E+01  1.00800000E+00  1.20100000E+01  1.00800000E+00  1.00800000E+00
  1.20100000E+01  1.00800000E+00  1.20100000E+01  1.00800000E+00  1.00800000E+00
  1.00800000E+00  1.20100000E+01  1.00800000E+00  1.00800000E+00  1.00800000E+00
  1.20100000E+01  1.60000000E+01  1.40100000E+01  1.00800000E+00  1.20100000E+01
  1.00800000E+00  1.20100000E+01  1.00800000E+00  1.20100000E+01  1.00800000E+00
  1.00800000E+00  1.00800000E+00  1.20100000E+01  1.00800000E+00  1.00800000E+00
  1.00800000E+00  1.20100000E+01  1.60000000E+01  1.40100000E+01  1.00800000E+00
  1.20100000E+01  1.00800000E+00  1.20100000E+01  1.00800000E+00  1.00800000E+00
  1.20100000E+01  1.00800000E+00  1.00800000E+00  1.20100000E+01  1.60000000E+01
  1.60000000E+01  1.00800000E+00  1.20100000E+01  1.60000000E+01  1.00800000E+00
  1.00800000E+00  1.00800000E+00  1.40100000E+01  1.00800000E+00  1.20100000E+01
  1.00800000E+00  1.20100000E+01  1.00800000E+00  1.00800000E+00  1.00800000E+00
  1.20100000E+01  1.60000000E+01  1.40100000E+01  1.00800000E+00  1.20100000E+01
  1.00800000E+00  1.20100000E+01  1.00800000E+00  1.00800000E+00  1.20100000E+01
  1.00800000E+00  1.20100000E+01  1.00800000E+00  1.00800000E+00  1.00800000E+00
  1.20100000E+01  1.00800000E+00  1.00800000E+00  1.00800000E+00  1.20100000E+01
  1.60000000E+01  1.40100000E+01  1.00800000E+00  1.20100000E+01  1.00800000E+00
  1.20100000E+01  1.00800000E+00  1.00800000E+00  1.20100000E+01  1.20100000E+01
  1.00800000E+00  1.20100000E+01  1.00800000E+00  1.20100000E+01  1.60000000E+01
  1.00800000E+00  1.20100000E+01  1.00800000E+00  1.20100000E+01  1.00800000E+00
  1.20100000E+01  1.60000000E+01  1.40100000E+01  1.00800000E+00  1.20100000E+01
  1.00800000E+00  1.20100000E+01  1.00800000E+00  1.00800000E+00  1.20100000E+01
  1.00800000E+00  1.20100000E+01  1.00800000E+00  1.00800000E+00  1.00800000E+00
  1.20100000E+01  1.00800000E+00  1.00800000E+00  1.00800000E+00  1.20100000E+01
  1.60000000E+01  1.40100000E+01  1.00800000E+00  1.20100000E+01  1.00800000E+00
  1.20100000E+01  1.00800000E+00  1.20100000E+01  1.00800000E+00  1.00800000E+00
  1.00800000E+00  1.20100000E+01  1.00800000E+00  1.00800000E+00  1.00800000E+00
  1.20100000E+01  1.60000000E+01  1.40100000E+01  1.00800000E+00  1.20100000E+01
  1.00800000E+00  1.20100000E+01  1.00800000E+00  1.00800000E+00  3.20600000E+01
  1.20100000E+01  1.60000000E+01  1.40100000E+01  1.00800000E+00  1.20100000E+01
  1.00800000E+00  1.00800000E+00  1.20100000E+01  1.60000000E+01  1.40100000E+01
  1.00800000E+00  1.20100000E+01  1.00800000E+00  1.20100000E+01  1.00800000E+00
  1.00800000E+00  1.20100000E+01  1.00800000E+00  1.00800000E+00  1.20100000E+01
  1.60000000E+01  1.60000000E+01  1.00800000E+00  1.20100000E+01  1.60000000E+01
  1.00800000E+00  1.00800000E+00  1.00800000E+00  1.40100000E+01  1.00800000E+00
  1.20100000E+01  1.00800000E+00  1.20100000E+01  1.00800000E+00  1.00800000E+00
  1.20100000E+01  1.00800000E+00  1.00800000E+00  1.20100000E+01  1.00800000E+00
  1.00800000E+00  1.40100000E+01  1.00800000E+00  1.20100000E+01  1.40100000E+01
  1.00800000E+00  1.00800000E+00  1.40100000E+01  1.00800000E+00  1.00800000E+00
  1.20100000E+01  1.60000000E+01  1.40100000E+01  1.00800000E+00  1.20100000E+01
  1.00800000E+00  1.00800000E+00  1.20100000E+01  1.60000000E+01  1.40100000E+01
  1.00800000E+00  1.20100000E+01  1.00800000E+00  1.20100000E+01  1.00800000E+00
  1.00800000E+00  1.20100000E+01  1.20100000E+01  1.00800000E+00  1.20100000E+01
  1.00800000E+00  1.20100000E+01  1.00800000E+00  1.20100000E+01  1.00800000E+00
  1.20100000E+01  1.00800000E+00  1.20100000E+01  1.60000000E+01  1.40100000E+01
  1.00800000E+00  1.20100000E+01  1.00800000E+00  1.20100000E+01  1.00800000E+00
  1.00800000E+00  1.20100000E+01  1.20100000E+01  1.00800000E+00  1.20100000E+01
  1.00800000E+00  1.20100000E+01  1.00800000E+00  1.20100000E+01  1.00800000E+00
  1.20100000E+01  1.00800000E+00  1.20100000E+01  1.60000000E+01  1.40100000E+01
  1.00800000E+00  1.20100000E+01  1.00800000E+00  1.20100000E+01  1.00800000E+00
  1.00800000E+00  1.20100000E+01  1.20100000E+01  1.00800000E+00  1.20100000E+01
  1.00800000E+00  1.20100000E+01  1.60000000E+01  1.00800000E+00  1.20100000E+01
  1.00800000E+00  1.20100000E+01  1.00800000E+00  1.20100000E+01  1.60000000E+01
  1.40100000E+01  1.00800000E+00  1.20100000E+01  1.00800000E+00  1.20100000E+01
  1.00800000E+00  1.20100000E+01  1.00800000E+00  1.00800000E+00  1.00800000E+00
  1.60000000E+01  1.00800000E+00  1.20100000E+01  1.60000000E+01  1.40100000E+01
  1.00800000E+00  1.20100000E+01  1.00800000E+00  1.00800000E+00  1.00800000E+00
  1.00800000E+00  1.20100000E+01  1.00800000E+00  1.00800000E+00  1.20100000E+01
  1.60000000E+01  1.40100000E+01  1.00800000E+00  1.20100000E+01  1.00800000E+00
  1.20100000E+01  1.00800000E+00  1.00800000E+00  1.20100000E+01  1.00800000E+00
  1.00800000E+00  1.20100000E+01  1.60000000E+01  1.40100000E+01  1.00800000E+00
  1.00800000E+00  1.20100000E+01  1.60000000E+01  1.40100000E+01  1.00800000E+00
  1.20100000E+01  1.00800000E+00  1.20100000E+01  1.00800000E+00  1.00800000E+00
  3.20600000E+01  1.20100000E+01  1.60000000E+01  1.40100000E+01  1.00800000E+00
  1.20100000E+01  1.00800000E+00  1.20100000E+01  1.00800000E+00  1.00800000E+00
  3.20600000E+01  1.20100000E+01  1.60000000E+01  1.40100000E+01  1.00800000E+00
  1.20100000E+01  1.00800000E+00  1.20100000E+01  1.00800000E+00  1.20100000E+01
  1.00800000E+00  1.00800000E+00  1.00800000E+00  1.60000000E+01  1.00800000E+00
  1.20100000E+01  1.60000000E+01  1.40100000E+01  1.00800000E+00  1.20100000E+01
  1.00800000E+00  1.20100000E+01  1.00800000E+00  1.00800000E+00  1.60000000E+01
  1.00800000E+00  1.20100000E+01  1.60000000E+01  1.40100000E+01  1.00800000E+00
  1.20100000E+01  1.00800000E+00  1.20100000E+01  1.00800000E+00  1.20100000E+01
  1.00800000E+00  1.00800000E+00  1.00800000E+00  1.20100000E+01  1.00800000E+00
  1.00800000E+00  1.20100000E+01  1.00800000E+00  1.00800000E+00  1.00800000E+00
  1.20100000E+01  1.60000000E+01  1.40100000E+01  1.00800000E+00  1.20100000E+01
  1.00800000E+00  1.20100000E+01  1.00800000E+00  1.00800000E+00  3.20600000E+01
  1.20100000E+01  1.60000000E+01  1.40100000E+01  1.00800000E+00  1.20100000E+01
  1.00800000E+00  1.20100000E+01  1.00800000E+00  1.00800000E+00  1.60000000E+01
  1.00800000E+00  1.20100000E+01  1.60000000E+01  1.40100000E+01  1.00800000E+00
  1.20100000E+01  1.00800000E+00  1.20100000E+01  1.00800000E+00  1.00800000E+00
  1.20100000E+01  1.00800000E+00  1.20100000E+01  1.00800000E+00  1.00800000E+00
  1.00800000E+00  1.20100000E+01  1.00800000E+00  1.00800000E+00  1.00800000E+00
  1.20100000E+01  1.60000000E+01  1.40100000E+01  1.00800000E+00  1.20100000E+01
  1.00800000E+00  1.20100000E+01  1.00800000E+00  1.00800000E+00  1.20100000E+01
  1.20100000E+01  1.00800000E+00  1.20100000E+01  1.00800000E+00  1.20100000E+01
  1.60000000E+01  1.00800000E+00  1.20100000E+01  1.00800000E+00  1.20100000E+01
  1.00800000E+00  1.20100000E+01  1.60000000E+01  1.40100000E+01  1.00800000E+00
  1.20100000E+01  1.00800000E+00  1.20100000E+01  1.00800000E+00  1.00800000E+00
  1.20100000E+01  1.00800000E+00  1.00800000E+00  1.20100000E+01  1.60000000E+01
  1.40100000E+01  1.00800000E+00  1.00800000E+00  1.20100000E+01  1.60000000E+01
  1.40100000E+01  1.00800000E+00  1.20100000E+01  1.00800000E+00  1.20100000E+01
  1.00800000E+00  1.00800000E+00  1.20100000E+01  1.00800000E+00  1.20100000E+01
  1.00800000E+00  1.00800000E+00  1.00800000E+00  1.20100000E+01  1.00800000E+00
  1.00800000E+00  1.00800000E+00  1.20100000E+01  1.60000000E+01  1.40100000E+01
  1.00800000E+00  1.20100000E+01  1.00800000E+00  1.20100000E+01  1.00800000E+00
  1.00800000E+00  1.20100000E+01  1.00800000E+00  1.00800000E+00  1.20100000E+01
  1.60000000E+01  1.60000000E+01  1.00800000E+00  1.20100000E+01  1.60000000E+01
  1.00800000E+00  1.00800000E+00  1.00800000E+00  1.40100000E+01  1.00800000E+00
  1.20100000E+01  1.00800000E+00  1.20100000E+01  1.00800000E+00  1.00800000E+00
  1.20100000E+01  1.60000000E+01  1.40100000E+01  1.00800000E+00  1.00800000E+00
  1.20100000E+01  1.60000000E+01  1.40100000E+01  1.00800000E+00  1.20100000E+01
  1.00800000E+00  1.20100000E+01  1.00800000E+00  1.00800000E+00  1.20100000E+01
  1.20100000E+01  1.00800000E+00  1.20100000E+01  1.00800000E+00  1.20100000E+01
  1.60000000E+01  1.00800000E+00  1.20100000E+01  1.00800000E+00  1.20100000E+01
  1.00800000E+00  1.20100000E+01  1.60000000E+01  1.40100000E+01  1.00800000E+00
  1.20100000E+01  1.00800000E+00  1.20100000E+01  1.00800000E+00  1.00800000E+00
  3.20600000E+01  1.20100000E+01  1.60000000E+01  1.40100000E+01  1.00800000E+00
  1.20100000E+01  1.00800000E+00  1.00800000E+00  1.00800000E+00  1.00800000E+00
  1.20100000E+01  1.00800000E+00  1.00800000E+00  1.20100000E+01  1.60000000E+01
  1.40100000E+01  1.00800000E+00  1.20100000E+01  1.00800000E+00  1.20100000E+01
  1.00800000E+00  1.00800000E+00  1.20100000E+01  1.40100000E+01  1.00800000E+00
  1.20100000E+01  1.00800000E+00  1.40100000E+01  1.00800000E+00  1.20100000E+01
  1.00800000E+00  1.20100000E+01  1.60000000E+01  1.40100000E+01  1.00800000E+00
  1.20100000E+01  1.00800000E+00  1.20100000E+01  1.00800000E+00  1.00800000E+00
  1.20100000E+01  1.00800000E+00  1.20100000E+01  1.00800000E+00  1.00800000E+00
  1.00800000E+00  1.20100000E+01  1.00800000E+00  1.00800000E+00  1.00800000E+00
  1.20100000E+01  1.60000000E+01  1.40100000E+01  1.00800000E+00  1.20100000E+01
  1.00800000E+00  1.20100000E+01  1.00800000E+00  1.00800000E+00  3.20600000E+01
  1.20100000E+01  1.60000000E+01  1.40100000E+01  1.00800000E+00  1.20100000E+01
  1.00800000E+00  1.00800000E+00  1.20100000E+01  1.60000000E+01  1.40100000E+01
  1.00800000E+00  1.20100000E+01  1.00800000E+00  1.20100000E+01  1.00800000E+00
  1.00800000E+00  1.60000000E+01  1.00800000E+00  1.20100000E+01  1.60000000E+01
  1.40100000E+01  1.00800000E+00  1.20100000E+01  1.00800000E+00  1.20100000E+01
  1.00800000E+00  1.00800000E+00  1.20100000E+01  1.40100000E+01  1.00800000E+00
  1.20100000E+01  1.00800000E+00  1.40100000E+01  1.00800000E+00  1.20100000E+01
  1.00800000E+00  1.20100000E+01  1.60000000E+01  1.40100000E+01  1.00800000E+00
  1.20100000E+01  1.00800000E+00  1.20100000E+01  1.00800000E+00  1.00800000E+00
  1.20100000E+01  1.00800000E+00  1.20100000E+01  1.00800000E+00  1.00800000E+00
  1.00800000E+00  1.20100000E+01  1.00800000E+00  1.00800000E+00  1.00800000E+00
  1.20100000E+01  1.60000000E+01  1.40100000E+01  1.00800000E+00  1.20100000E+01
  1.00800000E+00  1.20100000E+01  1.00800000E+00  1.20100000E+01  1.00800000E+00
  1.00800000E+00  1.00800000E+00  1.20100000E+01  1.00800000E+00  1.00800000E+00
  1.00800000E+00  1.20100000E+01  1.60000000E+01  1.40100000E+01  1.00800000E+00
  1.20100000E+01  1.00800000E+00  1.20100000E+01  1.00800000E+00  1.00800000E+00
  1.20100000E+01  1.00800000E+00  1.00800000E+00  1.20100000E+01  1.60000000E+01
  1.60000000E+01  1.00800000E+00  1.20100000E+01  1.60000000E+01  1.00800000E+00
  1.00800000E+00  1.00800000E+00  1.40100000E+01  1.00800000E+00  1.20100000E+01
  1.00800000E+00  1.20100000E+01  1.00800000E+00  1.00800000E+00  1.00800000E+00
  1.20100000E+01  1.60000000E+01  1.40100000E+01  1.00800000E+00  1.20100000E+01
  1.00800000E+00  1.20100000E+01  1.00800000E+00  1.00800000E+00  1.20100000E+01
  1.00800000E+00  1.20100000E+01  1.00800000E+00  1.00800000E+00  1.00800000E+00
  1.20100000E+01  1.00800000E+00  1.00800000E+00  1.00800000E+00  1.20100000E+01
  1.60000000E+01  1.40100000E+01  1.00800000E+00  1.20100000E+01  1.00800000E+00
  1.20100000E+01  1.00800000E+00  1.00800000E+00  1.20100000E+01  1.20100000E+01
  1.00800000E+00  1.20100000E+01  1.00800000E+00  1.20100000E+01  1.60000000E+01
  1.00800000E+00  1.20100000E+01  1.00800000E+00  1.20100000E+01  1.00800000E+00
  1.20100000E+01  1.60000000E+01  1.40100000E+01  1.00800000E+00  1.20100000E+01
  1.00800000E+00  1.20100000E+01  1.00800000E+00  1.00800000E+00  1.20100000E+01
  1.00800000E+00  1.20100000E+01  1.00800000E+00  1.00800000E+00  1.00800000E+00
  1.20100000E+01  1.00800000E+00  1.00800000E+00  1.00800000E+00  1.20100000E+01
  1.60000000E+01  1.40100000E+01  1.00800000E+00  1.20100000E+01  1.00800000E+00
  1.20100000E+01  1.00800000E+00  1.20100000E+01  1.00800000E+00  1.00800000E+00
  1.00800000E+00  1.20100000E+01  1.00800000E+00  1.00800000E+00  1.00800000E+00
  1.20100000E+01  1.60000000E+01  1.40100000E+01  1.00800000E+00  1.20100000E+01
  1.00800000E+00  1.20100000E+01  1.00800000E+00  1.00800000E+00  3.20600000E+01
  1.20100000E+01  1.60000000E+01  1.40100000E+01  1.00800000E+00  1.20100000E+01
  1.00800000E+00  1.00800000E+00  1.20100000E+01  1.60000000E+01  1.40100000E+01
  1.00800000E+00  1.20100000E+01  1.00800000E+00  1.20100000E+01  1.00800000E+00
  1.00800000E+00  1.20100000E+01  1.00800000E+00  1.00800000E+00  1.20100000E+01
  1.60000000E+01  1.60000000E+01  1.00800000E+00  1.20100000E+01  1.60000000E+01
  1.00800000E+00  1.00800000E+00  1.00800000E+00  1.40100000E+01  1.00800000E+00
  1.20100000E+01  1.00800000E+00  1.20100000E+01  1.00800000E+00  1.00800000E+00
  1.20100000E+01  1.00800000E+00  1.00800000E+00  1.20100000E+01  1.00800000E+00
  1.00800000E+00  1.40100000E+01  1.00800000E+00  1.20100000E+01  1.40100000E+01
  1.00800000E+00  1.00800000E+00  1.40100000E+01  1.00800000E+00  1.00800000E+00
  1.20100000E+01  1.60000000E+01  1.40100000E+01  1.00800000E+00  1.20100000E+01
  1.00800000E+00  1.00800000E+00  1.20100000E+01  1.60000000E+01  1.40100000E+01
  1.00800000E+00  1.20100000E+01  1.00800000E+00  1.20100000E+01  1.00800000E+00
  1.00800000E+00  1.20100000E+01  1.20100000E+01  1.00800000E+00  1.20100000E+01
  1.00800000E+00  1.20100000E+01  1.00800000E+00  1.20100000E+01  1.00800000E+00
  1.20100000E+01  1.00800000E+00  1.20100000E+01  1.60000000E+01  1.40100000E+01
  1.00800000E+00  1.20100000E+01  1.00800000E+00  1.20100000E+01  1.00800000E+00
  1.00800000E+00  1.20100000E+01  1.20100000E+01  1.00800000E+00  1.20100000E+01
  1.00800000E+00  1.20100000E+01  1.00800000E+00  1.20100000E+01  1.00800000E+00
  1.20100000E+01  1.00800000E+00  1.20100000E+01  1.60000000E+01  1.40100000E+01
  1.00800000E+00  1.20100000E+01  1.00800000E+00  1.20100000E+01  1.00800000E+00
  1.00800000E+00  1.20100000E+01  1.20100000E+01  1.00800000E+00  1.20100000E+01
  1.00800000E+00  1.20100000E+01  1.60000000E+01  1.00800000E+00  1.20100000E+01
  1.00800000E+00  1.20100000E+01  1.00800000E+00  1.20100000E+01  1.60000000E+01
  1.40100000E+01  1.00800000E+00  1.20100000E+01  1.00800000E+00  1.20100000E+01
  1.00800000E+00  1.20100000E+01  1.00800000E+00  1.00800000E+00  1.00800000E+00
  1.60000000E+01  1.00800000E+00  1.20100000E+01  1.60000000E+01  1.40100000E+01
  1.00800000E+00  1.20100000E+01  1.00800000E+00  1.00800000E+00  1.00800000E+00
  1.00800000E+00  1.20100000E+01  1.00800000E+00  1.00800000E+00  1.20100000E+01
  1.60000000E+01  1.40100000E+01  1.00800000E+00  1.20100000E+01  1.00800000E+00
  1.20100000E+01  1.00800000E+00  1.00800000E+00  1.20100000E+01  1.00800000E+00
  1.00800000E+00  1.20100000E+01  1.60000000E+01  1.40100000E+01  1.00800000E+00
  1.00800000E+00  1.20100000E+01  1.60000000E+01  1.40100000E+01  1.00800000E+00
  1.20100000E+01  1.00800000E+00  1.20100000E+01  1.00800000E+00  1.00800000E+00
  3.20600000E+01  1.20100000E+01  1.60000000E+01  1.40100000E+01  1.00800000E+00
  1.20100000E+01  1.00800000E+00  1.20100000E+01  1.00800000E+00  1.00800000E+00
  3.20600000E+01  1.20100000E+01  1.60000000E+01  1.40100000E+01  1.00800000E+00
  1.20100000E+01  1.00800000E+00  1.20100000E+01  1.00800000E+00  1.20100000E+01
  1.00800000E+00  1.00800000E+00  1.00800000E+00  1.60000000E+01  1.00800000E+00
  1.20100000E+01  1.60000000E+01  1.40100000E+01  1.00800000E+00  1.20100000E+01
  1.00800000E+00  1.20100000E+01  1.00800000E+00  1.00800000E+00  1.60000000E+01
  1.00800000E+00  1.20100000E+01  1.60000000E+01  1.40100000E+01  1.00800000E+00
  1.20100000E+01  1.00800000E+00  1.20100000E+01  1.00800000E+00  1.20100000E+01
  1.00800000E+00  1.00800000E+00  1.00800000E+00  1.20100000E+01  1.00800000E+00
  1.00800000E+00  1.20100000E+01  1.00800000E+00  1.00800000E+00  1.00800000E+00
  1.20100000E+01  1.60000000E+01  1.40100000E+01  1.00800000E+00  1.20100000E+01
  1.00800000E+00  1.20100000E+01  1.00800000E+00  1.00800000E+00  3.20600000E+01
  1.20100000E+01  1.60000000E+01  1.40100000E+01  1.00800000E+00  1.20100000E+01
  1.00800000E+00  1.20100000E+01  1.00800000E+00  1.00800000E+00  1.60000000E+01
  1.00800000E+00  1.20100000E+01  1.60000000E+01  1.40100000E+01  1.00800000E+00
  1.20100000E+01  1.00800000E+00  1.20100000E+01  1.00800000E+00  1.00800000E+00
  1.20100000E+01  1.00800000E+00  1.20100000E+01  1.00800000E+00  1.00800000E+00
  1.00800000E+00  1.20100000E+01  1.00800000E+00  1.00800000E+00  1.00800000E+00
  1.20100000E+01  1.60000000E+01  1.40100000E+01  1.00800000E+00  1.20100000E+01
  1.00800000E+00  1.20100000E+01  1.00800000E+00  1.00800000E+00  1.20100000E+01
  1.20100000E+01  1.00800000E+00  1.20100000E+01  1.00800000E+00  1.20100000E+01
  1.60000000E+01  1.00800000E+00  1.20100000E+01  1.00800000E+00  1.20100000E+01
  1.00800000E+00  1.20100000E+01  1.60000000E+01  1.40100000E+01  1.00800000E+00
  1.20100000E+01  1.00800000E+00  1.20100000E+01  1.00800000E+00  1.00800000E+00
  1.20100000E+01  1.00800000E+00  1.00800000E+00  1.20100000E+01  1.60000000E+01
  1.40100000E+01  1.00800000E+00  1.00800000E+00  1.20100000E+01  1.60000000E+01
  1.40100000E+01  1.00800000E+00  1.20100000E+01  1.00800000E+00  1.20100000E+01
  1.00800000E+00  1.00800000E+00  1.20100000E+01  1.00800000E+00  1.20100000E+01
  1.00800000E+00  1.00800000E+00  1.00800000E+00  1.20100000E+01  1.00800000E+00
  1.00800000E+00  1.00800000E+00  1.20100000E+01  1.60000000E+01  1.40100000E+01
  1.00800000E+00  1.20100000E+01  1.00800000E+00  1.20100000E+01  1.00800000E+00
  1.00800000E+00  1.20100000E+01  1.00800000E+00  1.00800000E+00  1.20100000E+01
  1.60000000E+01  1.60000000E+01  1.00800000E+00  1.20100000E+01  1.60000000E+01
  1.00800000E+00  1.00800000E+00  1.00800000E+00  1.40100000E+01  1.00800000E+00
  1.20100000E+01  1.00800000E+00  1.20100000E+01  1.00800000E+00  1.00800000E+00
  1.20100000E+01  1.60000000E+01  1.40100000E+01  1.00800000E+00  1.00800000E+00
  1.20100000E+01  1.60000000E+01  1.40100000E+01  1.00800000E+00  1.20100000E+01
  1.00800000E+00  1.20100000E+01  1.00800000E+00  1.00800000E+00  1.20100000E+01
  1.20100000E+01  1.00800000E+00  1.20100000E+01  1.00800000E+00  1.20100000E+01
  1.60000000E+01  1.00800000E+00  1.20100000E+01  1.00800000E+00  1.20100000E+01
  1.00800000E+00  1.20100000E+01  1.60000000E+01  1.40100000E+01  1.00800000E+00
  1.20100000E+01  1.00800000E+00  1.20100000E+01  1.00800000E+00  1.00800000E+00
  3.20600000E+01  1.20100000E+01  1.60000000E+01  1.40100000E+01  1.00800000E+00
  1.20100000E+01  1.00800000E+00  1.00800000E+00  1.00800000E+00  1.00800000E+00
  1.20100000E+01  1.00800000E+00  1.00800000E+00  1.20100000E+01  1.60000000E+01
  1.40100000E+01  1.00800000E+00  1.20100000E+01  1.00800000E+00  1.20100000E+01
  1.00800000E+00  1.00800000E+00  1.20100000E+01  1.40100000E+01  1.00800000E+00
  1.20100000E+01  1.00800000E+00  1.40100000E+01  1.00800000E+00  1.20100000E+01
  1.00800000E+00  1.20100000E+01  1.60000000E+01  1.40100000E+01  1.00800000E+00
  1.20100000E+01  1.00800000E+00  1.20100000E+01  1.00800000E+00  1.00800000E+00
  1.20100000E+01  1.00800000E+00  1.20100000E+01  1.00800000E+00  1.00800000E+00
  1.00800000E+00  1.20100000E+01  1.00800000E+00  1.00800000E+00  1.00800000E+00
  1.20100000E+01  1.60000000E+01  1.40100000E+01  1.00800000E+00  1.20100000E+01
  1.00800000E+00  1.20100000E+01  1.00800000E+00  1.00800000E+00  3.20600000E+01
  1.20100000E+01  1.60000000E+01  1.40100000E+01  1.00800000E+00  1.20100000E+01
  1.00800000E+00  1.00800000E+00  1.20100000E+01  1.60000000E+01  1.40100000E+01
  1.00800000E+00  1.20100000E+01  1.00800000E+00  1.20100000E+01  1.00800000E+00
  1.00800000E+00  1.60000000E+01  1.00800000E+00  1.20100000E+01  1.60000000E+01
  1.40100000E+01  1.00800000E+00  1.20100000E+01  1.00800000E+00  1.20100000E+01
  1.00800000E+00  1.00800000E+00  1.20100000E+01  1.40100000E+01  1.00800000E+00
  1.20100000E+01  1.00800000E+00  1.40100000E+01  1.00800000E+00  1.20100000E+01
  1.00800000E+00  1.20100000E+01  1.60000000E+01  1.40100000E+01  1.00800000E+00
  1.20100000E+01  1.00800000E+00  1.20100000E+01  1.00800000E+00  1.00800000E+00
  1.20100000E+01  1.00800000E+00  1.20100000E+01  1.00800000E+00  1.00800000E+00
  1.00800000E+00  1.20100000E+01  1.00800000E+00  1.00800000E+00  1.00800000E+00
  1.20100000E+01  1.60000000E+01  1.40100000E+01  1.00800000E+00  1.20100000E+01
  1.00800000E+00  1.20100000E+01  1.00800000E+00  1.20100000E+01  1.00800000E+00
  1.00800000E+00  1.00800000E+00  1.20100000E+01  1.00800000E+00  1.00800000E+00
  1.00800000E+00  1.20100000E+01  1.60000000E+01  1.40100000E+01  1.00800000E+00
  1.20100000E+01  1.00800000E+00  1.20100000E+01  1.00800000E+00  1.00800000E+00
  1.20100000E+01  1.00800000E+00  1.00800000E+00  1.20100000E+01  1.60000000E+01
  1.60000000E+01  1.00800000E+00  1.20100000E+01  1.60000000E+01  1.00800000E+00
  1.00800000E+00  1.00800000E+00  1.40100000E+01  1.00800000E+00  1.20100000E+01
  1.00800000E+00  1.20100000E+01  1.00800000E+00  1.00800000E+00  1.00800000E+00
  1.20100000E+01  1.60000000E+01  1.40100000E+01  1.00800000E+00  1.20100000E+01
  1.00800000E+00  1.20100000E+01  1.00800000E+00  1.00800000E+00  1.20100000E+01
  1.00800000E+00  1.20100000E+01  1.00800000E+00  1.00800000E+00  1.00800000E+00
  1.20100000E+01  1.00800000E+00  1.00800000E+00  1.00800000E+00  1.20100000E+01
  1.60000000E+01  1.40100000E+01  1.00800000E+00  1.20100000E+01  1.00800000E+00
  1.20100000E+01  1.00800000E+00  1.00800000E+00  1.20100000E+01  1.20100000E+01
  1.00800000E+00  1.20100000E+01  1.00800000E+00  1.20100000E+01  1.60000000E+01
  1.00800000E+00  1.20100000E+01  1.00800000E+00  1.20100000E+01  1.00800000E+00
  1.20100000E+01  1.60000000E+01  1.40100000E+01  1.00800000E+00  1.20100000E+01
  1.00800000E+00  1.20100000E+01  1.00800000E+00  1.00800000E+00  1.20100000E+01
  1.00800000E+00  1.20100000E+01  1.00800000E+00  1.00800000E+00  1.00800000E+00
  1.20100000E+01  1.00800000E+00  1.00800000E+00  1.00800000E+00  1.20100000E+01
  1.60000000E+01  1.40100000E+01  1.00800000E+00  1.20100000E+01  1.00800000E+00
  1.20100000E+01  1.00800000E+00  1.20100000E+01  1.00800000E+00  1.00800000E+00
  1.00800000E+00  1.20100000E+01  1.00800000E+00  1.00800000E+00  1.00800000E+00
  1.20100000E+01  1.60000000E+01  1.40100000E+01  1.00800000E+00  1.20100000E+01
  1.00800000E+00  1.20100000E+01  1.00800000E+00  1.00800000E+00  3.20600000E+01
  1.20100000E+01  1.60000000E+01  1.40100000E+01  1.00800000E+00  1.20100000E+01
  1.00800000E+00  1.00800000E+00  1.20100000E+01  1.60000000E+01  1.40100000E+01
  1.00800000E+00  1.20100000E+01  1.00800000E+00  1.20100000E+01  1.00800000E+00
  1.00800000E+00  1.20100000E+01  1.00800000E+00  1.00800000E+00  1.20100000E+01
  1.60000000E+01  1.60000000E+01  1.00800000E+00  1.20100000E+01  1.60000000E+01
  1.00800000E+00  1.00800000E+00  1.00800000E+00  1.40100000E+01  1.00800000E+00
  1.20100000E+01  1.00800000E+00  1.20100000E+01  1.00800000E+00  1.00800000E+00
  1.20100000E+01  1.00800000E+00  1.00800000E+00  1.20100000E+01  1.00800000E+00
  1.00800000E+00  1.40100000E+01  1.00800000E+00  1.20100000E+01  1.40100000E+01
  1.00800000E+00  1.00800000E+00  1.40100000E+01  1.00800000E+00  1.00800000E+00
  1.20100000E+01  1.60000000E+01  1.40100000E+01  1.00800000E+00  1.20100000E+01
  1.00800000E+00  1.00800000E+00  1.20100000E+01  1.60000000E+01  1.40100000E+01
  1.00800000E+00  1.20100000E+01  1.00800000E+00  1.20100000E+01  1.00800000E+00
  1.00800000E+00  1.20100000E+01  1.20100000E+01  1.00800000E+00  1.20100000E+01
  1.00800000E+00  1.20100000E+01  1.00800000E+00  1.20100000E+01  1.00800000E+00
  1.20100000E+01  1.00800000E+00  1.20100000E+01  1.60000000E+01  1.40100000E+01
  1.00800000E+00  1.20100000E+01  1.00800000E+00  1.20100000E+01  1.00800000E+00
  1.00800000E+00  1.20100000E+01  1.20100000E+01  1.00800000E+00  1.20100000E+01
  1.00800000E+00  1.20100000E+01  1.00800000E+00  1.20100000E+01  1.00800000E+00
  1.20100000E+01  1.00800000E+00  1.20100000E+01  1.60000000E+01  1.40100000E+01
  1.00800000E+00  1.20100000E+01  1.00800000E+00  1.20100000E+01  1.00800000E+00
  1.00800000E+00  1.20100000E+01  1.20100000E+01  1.00800000E+00  1.20100000E+01
  1.00800000E+00  1.20100000E+01  1.60000000E+01  1.00800000E+00  1.20100000E+01
  1.00800000E+00  1.20100000E+01  1.00800000E+00  1.20100000E+01  1.60000000E+01
  1.40100000E+01  1.00800000E+00  1.20100000E+01  1.00800000E+00  1.20100000E+01
  1.00800000E+00  1.20100000E+01  1.00800000E+00  1.00800000E+00  1.00800000E+00
  1.60000000E+01  1.00800000E+00  1.20100000E+01  1.60000000E+01  1.40100000E+01
  1.00800000E+00  1.20100000E+01  1.00800000E+00  1.00800000E+00  1.00800000E+00
  1.60000000E+01  1.00800000E+00  1.00800000E+00  1.60000000E+01  1.00800000E+00
  1.00800000E+00  1.60000000E+01  1.00800000E+00  1.00800000E+00  1.60000000E+01
  1.00800000E+00  1.00800000E+00  1.60000000E+01  1.00800000E+00  1.00800000E+00
  1.60000000E+01  1.00800000E+00  1.00800000E+00  1.60000000E+01  1.00800000E+00
  1.00800000E+00  1.60000000E+01  1.00800000E+00  1.00800000E+00  1.60000000E+01
  1.00800000E+00  1.00800000E+00  1.60000000E+01  1.00800000E+00  1.00800000E+00
  1.60000000E+01  1.00800000E+00  1.00800000E+00  1.60000000E+01  1.00800000E+00
  1.00800000E+00  1.60000000E+01  1.00800000E+00  1.00800000E+00  1.60000000E+01
  1.00800000E+00  1.00800000E+00  1.60000000E+01  1.00800000E+00  1.00800000E+00
  1.60000000E+01  1.00800000E+00  1.00800000E+00  1.60000000E+01  1.00800000E+00
  1.00800000E+00  1.60000000E+01  1.00800000E+00  1.00800000E+00  1.60000000E+01
  1.00800000E+00  1.00800000E+00  1.60000000E+01  1.00800000E+00  1.00800000E+00
  1.60000000E+01  1.00800000E+00  1.00800000E+00  1.60000000E+01  1.00800000E+00
  1.00800000E+00  1.60000000E+01  1.00800000E+00  1.00800000E+00  1.60000000E+01
  1.00800000E+00  1.00800000E+00  1.60000000E+01  1.00800000E+00  1.00800000E+00
  1.60000000E+01  1.00800000E+00  1.00800000E+00  1.60000000E+01  1.00800000E+00
  1.00800000E+00  1.60000000E+01  1.00800000E+00  1.00800000E+00  1.60000000E+01
  1.00800000E+00  1.00800000E+00  1.60000000E+01  1.00800000E+00  1.00800000E+00
  1.60000000E+01  1.00800000E+00  1.00800000E+00  1.60000000E+01  1.00800000E+00
  1.00800000E+00  1.60000000E+01  1.00800000E+00  1.00800000E+00  1.60000000E+01
  1.00800000E+00  1.00800000E+00  1.60000000E+01  1.00800000E+00  1.00800000E+00
  1.60000000E+01  1.00800000E+00  1.00800000E+00  1.60000000E+01  1.00800000E+00
  1.00800000E+00  1.60000000E+01  1.00800000E+00  1.00800000E+00  1.60000000E+01
  1.00800000E+00  1.00800000E+00  1.60000000E+01  1.00800000E+00  1.00800000E+00
  1.60000000E+01  1.00800000E+00  1.00800000E+00  1.60000000E+01  1.00800000E+00
  1.00800000E+00  1.60000000E+01  1.00800000E+00  1.00800000E+00  1.60000000E+01
  1.00800000E+00  1.00800000E+00  1.60000000E+01  1.00800000E+00  1.00800000E+00
  1.60000000E+01  1.00800000E+00  1.00800000E+00  1.60000000E+01  1.00800000E+00
  1.00800000E+00  1.60000000E+01  1.00800000E+00  1.00800000E+00  1.60000000E+01
  1.00800000E+00  1.00800000E+00  1.60000000E+01  1.00800000E+00  1.00800000E+00
  1.60000000E+01  1.00800000E+00  1.00800000E+00  1.60000000E+01  1.00800000E+00
  1.00800000E+00  1.60000000E+01  1.00800000E+00  1.00800000E+00  1.60000000E+01
  1.00800000E+00  1.00800000E+00  1.60000000E+01  1.00800000E+00  1.00800000E+00
  1.60000000E+01  1.00800000E+00  1.00800000E+00  1.60000000E+01  1.00800000E+00
  1.00800000E+00  1.60000000E+01  1.00800000E+00  1.00800000E+00  1.60000000E+01
  1.00800000E+00  1.00800000E+00  1.60000000E+01  1.00800000E+00  1.00800000E+00
  1.60000000E+01  1.00800000E+00  1.00800000E+00  1.60000000E+01  1.00800000E+00
  1.00800000E+00  1.60000000E+01  1.00800000E+00  1.00800000E+00  1.60000000E+01
  1.00800000E+00  1.00800000E+00  1.60000000E+01  1.00800000E+00  1.00800000E+00
  1.60000000E+01  1.00800000E+00  1.00800000E+00  1.60000000E+01  1.00800000E+00
  1.00800000E+00  1.60000000E+01  1.00800000E+00  1.00800000E+00  1.60000000E+01
  1.00800000E+00  1.00800000E+00  1.60000000E+01  1.00800000E+00  1.00800000E+00
  1.60000000E+01  1.00800000E+00  1.00800000E+00  1.60000000E+01  1.00800000E+00
  1.00800000E+00  1.60000000E+01  1.00800000E+00  1.00800000E+00  1.60000000E+01
  1.00800000E+00  1.00800000E+00  1.60000000E+01  1.00800000E+00  1.00800000E+00
  1.60000000E+01  1.00800000E+00  1.00800000E+00  1.60000000E+01  1.00800000E+00
  1.00800000E+00  1.60000000E+01  1.00800000E+00  1.00800000E+00  1.60000000E+01
  1.00800000E+00  1.00800000E+00  1.60000000E+01  1.00800000E+00  1.00800000E+00
  1.60000000E+01  1.00800000E+00  1.00800000E+00  1.60000000E+01  1.00800000E+00
  1.00800000E+00  1.60000000E+01  1.00800000E+00  1.00800000E+00  1.60000000E+01
  1.00800000E+00  1.00800000E+00  1.60000000E+01  1.00800000E+00  1.00800000E+00
  1.60000000E+01  1.00800000E+00  1.00800000E+00  1.60000000E+01  1.00800000E+00
  1.00800000E+00  1.60000000E+01  1.00800000E+00  1.00800000E+00  1.60000000E+01
  1.00800000E+00  1.00800000E+00  1.60000000E+01  1.00800000E+00  1.00800000E+00
  1.60000000E+01  1.00800000E+00  1.00800000E+00  1.60000000E+01  1.00800000E+00
  1.00800000E+00  1.60000000E+01  1.00800000E+00  1.00800000E+00  1.60000000E+01
  1.00800000E+00  1.00800000E+00  1.60000000E+01  1.00800000E+00  1.00800000E+00
  1.60000000E+01  1.00800000E+00  1.00800000E+00  1.60000000E+01  1.00800000E+00
  1.00800000E+00  1.60000000E+01  1.00800000E+00  1.00800000E+00  1.60000000E+01
  1.00800000E+00  1.00800000E+00  1.60000000E+01  1.00800000E+00  1.00800000E+00
  1.60000000E+01  1.00800000E+00  1.00800000E+00  1.60000000E+01  1.00800000E+00
  1.00800000E+00  1.60000000E+01  1.00800000E+00  1.00800000E+00  1.60000000E+01
  1.00800000E+00  1.00800000E+00  1.60000000E+01  1.00800000E+00  1.00800000E+00
  1.60000000E+01  1.00800000E+00  1.00800000E+00  1.60000000E+01  1.00800000E+00
  1.00800000E+00  1.60000000E+01  1.00800000E+00  1.00800000E+00  1.60000000E+01
  1.00800000E+00  1.00800000E+00  1.60000000E+01  1.00800000E+00  1.00800000E+00
  1.60000000E+01  1.00800000E+00  1.00800000E+00  1.60000000E+01  1.00800000E+00
  1.00800000E+00  1.60000000E+01  1.00800000E+00  1.00800000E+00  1.60000000E+01
  1.00800000E+00  1.00800000E+00  1.60000000E+01  1.00800000E+00  1.00800000E+00
  1.60000000E+01  1.00800000E+00  1.00800000E+00  1.60000000E+01  1.00800000E+00
  1.00800000E+00  1.60000000E+01  1.00800000E+00  1.00800000E+00  1.60000000E+01
  1.00800000E+00  1.00800000E+00  1.60000000E+01  1.00800000E+00  1.00800000E+00
  1.60000000E+01  1.00800000E+00  1.00800000E+00  1.60000000E+01  1.00800000E+00
  1.00800000E+00  1.60000000E+01  1.00800000E+00  1.00800000E+00  1.60000000E+01
  1.00800000E+00  1.00800000E+00  1.60000000E+01  1.00800000E+00  1.00800000E+00
  1.60000000E+01  1.00800000E+00  1.00800000E+00  1.60000000E+01  1.00800000E+00
  1.00800000E+00  1.60000000E+01  1.00800000E+00  1.00800000E+00  1.60000000E+01
  1.00800000E+00  1.00800000E+00  1.60000000E+01  1.00800000E+00  1.00800000E+00
  1.60000000E+01  1.00800000E+00  1.00800000E+00  1.60000000E+01  1.00800000E+00
  1.00800000E+00  1.60000000E+01  1.00800000E+00  1.00800000E+00  1.60000000E+01
  1.00800000E+00  1.00800000E+00  1.60000000E+01  1.00800000E+00  1.00800000E+00
  1.60000000E+01  1.00800000E+00  1.00800000E+00  1.60000000E+01  1.00800000E+00
  1.00800000E+00  1.60000000E+01  1.00800000E+00  1.00800000E+00  1.60000000E+01
  1.00800000E+00  1.00800000E+00  1.60000000E+01  1.00800000E+00  1.00800000E+00
  1.60000000E+01  1.00800000E+00  1.00800000E+00  1.60000000E+01  1.00800000E+00
  1.00800000E+00  1.60000000E+01  1.00800000E+00  1.00800000E+00  1.60000000E+01
  1.00800000E+00  1.00800000E+00  1.60000000E+01  1.00800000E+00  1.00800000E+00
  1.60000000E+01  1.00800000E+00  1.00800000E+00  1.60000000E+01  1.00800000E+00
  1.00800000E+00  1.60000000E+01  1.00800000E+00  1.00800000E+00  1.60000000E+01
  1.00800000E+00  1.00800000E+00  1.60000000E+01  1.00800000E+00  1.00800000E+00
  1.60000000E+01  1.00800000E+00  1.00800000E+00  1.60000000E+01  1.00800000E+00
  1.00800000E+00  1.60000000E+01  1.00800000E+00  1.00800000E+00  1.60000000E+01
  1.00800000E+00  1.00800000E+00  1.60000000E+01  1.00800000E+00  1.00800000E+00
  1.60000000E+01  1.00800000E+00  1.00800000E+00  1.60000000E+01  1.00800000E+00
  1.00800000E+00  1.60000000E+01  1.00800000E+00  1.00800000E+00  1.60000000E+01
  1.00800000E+00  1.00800000E+00  1.60000000E+01  1.00800000E+00  1.00800000E+00
  1.60000000E+01  1.00800000E+00  1.00800000E+00  1.60000000E+01  1.00800000E+00
  1.00800000E+00  1.60000000E+01  1.00800000E+00  1.00800000E+00  1.60000000E+01
  1.00800000E+00  1.00800000E+00  1.60000000E+01  1.00800000E+00  1.00800000E+00
  1.60000000E+01  1.00800000E+00  1.00800000E+00  1.60000000E+01  1.00800000E+00
  1.00800000E+00  1.60000000E+01  1.00800000E+00  1.00800000E+00  1.60000000E+01
  1.00800000E+00  1.00800000E+00  1.60000000E+01  1.00800000E+00  1.00800000E+00
  1.60000000E+01  1.00800000E+00  1.00800000E+00  1.60000000E+01  1.00800000E+00
  1.00800000E+00  1.60000000E+01  1.00800000E+00  1.00800000E+00  1.60000000E+01
  1.00800000E+00  1.00800000E+00  1.60000000E+01  1.00800000E+00  1.00800000E+00
  1.60000000E+01  1.00800000E+00  1.00800000E+00  1.60000000E+01  1.00800000E+00
  1.00800000E+00  1.60000000E+01  1.00800000E+00  1.00800000E+00  1.60000000E+01
  1.00800000E+00  1.00800000E+00  1.60000000E+01  1.00800000E+00  1.00800000E+00
  1.60000000E+01  1.00800000E+00  1.00800000E+00  1.60000000E+01  1.00800000E+00
  1.00800000E+00  1.60000000E+01  1.00800000E+00  1.00800000E+00  1.60000000E+01
  1.00800000E+00  1.00800000E+00  1.60000000E+01  1.00800000E+00  1.00800000E+00
  1.60000000E+01  1.00800000E+00  1.00800000E+00  1.60000000E+01  1.00800000E+00
  1.00800000E+00  1.60000000E+01  1.00800000E+00  1.00800000E+00  1.60000000E+01
  1.00800000E+00  1.00800000E+00  1.60000000E+01  1.00800000E+00  1.00800000E+00
  1.60000000E+01  1.00800000E+00  1.00800000E+00  1.60000000E+01  1.00800000E+00
  1.00800000E+00  1.60000000E+01  1.00800000E+00  1.00800000E+00  1.60000000E+01
  1.00800000E+00  1.00800000E+00  1.60000000E+01  1.00800000E+00  1.00800000E+00
  1.60000000E+01  1.00800000E+00  1.00800000E+00  1.60000000E+01  1.00800000E+00
  1.00800000E+00  1.60000000E+01  1.00800000E+00  1.00800000E+00  1.60000000E+01
  1.00800000E+00  1.00800000E+00  1.60000000E+01  1.00800000E+00  1.00800000E+00
  1.60000000E+01  1.00800000E+00  1.00800000E+00  1.60000000E+01  1.00800000E+00
  1.00800000E+00  1.60000000E+01  1.00800000E+00  1.00800000E+00  1.60000000E+01
  1.00800000E+00  1.00800000E+00  1.60000000E+01  1.00800000E+00  1.00800000E+00
  1.60000000E+01  1.00800000E+00  1.00800000E+00  1.60000000E+01  1.00800000E+00
  1.00800000E+00  1.60000000E+01  1.00800000E+00  1.00800000E+00  1.60000000E+01
  1.00800000E+00  1.00800000E+00  1.60000000E+01  1.00800000E+00  1.00800000E+00
  1.60000000E+01  1.00800000E+00  1.00800000E+00  1.60000000E+01  1.00800000E+00
  1.00800000E+00  1.60000000E+01  1.00800000E+00  1.00800000E+00  1.60000000E+01
  1.00800000E+00  1.00800000E+00  1.60000000E+01  1.00800000E+00  1.00800000E+00
  1.60000000E+01  1.00800000E+00  1.00800000E+00  1.60000000E+01  1.00800000E+00
  1.00800000E+00  1.60000000E+01  1.00800000E+00  1.00800000E+00  1.60000000E+01
  1.00800000E+00  1.00800000E+00  1.60000000E+01  1.00800000E+00  1.00800000E+00
  1.60000000E+01  1.00800000E+00  1.00800000E+00  1.60000000E+01  1.00800000E+00
  1.00800000E+00  1.60000000E+01  1.00800000E+00  1.00800000E+00  1.60000000E+01
  1.00800000E+00  1.00800000E+00  1.60000000E+01  1.00800000E+00  1.00800000E+00
  1.60000000E+01  1.00800000E+00  1.00800000E+00  1.60000000E+01  1.00800000E+00
  1.00800000E+00  1.60000000E+01  1.00800000E+00  1.00800000E+00  1.60000000E+01
  1.00800000E+00  1.00800000E+00  1.60000000E+01  1.00800000E+00  1.00800000E+00
  1.60000000E+01  1.00800000E+00  1.00800000E+00  1.60000000E+01  1.00800000E+00
  1.00800000E+00  1.60000000E+01  1.00800000E+00  1.00800000E+00  1.60000000E+01
  1.00800000E+00  1.00800000E+00  1.60000000E+01  1.00800000E+00  1.00800000E+00
  1.60000000E+01  1.00800000E+00  1.00800000E+00  1.60000000E+01  1.00800000E+00
  1.00800000E+00  1.60000000E+01  1.00800000E+00  1.00800000E+00  1.60000000E+01
  1.00800000E+00  1.00800000E+00  1.60000000E+01  1.00800000E+00  1.00800000E+00
  1.60000000E+01  1.00800000E+00  1.00800000E+00  1.60000000E+01  1.00800000E+00
  1.00800000E+00  1.60000000E+01  1.00800000E+00  1.00800000E+00  1.60000000E+01
  1.00800000E+00  1.00800000E+00  1.60000000E+01  1.00800000E+00  1.00800000E+00
  1.60000000E+01  1.00800000E+00  1.00800000E+00  1.60000000E+01  1.00800000E+00
  1.00800000E+00  1.60000000E+01  1.00800000E+00  1.00800000E+00  1.60000000E+01
  1.00800000E+00  1.00800000E+00  1.60000000E+01  1.00800000E+00  1.00800000E+00
  1.60000000E+01  1.00800000E+00  1.00800000E+00  1.60000000E+01  1.00800000E+00
  1.00800000E+00  1.60000000E+01  1.00800000E+00  1.00800000E+00  1.60000000E+01
  1.00800000E+00  1.00800000E+00  1.60000000E+01  1.00800000E+00  1.00800000E+00
  1.60000000E+01  1.00800000E+00  1.00800000E+00  1.60000000E+01  1.00800000E+00
  1.00800000E+00  1.60000000E+01  1.00800000E+00  1.00800000E+00  1.60000000E+01
  1.00800000E+00  1.00800000E+00  1.60000000E+01  1.00800000E+00  1.00800000E+00
  1.60000000E+01  1.00800000E+00  1.00800000E+00  1.60000000E+01  1.00800000E+00
  1.00800000E+00  1.60000000E+01  1.00800000E+00  1.00800000E+00  1.60000000E+01
  1.00800000E+00  1.00800000E+00  1.60000000E+01  1.00800000E+00  1.00800000E+00
  1.60000000E+01  1.00800000E+00  1.00800000E+00  1.60000000E+01  1.00800000E+00
  1.00800000E+00  1.60000000E+01  1.00800000E+00  1.00800000E+00  1.60000000E+01
  1.00800000E+00  1.00800000E+00  1.60000000E+01  1.00800000E+00  1.00800000E+00
  1.60000000E+01  1.00800000E+00  1.00800000E+00  1.60000000E+01  1.00800000E+00
  1.00800000E+00  1.60000000E+01  1.00800000E+00  1.00800000E+00  1.60000000E+01
  1.00800000E+00  1.00800000E+00  1.60000000E+01  1.00800000E+00  1.00800000E+00
  1.60000000E+01  1.00800000E+00  1.00800000E+00  1.60000000E+01  1.00800000E+00
  1.00800000E+00  1.60000000E+01  1.00800000E+00  1.00800000E+00  1.60000000E+01
  1.00800000E+00  1.00800000E+00  1.60000000E+01  1.00800000E+00  1.00800000E+00
  1.60000000E+01  1.00800000E+00  1.00800000E+00  1.60000000E+01  1.00800000E+00
  1.00800000E+00  1.60000000E+01  1.00800000E+00  1.00800000E+00  1.60000000E+01
  1.00800000E+00  1.00800000E+00  1.60000000E+01  1.00800000E+00  1.00800000E+00
  1.60000000E+01  1.00800000E+00  1.00800000E+00  1.60000000E+01  1.00800000E+00
  1.00800000E+00  1.60000000E+01  1.00800000E+00  1.00800000E+00  1.60000000E+01
  1.00800000E+00  1.00800000E+00  1.60000000E+01  1.00800000E+00  1.00800000E+00
  1.60000000E+01  1.00800000E+00  1.00800000E+00  1.60000000E+01  1.00800000E+00
  1.00800000E+00  1.60000000E+01  1.00800000E+00  1.00800000E+00  1.60000000E+01
  1.00800000E+00  1.00800000E+00  1.60000000E+01  1.00800000E+00  1.00800000E+00
  1.60000000E+01  1.00800000E+00  1.00800000E+00  1.60000000E+01  1.00800000E+00
  1.00800000E+00  1.60000000E+01  1.00800000E+00  1.00800000E+00  1.60000000E+01
  1.00800000E+00  1.00800000E+00  1.60000000E+01  1.00800000E+00  1.00800000E+00
  1.60000000E+01  1.00800000E+00  1.00800000E+00  1.60000000E+01  1.00800000E+00
  1.00800000E+00  1.60000000E+01  1.00800000E+00  1.00800000E+00  1.60000000E+01
  1.00800000E+00  1.00800000E+00  1.60000000E+01  1.00800000E+00  1.00800000E+00
  1.60000000E+01  1.00800000E+00  1.00800000E+00  1.60000000E+01  1.00800000E+00
  1.00800000E+00  1.60000000E+01  1.00800000E+00  1.00800000E+00  1.60000000E+01
  1.00800000E+00  1.00800000E+00  1.60000000E+01  1.00800000E+00  1.00800000E+00
  1.60000000E+01  1.00800000E+00  1.00800000E+00  1.60000000E+01  1.00800000E+00
  1.00800000E+00  1.60000000E+01  1.00800000E+00  1.00800000E+00  1.60000000E+01
  1.00800000E+00  1.00800000E+00  1.60000000E+01  1.00800000E+00  1.00800000E+00
  1.60000000E+01  1.00800000E+00  1.00800000E+00  1.60000000E+01  1.00800000E+00
  1.00800000E+00  1.60000000E+01  1.00800000E+00  1.00800000E+00  1.60000000E+01
  1.00800000E+00  1.00800000E+00  1.60000000E+01  1.00800000E+00  1.00800000E+00
  1.60000000E+01  1.00800000E+00  1.00800000E+00  1.60000000E+01  1.00800000E+00
  1.00800000E+00  1.60000000E+01  1.00800000E+00  1.00800000E+00  1.60000000E+01
  1.00800000E+00  1.00800000E+00  1.60000000E+01  1.00800000E+00  1.00800000E+00
  1.60000000E+01  1.00800000E+00  1.00800000E+00  1.60000000E+01  1.00800000E+00
  1.00800000E+00  1.60000000E+01  1.00800000E+00  1.00800000E+00  1.60000000E+01
  1.00800000E+00  1.00800000E+00  1.60000000E+01  1.00800000E+00  1.00800000E+00
  1.60000000E+01  1.00800000E+00  1.00800000E+00  1.60000000E+01  1.00800000E+00
  1.00800000E+00  1.60000000E+01  1.00800000E+00  1.00800000E+00  1.60000000E+01
  1.00800000E+00  1.00800000E+00  1.60000000E+01  1.00800000E+00  1.00800000E+00
  1.60000000E+01  1.00800000E+00  1.00800000E+00  1.60000000E+01  1.00800000E+00
  1.00800000E+00  1.60000000E+01  1.00800000E+00  1.00800000E+00  1.60000000E+01
  1.00800000E+00  1.00800000E+00  1.60000000E+01  1.00800000E+00  1.00800000E+00
  1.60000000E+01  1.00800000E+00  1.00800000E+00  1.60000000E+01  1.00800000E+00
  1.00800000E+00  1.60000000E+01  1.00800000E+00  1.00800000E+00  1.60000000E+01
  1.00800000E+00  1.00800000E+00  1.60000000E+01  1.00800000E+00  1.00800000E+00
  1.60000000E+01  1.00800000E+00  1.00800000E+00  1.60000000E+01  1.00800000E+00
  1.00800000E+00  1.60000000E+01  1.00800000E+00  1.00800000E+00  1.60000000E+01
  1.00800000E+00  1.00800000E+00  1.60000000E+01  1.00800000E+00  1.00800000E+00
  1.60000000E+01  1.00800000E+00  1.00800000E+00  1.60000000E+01  1.00800000E+00
  1.00800000E+00  1.60000000E+01  1.00800000E+00  1.00800000E+00  1.60000000E+01
  1.00800000E+00  1.00800000E+00  1.60000000E+01  1.00800000E+00  1.00800000E+00
  1.60000000E+01  1.00800000E+00  1.00800000E+00  1.60000000E+01  1.00800000E+00
  1.00800000E+00  1.60000000E+01  1.00800000E+00  1.00800000E+00  1.60000000E+01
  1.00800000E+00  1.00800000E+00  1.60000000E+01  1.00800000E+00  1.00800000E+00
  1.60000000E+01  1.00800000E+00  1.00800000E+00  1.60000000E+01  1.00800000E+00
  1.00800000E+00  1.60000000E+01  1.00800000E+00  1.00800000E+00  1.60000000E+01
  1.00800000E+00  1.00800000E+00  1.60000000E+01  1.00800000E+00  1.00800000E+00
  1.60000000E+01  1.00800000E+00  1.00800000E+00  1.60000000E+01  1.00800000E+00
  1.00800000E+00  1.60000000E+01  1.00800000E+00  1.00800000E+00  1.60000000E+01
  1.00800000E+00  1.00800000E+00  1.60000000E+01  1.00800000E+00  1.00800000E+00
  1.60000000E+01  1.00800000E+00  1.00800000E+00  1.60000000E+01  1.00800000E+00
  1.00800000E+00  1.60000000E+01  1.00800000E+00  1.00800000E+00  1.60000000E+01
  1.00800000E+00  1.00800000E+00  1.60000000E+01  1.00800000E+00  1.00800000E+00
  1.60000000E+01  1.00800000E+00  1.00800000E+00  1.60000000E+01  1.00800000E+00
  1.00800000E+00  1.60000000E+01  1.00800000E+00  1.00800000E+00  1.60000000E+01
  1.00800000E+00  1.00800000E+00  1.60000000E+01  1.00800000E+00  1.00800000E+00
  1.60000000E+01  1.00800000E+00  1.00800000E+00  1.60000000E+01  1.00800000E+00
  1.00800000E+00  1.60000000E+01  1.00800000E+00  1.00800000E+00  1.60000000E+01
  1.00800000E+00  1.00800000E+00  1.60000000E+01  1.00800000E+00  1.00800000E+00
  1.60000000E+01  1.00800000E+00  1.00800000E+00  1.60000000E+01  1.00800000E+00
  1.00800000E+00  1.60000000E+01  1.00800000E+00  1.00800000E+00  1.60000000E+01
  1.00800000E+00  1.00800000E+00  1.60000000E+01  1.00800000E+00  1.00800000E+00
  1.60000000E+01  1.00800000E+00  1.00800000E+00  1.60000000E+01  1.00800000E+00
  1.00800000E+00  1.60000000E+01  1.00800000E+00  1.00800000E+00  1.60000000E+01
  1.00800000E+00  1.00800000E+00  1.60000000E+01  1.00800000E+00  1.00800000E+00
  1.60000000E+01  1.00800000E+00  1.00800000E+00  1.60000000E+01  1.00800000E+00
  1.00800000E+00  1.60000000E+01  1.00800000E+00  1.00800000E+00  1.60000000E+01
  1.00800000E+00  1.00800000E+00  1.60000000E+01  1.00800000E+00  1.00800000E+00
  1.60000000E+01  1.00800000E+00  1.00800000E+00  1.60000000E+01  1.00800000E+00
  1.00800000E+00  1.60000000E+01  1.00800000E+00  1.00800000E+00  1.60000000E+01
  1.00800000E+00  1.00800000E+00  1.60000000E+01  1.00800000E+00  1.00800000E+00
  1.60000000E+01  1.00800000E+00  1.00800000E+00  1.60000000E+01  1.00800000E+00
  1.00800000E+00  1.60000000E+01  1.00800000E+00  1.00800000E+00  1.60000000E+01
  1.00800000E+00  1.00800000E+00  1.60000000E+01  1.00800000E+00  1.00800000E+00
  1.60000000E+01  1.00800000E+00  1.00800000E+00  1.60000000E+01  1.00800000E+00
  1.00800000E+00  1.60000000E+01  1.00800000E+00  1.00800000E+00  1.60000000E+01
  1.00800000E+00  1.00800000E+00  1.60000000E+01  1.00800000E+00  1.00800000E+00
  1.60000000E+01  1.00800000E+00  1.00800000E+00  1.60000000E+01  1.00800000E+00
  1.00800000E+00  1.60000000E+01  1.00800000E+00  1.00800000E+00  1.60000000E+01
  1.00800000E+00  1.00800000E+00  1.60000000E+01  1.00800000E+00  1.00800000E+00
  1.60000000E+01  1.00800000E+00  1.00800000E+00  1.60000000E+01  1.00800000E+00
  1.00800000E+00  1.60000000E+01  1.00800000E+00  1.00800000E+00  1.60000000E+01
  1.00800000E+00  1.00800000E+00  1.60000000E+01  1.00800000E+00  1.00800000E+00
  1.60000000E+01  1.00800000E+00  1.00800000E+00  1.60000000E+01  1.00800000E+00
  1.00800000E+00  1.60000000E+01  1.00800000E+00  1.00800000E+00  1.60000000E+01
  1.00800000E+00  1.00800000E+00  1.60000000E+01  1.00800000E+00  1.00800000E+00
  1.60000000E+01  1.00800000E+00  1.00800000E+00  1.60000000E+01  1.00800000E+00
  1.00800000E+00  1.60000000E+01  1.00800000E+00  1.00800000E+00  1.60000000E+01
  1.00800000E+00  1.00800000E+00  1.60000000E+01  1.00800000E+00  1.00800000E+00
  1.60000000E+01  1.00800000E+00  1.00800000E+00  1.60000000E+01  1.00800000E+00
  1.00800000E+00  1.60000000E+01  1.00800000E+00  1.00800000E+00  1.60000000E+01
  1.00800000E+00  1.00800000E+00  1.60000000E+01  1.00800000E+00  1.00800000E+00
  1.60000000E+01  1.00800000E+00  1.00800000E+00  1.60000000E+01  1.00800000E+00
  1.00800000E+00  1.60000000E+01  1.00800000E+00  1.00800000E+00  1.60000000E+01
  1.00800000E+00  1.00800000E+00  1.60000000E+01  1.00800000E+00  1.00800000E+00
  1.60000000E+01  1.00800000E+00  1.00800000E+00  1.60000000E+01  1.00800000E+00
  1.00800000E+00  1.60000000E+01  1.00800000E+00  1.00800000E+00  1.60000000E+01
  1.00800000E+00  1.00800000E+00  1.60000000E+01  1.00800000E+00  1.00800000E+00
  1.60000000E+01  1.00800000E+00  1.00800000E+00  1.60000000E+01  1.00800000E+00
  1.00800000E+00  1.60000000E+01  1.00800000E+00  1.00800000E+00  1.60000000E+01
  1.00800000E+00  1.00800000E+00  1.60000000E+01  1.00800000E+00  1.00800000E+00
  1.60000000E+01  1.00800000E+00  1.00800000E+00  1.60000000E+01  1.00800000E+00
  1.00800000E+00  1.60000000E+01  1.00800000E+00  1.00800000E+00  1.60000000E+01
  1.00800000E+00  1.00800000E+00  1.60000000E+01  1.00800000E+00  1.00800000E+00
  1.60000000E+01  1.00800000E+00  1.00800000E+00  1.60000000E+01  1.00800000E+00
  1.00800000E+00  1.60000000E+01  1.00800000E+00  1.00800000E+00  1.60000000E+01
  1.00800000E+00  1.00800000E+00  1.60000000E+01  1.00800000E+00  1.00800000E+00
  1.60000000E+01  1.00800000E+00  1.00800000E+00  1.60000000E+01  1.00800000E+00
  1.00800000E+00  1.60000000E+01  1.00800000E+00  1.00800000E+00  1.60000000E+01
  1.00800000E+00  1.00800000E+00  1.60000000E+01  1.00800000E+00  1.00800000E+00
  1.60000000E+01  1.00800000E+00  1.00800000E+00  1.60000000E+01  1.00800000E+00
  1.00800000E+00  1.60000000E+01  1.00800000E+00  1.00800000E+00  1.60000000E+01
  1.00800000E+00  1.00800000E+00  1.60000000E+01  1.00800000E+00  1.00800000E+00
  1.60000000E+01  1.00800000E+00  1.00800000E+00  1.60000000E+01  1.00800000E+00
  1.00800000E+00  1.60000000E+01  1.00800000E+00  1.00800000E+00  1.60000000E+01
  1.00800000E+00  1.00800000E+00  1.60000000E+01  1.00800000E+00  1.00800000E+00
  1.60000000E+01  1.00800000E+00  1.00800000E+00  1.60000000E+01  1.00800000E+00
  1.00800000E+00  1.60000000E+01  1.00800000E+00  1.00800000E+00  1.60000000E+01
  1.00800000E+00  1.00800000E+00  1.60000000E+01  1.00800000E+00  1.00800000E+00
  1.60000000E+01  1.00800000E+00  1.00800000E+00  1.60000000E+01  1.00800000E+00
  1.00800000E+00  1.60000000E+01  1.00800000E+00  1.00800000E+00  1.60000000E+01
  1.00800000E+00  1.00800000E+00  1.60000000E+01  1.00800000E+00  1.00800000E+00
  1.60000000E+01  1.00800000E+00  1.00800000E+00  1.60000000E+01  1.00800000E+00
  1.00800000E+00  1.60000000E+01  1.00800000E+00  1.00800000E+00  1.60000000E+01
  1.00800000E+00  1.00800000E+00  1.60000000E+01  1.00800000E+00  1.00800000E+00
  1.60000000E+01  1.00800000E+00  1.00800000E+00  1.60000000E+01  1.00800000E+00
  1.00800000E+00  1.60000000E+01  1.00800000E+00  1.00800000E+00  1.60000000E+01
  1.00800000E+00  1.00800000E+00  1.60000000E+01  1.00800000E+00  1.00800000E+00
  1.60000000E+01  1.00800000E+00  1.00800000E+00  1.60000000E+01  1.00800000E+00
  1.00800000E+00  1.60000000E+01  1.00800000E+00  1.00800000E+00  1.60000000E+01
  1.00800000E+00  1.00800000E+00  1.60000000E+01  1.00800000E+00  1.00800000E+00
  1.60000000E+01  1.00800000E+00  1.00800000E+00  1.60000000E+01  1.00800000E+00
  1.00800000E+00  1.60000000E+01  1.00800000E+00  1.00800000E+00  1.60000000E+01
  1.00800000E+00  1.00800000E+00  1.60000000E+01  1.00800000E+00  1.00800000E+00
  1.60000000E+01  1.00800000E+00  1.00800000E+00  1.60000000E+01  1.00800000E+00
  1.00800000E+00  1.60000000E+01  1.00800000E+00  1.00800000E+00  1.60000000E+01
  1.00800000E+00  1.00800000E+00  1.60000000E+01  1.00800000E+00  1.00800000E+00
  1.60000000E+01  1.00800000E+00  1.00800000E+00  1.60000000E+01  1.00800000E+00
  1.00800000E+00  1.60000000E+01  1.00800000E+00  1.00800000E+00  1.60000000E+01
  1.00800000E+00  1.00800000E+00  1.60000000E+01  1.00800000E+00  1.00800000E+00
  1.60000000E+01  1.00800000E+00  1.00800000E+00  1.60000000E+01  1.00800000E+00
  1.00800000E+00  1.60000000E+01  1.00800000E+00  1.00800000E+00  1.60000000E+01
  1.00800000E+00  1.00800000E+00  1.60000000E+01  1.00800000E+00  1.00800000E+00
  1.60000000E+01  1.00800000E+00  1.00800000E+00  1.60000000E+01  1.00800000E+00
  1.00800000E+00  1.60000000E+01  1.00800000E+00  1.00800000E+00  1.60000000E+01
  1.00800000E+00  1.00800000E+00  1.60000000E+01  1.00800000E+00  1.00800000E+00
  1.60000000E+01  1.00800000E+00  1.00800000E+00  1.60000000E+01  1.00800000E+00
  1.00800000E+00  1.60000000E+01  1.00800000E+00  1.00800000E+00  1.60000000E+01
  1.00800000E+00  1.00800000E+00  1.60000000E+01  1.00800000E+00  1.00800000E+00
  1.60000000E+01  1.00800000E+00  1.00800000E+00  1.60000000E+01  1.00800000E+00
  1.00800000E+00  1.60000000E+01  1.00800000E+00  1.00800000E+00  1.60000000E+01
  1.00800000E+00  1.00800000E+00  1.60000000E+01  1.00800000E+00  1.00800000E+00
  1.60000000E+01  1.00800000E+00  1.00800000E+00  1.60000000E+01  1.00800000E+00
  1.00800000E+00  1.60000000E+01  1.00800000E+00  1.00800000E+00  1.60000000E+01
  1.00800000E+00  1.00800000E+00  1.60000000E+01  1.00800000E+00  1.00800000E+00
  1.60000000E+01  1.00800000E+00  1.00800000E+00  1.60000000E+01  1.00800000E+00
  1.00800000E+00  1.60000000E+01  1.00800000E+00  1.00800000E+00  1.60000000E+01
  1.00800000E+00  1.00800000E+00  1.60000000E+01  1.00800000E+00  1.00800000E+00
  1.60000000E+01  1.00800000E+00  1.00800000E+00  1.60000000E+01  1.00800000E+00
  1.00800000E+00  1.60000000E+01  1.00800000E+00  1.00800000E+00  1.60000000E+01
  1.00800000E+00  1.00800000E+00  1.60000000E+01  1.00800000E+00  1.00800000E+00
  1.60000000E+01  1.00800000E+00  1.00800000E+00  1.60000000E+01  1.00800000E+00
  1.00800000E+00  1.60000000E+01  1.00800000E+00  1.00800000E+00  1.60000000E+01
  1.00800000E+00  1.00800000E+00  1.60000000E+01  1.00800000E+00  1.00800000E+00
  1.60000000E+01  1.00800000E+00  1.00800000E+00  1.60000000E+01  1.00800000E+00
  1.00800000E+00  1.60000000E+01  1.00800000E+00  1.00800000E+00  1.60000000E+01
  1.00800000E+00  1.00800000E+00  1.60000000E+01  1.00800000E+00  1.00800000E+00
  1.60000000E+01  1.00800000E+00  1.00800000E+00  1.60000000E+01  1.00800000E+00
  1.00800000E+00  1.60000000E+01  1.00800000E+00  1.00800000E+00  1.60000000E+01
  1.00800000E+00  1.00800000E+00  1.60000000E+01  1.00800000E+00  1.00800000E+00
  1.60000000E+01  1.00800000E+00  1.00800000E+00  1.60000000E+01  1.00800000E+00
  1.00800000E+00  1.60000000E+01  1.00800000E+00  1.00800000E+00  1.60000000E+01
  1.00800000E+00  1.00800000E+00  1.60000000E+01  1.00800000E+00  1.00800000E+00
  1.60000000E+01  1.00800000E+00  1.00800000E+00  1.60000000E+01  1.00800000E+00
  1.00800000E+00  1.60000000E+01  1.00800000E+00  1.00800000E+00  1.60000000E+01
  1.00800000E+00  1.00800000E+00  1.60000000E+01  1.00800000E+00  1.00800000E+00
  1.60000000E+01  1.00800000E+00  1.00800000E+00  1.60000000E+01  1.00800000E+00
  1.00800000E+00  1.60000000E+01  1.00800000E+00  1.00800000E+00  1.60000000E+01
  1.00800000E+00  1.00800000E+00  1.60000000E+01  1.00800000E+00  1.00800000E+00
  1.60000000E+01  1.00800000E+00  1.00800000E+00  1.60000000E+01  1.00800000E+00
  1.00800000E+00  1.60000000E+01  1.00800000E+00  1.00800000E+00  1.60000000E+01
  1.00800000E+00  1.00800000E+00  1.60000000E+01  1.00800000E+00  1.00800000E+00
  1.60000000E+01  1.00800000E+00  1.00800000E+00  1.60000000E+01  1.00800000E+00
  1.00800000E+00  1.60000000E+01  1.00800000E+00  1.00800000E+00  1.60000000E+01
  1.00800000E+00  1.00800000E+00  1.60000000E+01  1.00800000E+00  1.00800000E+00
  1.60000000E+01  1.00800000E+00  1.00800000E+00  1.60000000E+01  1.00800000E+00
  1.00800000E+00  1.60000000E+01  1.00800000E+00  1.00800000E+00  1.60000000E+01
  1.00800000E+00  1.00800000E+00  1.60000000E+01  1.00800000E+00  1.00800000E+00
  1.60000000E+01  1.00800000E+00  1.00800000E+00  1.60000000E+01  1.00800000E+00
  1.00800000E+00  1.60000000E+01  1.00800000E+00  1.00800000E+00  1.60000000E+01
  1.00800000E+00  1.00800000E+00  1.60000000E+01  1.00800000E+00  1.00800000E+00
  1.60000000E+01  1.00800000E+00  1.00800000E+00  1.60000000E+01  1.00800000E+00
  1.00800000E+00  1.60000000E+01  1.00800000E+00  1.00800000E+00  1.60000000E+01
  1.00800000E+00  1.00800000E+00  1.60000000E+01  1.00800000E+00  1.00800000E+00
  1.60000000E+01  1.00800000E+00  1.00800000E+00  1.60000000E+01  1.00800000E+00
  1.00800000E+00  1.60000000E+01  1.00800000E+00  1.00800000E+00  1.60000000E+01
  1.00800000E+00  1.00800000E+00  1.60000000E+01  1.00800000E+00  1.00800000E+00
  1.60000000E+01  1.00800000E+00  1.00800000E+00  1.60000000E+01  1.00800000E+00
  1.00800000E+00  1.60000000E+01  1.00800000E+00  1.00800000E+00  1.60000000E+01
  1.00800000E+00  1.00800000E+00  1.60000000E+01  1.00800000E+00  1.00800000E+00
  1.60000000E+01  1.00800000E+00  1.00800000E+00  1.60000000E+01  1.00800000E+00
  1.00800000E+00  1.60000000E+01  1.00800000E+00  1.00800000E+00  1.60000000E+01
  1.00800000E+00  1.00800000E+00  1.60000000E+01  1.00800000E+00  1.00800000E+00
  1.60000000E+01  1.00800000E+00  1.00800000E+00  1.60000000E+01  1.00800000E+00
  1.00800000E+00  1.60000000E+01  1.00800000E+00  1.00800000E+00  1.60000000E+01
  1.00800000E+00  1.00800000E+00  1.60000000E+01  1.00800000E+00  1.00800000E+00
  1.60000000E+01  1.00800000E+00  1.00800000E+00  1.60000000E+01  1.00800000E+00
  1.00800000E+00  1.60000000E+01  1.00800000E+00  1.00800000E+00  1.60000000E+01
  1.00800000E+00  1.00800000E+00  1.60000000E+01  1.00800000E+00  1.00800000E+00
  1.60000000E+01  1.00800000E+00  1.00800000E+00  1.60000000E+01  1.00800000E+00
  1.00800000E+00  1.60000000E+01  1.00800000E+00  1.00800000E+00  1.60000000E+01
  1.00800000E+00  1.00800000E+00  1.60000000E+01  1.00800000E+00  1.00800000E+00
  1.60000000E+01  1.00800000E+00  1.00800000E+00  1.60000000E+01  1.00800000E+00
  1.00800000E+00  1.60000000E+01  1.00800000E+00  1.00800000E+00  1.60000000E+01
  1.00800000E+00  1.00800000E+00  1.60000000E+01  1.00800000E+00  1.00800000E+00
  1.60000000E+01  1.00800000E+00  1.00800000E+00  1.60000000E+01  1.00800000E+00
  1.00800000E+00  1.60000000E+01  1.00800000E+00  1.00800000E+00  1.60000000E+01
  1.00800000E+00  1.00800000E+00  1.60000000E+01  1.00800000E+00  1.00800000E+00
  1.60000000E+01  1.00800000E+00  1.00800000E+00  1.60000000E+01  1.00800000E+00
  1.00800000E+00  1.60000000E+01  1.00800000E+00  1.00800000E+00  1.60000000E+01
  1.00800000E+00  1.00800000E+00  1.60000000E+01  1.00800000E+00  1.00800000E+00
  1.60000000E+01  1.00800000E+00  1.00800000E+00  1.60000000E+01  1.00800000E+00
  1.00800000E+00  1.60000000E+01  1.00800000E+00  1.00800000E+00  1.60000000E+01
  1.00800000E+00  1.00800000E+00  1.60000000E+01  1.00800000E+00  1.00800000E+00
  1.60000000E+01  1.00800000E+00  1.00800000E+00  1.60000000E+01  1.00800000E+00
  1.00800000E+00  1.60000000E+01  1.00800000E+00  1.00800000E+00  1.60000000E+01
  1.00800000E+00  1.00800000E+00  1.60000000E+01  1.00800000E+00  1.00800000E+00
  1.60000000E+01  1.00800000E+00  1.00800000E+00  1.60000000E+01  1.00800000E+00
  1.00800000E+00  1.60000000E+01  1.00800000E+00  1.00800000E+00  1.60000000E+01
  1.00800000E+00  1.00800000E+00  1.60000000E+01  1.00800000E+00  1.00800000E+00
  1.60000000E+01  1.00800000E+00  1.00800000E+00  1.60000000E+01  1.00800000E+00
  1.00800000E+00  1.60000000E+01  1.00800000E+00  1.00800000E+00  1.60000000E+01
  1.00800000E+00  1.00800000E+00  1.60000000E+01  1.00800000E+00  1.00800000E+00
  1.60000000E+01  1.00800000E+00  1.00800000E+00  1.60000000E+01  1.00800000E+00
  1.00800000E+00  1.60000000E+01  1.00800000E+00  1.00800000E+00  1.60000000E+01
  1.00800000E+00  1.00800000E+00  1.60000000E+01  1.00800000E+00  1.00800000E+00
  1.60000000E+01  1.00800000E+00  1.00800000E+00  1.60000000E+01  1.00800000E+00
  1.00800000E+00  1.60000000E+01  1.00800000E+00  1.00800000E+00  1.60000000E+01
  1.00800000E+00  1.00800000E+00  1.60000000E+01  1.00800000E+00  1.00800000E+00
  1.60000000E+01  1.00800000E+00  1.00800000E+00  1.60000000E+01  1.00800000E+00
  1.00800000E+00  1.60000000E+01  1.00800000E+00  1.00800000E+00  1.60000000E+01
  1.00800000E+00  1.00800000E+00  1.60000000E+01  1.00800000E+00  1.00800000E+00
  1.60000000E+01  1.00800000E+00  1.00800000E+00  1.60000000E+01  1.00800000E+00
  1.00800000E+00  1.60000000E+01  1.00800000E+00  1.00800000E+00  1.60000000E+01
  1.00800000E+00  1.00800000E+00  1.60000000E+01  1.00800000E+00  1.00800000E+00
  1.60000000E+01  1.00800000E+00  1.00800000E+00  1.60000000E+01  1.00800000E+00
  1.00800000E+00  1.60000000E+01  1.00800000E+00  1.00800000E+00  1.60000000E+01
  1.00800000E+00  1.00800000E+00  1.60000000E+01  1.00800000E+00  1.00800000E+00
  1.60000000E+01  1.00800000E+00  1.00800000E+00  1.60000000E+01  1.00800000E+00
  1.00800000E+00  1.60000000E+01  1.00800000E+00  1.00800000E+00  1.60000000E+01
  1.00800000E+00  1.00800000E+00  1.60000000E+01  1.00800000E+00  1.00800000E+00
  1.60000000E+01  1.00800000E+00  1.00800000E+00  1.60000000E+01  1.00800000E+00
  1.00800000E+00  1.60000000E+01  1.00800000E+00  1.00800000E+00  1.60000000E+01
  1.00800000E+00  1.00800000E+00  1.60000000E+01  1.00800000E+00  1.00800000E+00
  1.60000000E+01  1.00800000E+00  1.00800000E+00  1.60000000E+01  1.00800000E+00
  1.00800000E+00  1.60000000E+01  1.00800000E+00  1.00800000E+00  1.60000000E+01
  1.00800000E+00  1.00800000E+00  1.60000000E+01  1.00800000E+00  1.00800000E+00
  1.60000000E+01  1.00800000E+00  1.00800000E+00  1.60000000E+01  1.00800000E+00
  1.00800000E+00  1.60000000E+01  1.00800000E+00  1.00800000E+00  1.60000000E+01
  1.00800000E+00  1.00800000E+00  1.60000000E+01  1.00800000E+00  1.00800000E+00
  1.60000000E+01  1.00800000E+00  1.00800000E+00  1.60000000E+01  1.00800000E+00
  1.00800000E+00  1.60000000E+01  1.00800000E+00  1.00800000E+00  1.60000000E+01
  1.00800000E+00  1.00800000E+00  1.60000000E+01  1.00800000E+00  1.00800000E+00
  1.60000000E+01  1.00800000E+00  1.00800000E+00  1.60000000E+01  1.00800000E+00
  1.00800000E+00  1.60000000E+01  1.00800000E+00  1.00800000E+00  1.60000000E+01
  1.00800000E+00  1.00800000E+00  1.60000000E+01  1.00800000E+00  1.00800000E+00
  1.60000000E+01  1.00800000E+00  1.00800000E+00  1.60000000E+01  1.00800000E+00
  1.00800000E+00  1.60000000E+01  1.00800000E+00  1.00800000E+00  1.60000000E+01
  1.00800000E+00  1.00800000E+00  1.60000000E+01  1.00800000E+00  1.00800000E+00
  1.60000000E+01  1.00800000E+00  1.00800000E+00  1.60000000E+01  1.00800000E+00
  1.00800000E+00  1.60000000E+01  1.00800000E+00  1.00800000E+00  1.60000000E+01
  1.00800000E+00  1.00800000E+00  1.60000000E+01  1.00800000E+00  1.00800000E+00
  1.60000000E+01  1.00800000E+00  1.00800000E+00  1.60000000E+01  1.00800000E+00
  1.00800000E+00  1.60000000E+01  1.00800000E+00  1.00800000E+00  1.60000000E+01
  1.00800000E+00  1.00800000E+00  1.60000000E+01  1.00800000E+00  1.00800000E+00
  1.60000000E+01  1.00800000E+00  1.00800000E+00  1.60000000E+01  1.00800000E+00
  1.00800000E+00  1.60000000E+01  1.00800000E+00  1.00800000E+00  1.60000000E+01
  1.00800000E+00  1.00800000E+00  1.60000000E+01  1.00800000E+00  1.00800000E+00
  1.60000000E+01  1.00800000E+00  1.00800000E+00  1.60000000E+01  1.00800000E+00
  1.00800000E+00  1.60000000E+01  1.00800000E+00  1.00800000E+00  1.60000000E+01
  1.00800000E+00  1.00800000E+00  1.60000000E+01  1.00800000E+00  1.00800000E+00
  1.60000000E+01  1.00800000E+00  1.00800000E+00  1.60000000E+01  1.00800000E+00
  1.00800000E+00  1.60000000E+01  1.00800000E+00  1.00800000E+00  1.60000000E+01
  1.00800000E+00  1.00800000E+00  1.60000000E+01  1.00800000E+00  1.00800000E+00
  1.60000000E+01  1.00800000E+00  1.00800000E+00  1.60000000E+01  1.00800000E+00
  1.00800000E+00  1.60000000E+01  1.00800000E+00  1.00800000E+00  1.60000000E+01
  1.00800000E+00  1.00800000E+00  1.60000000E+01  1.00800000E+00  1.00800000E+00
  1.60000000E+01  1.00800000E+00  1.00800000E+00  1.60000000E+01  1.00800000E+00
  1.00800000E+00  1.60000000E+01  1.00800000E+00  1.00800000E+00  1.60000000E+01
  1.00800000E+00  1.00800000E+00  1.60000000E+01  1.00800000E+00  1.00800000E+00
  1.60000000E+01  1.00800000E+00  1.00800000E+00  1.60000000E+01  1.00800000E+00
  1.00800000E+00  1.60000000E+01  1.00800000E+00  1.00800000E+00  1.60000000E+01
  1.00800000E+00  1.00800000E+00  1.60000000E+01  1.00800000E+00  1.00800000E+00
  1.60000000E+01  1.00800000E+00  1.00800000E+00  1.60000000E+01  1.00800000E+00
  1.00800000E+00  1.60000000E+01  1.00800000E+00  1.00800000E+00  1.60000000E+01
  1.00800000E+00  1.00800000E+00  1.60000000E+01  1.00800000E+00  1.00800000E+00
  1.60000000E+01  1.00800000E+00  1.00800000E+00  1.60000000E+01  1.00800000E+00
  1.00800000E+00  1.60000000E+01  1.00800000E+00  1.00800000E+00  1.60000000E+01
  1.00800000E+00  1.00800000E+00  1.60000000E+01  1.00800000E+00  1.00800000E+00
  1.60000000E+01  1.00800000E+00  1.00800000E+00  1.60000000E+01  1.00800000E+00
  1.00800000E+00  1.60000000E+01  1.00800000E+00  1.00800000E+00  1.60000000E+01
  1.00800000E+00  1.00800000E+00  1.60000000E+01  1.00800000E+00  1.00800000E+00
  1.60000000E+01  1.00800000E+00  1.00800000E+00  1.60000000E+01  1.00800000E+00
  1.00800000E+00  1.60000000E+01  1.00800000E+00  1.00800000E+00  1.60000000E+01
  1.00800000E+00  1.00800000E+00  1.60000000E+01  1.00800000E+00  1.00800000E+00
  1.60000000E+01  1.00800000E+00  1.00800000E+00  1.60000000E+01  1.00800000E+00
  1.00800000E+00  1.60000000E+01  1.00800000E+00  1.00800000E+00  1.60000000E+01
  1.00800000E+00  1.00800000E+00  1.60000000E+01  1.00800000E+00  1.00800000E+00
  1.60000000E+01  1.00800000E+00  1.00800000E+00  1.60000000E+01  1.00800000E+00
  1.00800000E+00  1.60000000E+01  1.00800000E+00  1.00800000E+00  1.60000000E+01
  1.00800000E+00  1.00800000E+00  1.60000000E+01  1.00800000E+00  1.00800000E+00
  1.60000000E+01  1.00800000E+00  1.00800000E+00  1.60000000E+01  1.00800000E+00
  1.00800000E+00  1.60000000E+01  1.00800000E+00  1.00800000E+00  1.60000000E+01
  1.00800000E+00  1.00800000E+00  1.60000000E+01  1.00800000E+00  1.00800000E+00
  1.60000000E+01  1.00800000E+00  1.00800000E+00  1.60000000E+01  1.00800000E+00
  1.00800000E+00  1.60000000E+01  1.00800000E+00  1.00800000E+00  1.60000000E+01
  1.00800000E+00  1.00800000E+00  1.60000000E+01  1.00800000E+00  1.00800000E+00
  1.60000000E+01  1.00800000E+00  1.00800000E+00  1.60000000E+01  1.00800000E+00
  1.00800000E+00  1.60000000E+01  1.00800000E+00  1.00800000E+00  1.60000000E+01
  1.00800000E+00  1.00800000E+00  1.60000000E+01  1.00800000E+00  1.00800000E+00
  1.60000000E+01  1.00800000E+00  1.00800000E+00  1.60000000E+01  1.00800000E+00
  1.00800000E+00  1.60000000E+01  1.00800000E+00  1.00800000E+00  1.60000000E+01
  1.00800000E+00  1.00800000E+00  1.60000000E+01  1.00800000E+00  1.00800000E+00
  1.60000000E+01  1.00800000E+00  1.00800000E+00  1.60000000E+01  1.00800000E+00
  1.00800000E+00  1.60000000E+01  1.00800000E+00  1.00800000E+00  1.60000000E+01
  1.00800000E+00  1.00800000E+00  1.60000000E+01  1.00800000E+00  1.00800000E+00
  1.60000000E+01  1.00800000E+00  1.00800000E+00  1.60000000E+01  1.00800000E+00
  1.00800000E+00  1.60000000E+01  1.00800000E+00  1.00800000E+00  1.60000000E+01
  1.00800000E+00  1.00800000E+00  1.60000000E+01  1.00800000E+00  1.00800000E+00
  1.60000000E+01  1.00800000E+00  1.00800000E+00  1.60000000E+01  1.00800000E+00
  1.00800000E+00  1.60000000E+01  1.00800000E+00  1.00800000E+00  1.60000000E+01
  1.00800000E+00  1.00800000E+00  1.60000000E+01  1.00800000E+00  1.00800000E+00
  1.60000000E+01  1.00800000E+00  1.00800000E+00  1.60000000E+01  1.00800000E+00
  1.00800000E+00  1.60000000E+01  1.00800000E+00  1.00800000E+00  1.60000000E+01
  1.00800000E+00  1.00800000E+00  1.60000000E+01  1.00800000E+00  1.00800000E+00
  1.60000000E+01  1.00800000E+00  1.00800000E+00  1.60000000E+01  1.00800000E+00
  1.00800000E+00  1.60000000E+01  1.00800000E+00  1.00800000E+00  1.60000000E+01
  1.00800000E+00  1.00800000E+00  1.60000000E+01  1.00800000E+00  1.00800000E+00
  1.60000000E+01  1.00800000E+00  1.00800000E+00  1.60000000E+01  1.00800000E+00
  1.00800000E+00  1.60000000E+01  1.00800000E+00  1.00800000E+00  1.60000000E+01
  1.00800000E+00  1.00800000E+00  1.60000000E+01  1.00800000E+00  1.00800000E+00
  1.60000000E+01  1.00800000E+00  1.00800000E+00  1.60000000E+01  1.00800000E+00
  1.00800000E+00  1.60000000E+01  1.00800000E+00  1.00800000E+00  1.60000000E+01
  1.00800000E+00  1.00800000E+00  1.60000000E+01  1.00800000E+00  1.00800000E+00
  1.60000000E+01  1.00800000E+00  1.00800000E+00  1.60000000E+01  1.00800000E+00
  1.00800000E+00  1.60000000E+01  1.00800000E+00  1.00800000E+00  1.60000000E+01
  1.00800000E+00  1.00800000E+00  1.60000000E+01  1.00800000E+00  1.00800000E+00
  1.60000000E+01  1.00800000E+00  1.00800000E+00  1.60000000E+01  1.00800000E+00
  1.00800000E+00  1.60000000E+01  1.00800000E+00  1.00800000E+00  1.60000000E+01
  1.00800000E+00  1.00800000E+00  1.60000000E+01  1.00800000E+00  1.00800000E+00
  1.60000000E+01  1.00800000E+00  1.00800000E+00  1.60000000E+01  1.00800000E+00
  1.00800000E+00  1.60000000E+01  1.00800000E+00  1.00800000E+00  1.60000000E+01
  1.00800000E+00  1.00800000E+00  1.60000000E+01  1.00800000E+00  1.00800000E+00
  1.60000000E+01  1.00800000E+00  1.00800000E+00  1.60000000E+01  1.00800000E+00
  1.00800000E+00  1.60000000E+01  1.00800000E+00  1.00800000E+00  1.60000000E+01
  1.00800000E+00  1.00800000E+00  1.60000000E+01  1.00800000E+00  1.00800000E+00
  1.60000000E+01  1.00800000E+00  1.00800000E+00  1.60000000E+01  1.00800000E+00
  1.00800000E+00  1.60000000E+01  1.00800000E+00  1.00800000E+00  1.60000000E+01
  1.00800000E+00  1.00800000E+00  1.60000000E+01  1.00800000E+00  1.00800000E+00
  1.60000000E+01  1.00800000E+00  1.00800000E+00  1.60000000E+01  1.00800000E+00
  1.00800000E+00  1.60000000E+01  1.00800000E+00  1.00800000E+00  1.60000000E+01
  1.00800000E+00  1.00800000E+00  1.60000000E+01  1.00800000E+00  1.00800000E+00
  1.60000000E+01  1.00800000E+00  1.00800000E+00  1.60000000E+01  1.00800000E+00
  1.00800000E+00  1.60000000E+01  1.00800000E+00  1.00800000E+00  1.60000000E+01
  1.00800000E+00  1.00800000E+00  1.60000000E+01  1.00800000E+00  1.00800000E+00
  1.60000000E+01  1.00800000E+00  1.00800000E+00  1.60000000E+01  1.00800000E+00
  1.00800000E+00  1.60000000E+01  1.00800000E+00  1.00800000E+00  1.60000000E+01
  1.00800000E+00  1.00800000E+00  1.60000000E+01  1.00800000E+00  1.00800000E+00
  1.60000000E+01  1.00800000E+00  1.00800000E+00  1.60000000E+01  1.00800000E+00
  1.00800000E+00  1.60000000E+01  1.00800000E+00  1.00800000E+00  1.60000000E+01
  1.00800000E+00  1.00800000E+00  1.60000000E+01  1.00800000E+00  1.00800000E+00
  1.60000000E+01  1.00800000E+00  1.00800000E+00  1.60000000E+01  1.00800000E+00
  1.00800000E+00  1.60000000E+01  1.00800000E+00  1.00800000E+00  1.60000000E+01
  1.00800000E+00  1.00800000E+00  1.60000000E+01  1.00800000E+00  1.00800000E+00
  1.60000000E+01  1.00800000E+00  1.00800000E+00  1.60000000E+01  1.00800000E+00
  1.00800000E+00  1.60000000E+01  1.00800000E+00  1.00800000E+00  1.60000000E+01
  1.00800000E+00  1.00800000E+00  1.60000000E+01  1.00800000E+00  1.00800000E+00
  1.60000000E+01  1.00800000E+00  1.00800000E+00  1.60000000E+01  1.00800000E+00
  1.00800000E+00  1.60000000E+01  1.00800000E+00  1.00800000E+00  1.60000000E+01
  1.00800000E+00  1.00800000E+00  1.60000000E+01  1.00800000E+00  1.00800000E+00
  1.60000000E+01  1.00800000E+00  1.00800000E+00  1.60000000E+01  1.00800000E+00
  1.00800000E+00  1.60000000E+01  1.00800000E+00  1.00800000E+00  1.60000000E+01
  1.00800000E+00  1.00800000E+00  1.60000000E+01  1.00800000E+00  1.00800000E+00
  1.60000000E+01  1.00800000E+00  1.00800000E+00  1.60000000E+01  1.00800000E+00
  1.00800000E+00  1.60000000E+01  1.00800000E+00  1.00800000E+00  1.60000000E+01
  1.00800000E+00  1.00800000E+00  1.60000000E+01  1.00800000E+00  1.00800000E+00
  1.60000000E+01  1.00800000E+00  1.00800000E+00  1.60000000E+01  1.00800000E+00
  1.00800000E+00  1.60000000E+01  1.00800000E+00  1.00800000E+00  1.60000000E+01
  1.00800000E+00  1.00800000E+00  1.60000000E+01  1.00800000E+00  1.00800000E+00
  1.60000000E+01  1.00800000E+00  1.00800000E+00  1.60000000E+01  1.00800000E+00
  1.00800000E+00  1.60000000E+01  1.00800000E+00  1.00800000E+00  1.60000000E+01
  1.00800000E+00  1.00800000E+00  1.60000000E+01  1.00800000E+00  1.00800000E+00
  1.60000000E+01  1.00800000E+00  1.00800000E+00  1.60000000E+01  1.00800000E+00
  1.00800000E+00  1.60000000E+01  1.00800000E+00  1.00800000E+00  1.60000000E+01
  1.00800000E+00  1.00800000E+00  1.60000000E+01  1.00800000E+00  1.00800000E+00
  1.60000000E+01  1.00800000E+00  1.00800000E+00  1.60000000E+01  1.00800000E+00
  1.00800000E+00  1.60000000E+01  1.00800000E+00  1.00800000E+00  1.60000000E+01
  1.00800000E+00  1.00800000E+00  1.60000000E+01  1.00800000E+00  1.00800000E+00
  1.60000000E+01  1.00800000E+00  1.00800000E+00  1.60000000E+01  1.00800000E+00
  1.00800000E+00  1.60000000E+01  1.00800000E+00  1.00800000E+00  1.60000000E+01
  1.00800000E+00  1.00800000E+00  1.60000000E+01  1.00800000E+00  1.00800000E+00
  1.60000000E+01  1.00800000E+00  1.00800000E+00  1.60000000E+01  1.00800000E+00
  1.00800000E+00  1.60000000E+01  1.00800000E+00  1.00800000E+00  1.60000000E+01
  1.00800000E+00  1.00800000E+00  1.60000000E+01  1.00800000E+00  1.00800000E+00
  1.60000000E+01  1.00800000E+00  1.00800000E+00  1.60000000E+01  1.00800000E+00
  1.00800000E+00  1.60000000E+01  1.00800000E+00  1.00800000E+00  1.60000000E+01
  1.00800000E+00  1.00800000E+00  1.60000000E+01  1.00800000E+00  1.00800000E+00
  1.60000000E+01  1.00800000E+00  1.00800000E+00  1.60000000E+01  1.00800000E+00
  1.00800000E+00  1.60000000E+01  1.00800000E+00  1.00800000E+00  1.60000000E+01
  1.00800000E+00  1.00800000E+00  1.60000000E+01  1.00800000E+00  1.00800000E+00
  1.60000000E+01  1.00800000E+00  1.00800000E+00  1.60000000E+01  1.00800000E+00
  1.00800000E+00  1.60000000E+01  1.00800000E+00  1.00800000E+00  1.60000000E+01
  1.00800000E+00  1.00800000E+00  1.60000000E+01  1.00800000E+00  1.00800000E+00
  1.60000000E+01  1.00800000E+00  1.00800000E+00  1.60000000E+01  1.00800000E+00
  1.00800000E+00  1.60000000E+01  1.00800000E+00  1.00800000E+00  1.60000000E+01
  1.00800000E+00  1.00800000E+00  1.60000000E+01  1.00800000E+00  1.00800000E+00
  1.60000000E+01  1.00800000E+00  1.00800000E+00  1.60000000E+01  1.00800000E+00
  1.00800000E+00  1.60000000E+01  1.00800000E+00  1.00800000E+00  1.60000000E+01
  1.00800000E+00  1.00800000E+00  1.60000000E+01  1.00800000E+00  1.00800000E+00
  1.60000000E+01  1.00800000E+00  1.00800000E+00  1.60000000E+01  1.00800000E+00
  1.00800000E+00  1.60000000E+01  1.00800000E+00  1.00800000E+00  1.60000000E+01
  1.00800000E+00  1.00800000E+00  1.60000000E+01  1.00800000E+00  1.00800000E+00
  1.60000000E+01  1.00800000E+00  1.00800000E+00  1.60000000E+01  1.00800000E+00
  1.00800000E+00  1.60000000E+01  1.00800000E+00  1.00800000E+00  1.60000000E+01
  1.00800000E+00  1.00800000E+00  1.60000000E+01  1.00800000E+00  1.00800000E+00
  1.60000000E+01  1.00800000E+00  1.00800000E+00  1.60000000E+01  1.00800000E+00
  1.00800000E+00  1.60000000E+01  1.00800000E+00  1.00800000E+00  1.60000000E+01
  1.00800000E+00  1.00800000E+00  1.60000000E+01  1.00800000E+00  1.00800000E+00
  1.60000000E+01  1.00800000E+00  1.00800000E+00  1.60000000E+01  1.00800000E+00
  1.00800000E+00  1.60000000E+01  1.00800000E+00  1.00800000E+00  1.60000000E+01
  1.00800000E+00  1.00800000E+00  1.60000000E+01  1.00800000E+00  1.00800000E+00
  1.60000000E+01  1.00800000E+00  1.00800000E+00  1.60000000E+01  1.00800000E+00
  1.00800000E+00  1.60000000E+01  1.00800000E+00  1.00800000E+00  1.60000000E+01
  1.00800000E+00  1.00800000E+00  1.60000000E+01  1.00800000E+00  1.00800000E+00
  1.60000000E+01  1.00800000E+00  1.00800000E+00  1.60000000E+01  1.00800000E+00
  1.00800000E+00  1.60000000E+01  1.00800000E+00  1.00800000E+00  1.60000000E+01
  1.00800000E+00  1.00800000E+00  1.60000000E+01  1.00800000E+00  1.00800000E+00
  1.60000000E+01  1.00800000E+00  1.00800000E+00  1.60000000E+01  1.00800000E+00
  1.00800000E+00  1.60000000E+01  1.00800000E+00  1.00800000E+00  1.60000000E+01
  1.00800000E+00  1.00800000E+00  1.60000000E+01  1.00800000E+00  1.00800000E+00
  1.60000000E+01  1.00800000E+00  1.00800000E+00  1.60000000E+01  1.00800000E+00
  1.00800000E+00  1.60000000E+01  1.00800000E+00  1.00800000E+00  1.60000000E+01
  1.00800000E+00  1.00800000E+00  1.60000000E+01  1.00800000E+00  1.00800000E+00
  1.60000000E+01  1.00800000E+00  1.00800000E+00  1.60000000E+01  1.00800000E+00
  1.00800000E+00  1.60000000E+01  1.00800000E+00  1.00800000E+00  1.60000000E+01
  1.00800000E+00  1.00800000E+00  1.60000000E+01  1.00800000E+00  1.00800000E+00
  1.60000000E+01  1.00800000E+00  1.00800000E+00  1.60000000E+01  1.00800000E+00
  1.00800000E+00  1.60000000E+01  1.00800000E+00  1.00800000E+00  1.60000000E+01
  1.00800000E+00  1.00800000E+00  1.60000000E+01  1.00800000E+00  1.00800000E+00
  1.60000000E+01  1.00800000E+00  1.00800000E+00  1.60000000E+01  1.00800000E+00
  1.00800000E+00  1.60000000E+01  1.00800000E+00  1.00800000E+00  1.60000000E+01
  1.00800000E+00  1.00800000E+00  1.60000000E+01  1.00800000E+00  1.00800000E+00
  1.60000000E+01  1.00800000E+00  1.00800000E+00  1.60000000E+01  1.00800000E+00
  1.00800000E+00  1.60000000E+01  1.00800000E+00  1.00800000E+00  1.60000000E+01
  1.00800000E+00  1.00800000E+00  1.60000000E+01  1.00800000E+00  1.00800000E+00
  1.60000000E+01  1.00800000E+00  1.00800000E+00  1.60000000E+01  1.00800000E+00
  1.00800000E+00  1.60000000E+01  1.00800000E+00  1.00800000E+00  1.60000000E+01
  1.00800000E+00  1.00800000E+00  1.60000000E+01  1.00800000E+00  1.00800000E+00
  1.60000000E+01  1.00800000E+00  1.00800000E+00  1.60000000E+01  1.00800000E+00
  1.00800000E+00  1.60000000E+01  1.00800000E+00  1.00800000E+00  1.60000000E+01
  1.00800000E+00  1.00800000E+00  1.60000000E+01  1.00800000E+00  1.00800000E+00
  1.60000000E+01  1.00800000E+00  1.00800000E+00  1.60000000E+01  1.00800000E+00
  1.00800000E+00  1.60000000E+01  1.00800000E+00  1.00800000E+00  1.60000000E+01
  1.00800000E+00  1.00800000E+00  1.60000000E+01  1.00800000E+00  1.00800000E+00
  1.60000000E+01  1.00800000E+00  1.00800000E+00  1.60000000E+01  1.00800000E+00
  1.00800000E+00  1.60000000E+01  1.00800000E+00  1.00800000E+00  1.60000000E+01
  1.00800000E+00  1.00800000E+00  1.60000000E+01  1.00800000E+00  1.00800000E+00
  1.60000000E+01  1.00800000E+00  1.00800000E+00  1.60000000E+01  1.00800000E+00
  1.00800000E+00  1.60000000E+01  1.00800000E+00  1.00800000E+00  1.60000000E+01
  1.00800000E+00  1.00800000E+00  1.60000000E+01  1.00800000E+00  1.00800000E+00
  1.60000000E+01  1.00800000E+00  1.00800000E+00  1.60000000E+01  1.00800000E+00
  1.00800000E+00  1.60000000E+01  1.00800000E+00  1.00800000E+00  1.60000000E+01
  1.00800000E+00  1.00800000E+00  1.60000000E+01  1.00800000E+00  1.00800000E+00
  1.60000000E+01  1.00800000E+00  1.00800000E+00  1.60000000E+01  1.00800000E+00
  1.00800000E+00  1.60000000E+01  1.00800000E+00  1.00800000E+00  1.60000000E+01
  1.00800000E+00  1.00800000E+00  1.60000000E+01  1.00800000E+00  1.00800000E+00
  1.60000000E+01  1.00800000E+00  1.00800000E+00  1.60000000E+01  1.00800000E+00
  1.00800000E+00  1.60000000E+01  1.00800000E+00  1.00800000E+00  1.60000000E+01
  1.00800000E+00  1.00800000E+00  1.60000000E+01  1.00800000E+00  1.00800000E+00
  1.60000000E+01  1.00800000E+00  1.00800000E+00  1.60000000E+01  1.00800000E+00
  1.00800000E+00  1.60000000E+01  1.00800000E+00  1.00800000E+00  1.60000000E+01
  1.00800000E+00  1.00800000E+00  1.60000000E+01  1.00800000E+00  1.00800000E+00
  1.60000000E+01  1.00800000E+00  1.00800000E+00  1.60000000E+01  1.00800000E+00
  1.00800000E+00  1.60000000E+01  1.00800000E+00  1.00800000E+00  1.60000000E+01
  1.00800000E+00  1.00800000E+00  1.60000000E+01  1.00800000E+00  1.00800000E+00
  1.60000000E+01  1.00800000E+00  1.00800000E+00  1.60000000E+01  1.00800000E+00
  1.00800000E+00  1.60000000E+01  1.00800000E+00  1.00800000E+00  1.60000000E+01
  1.00800000E+00  1.00800000E+00  1.60000000E+01  1.00800000E+00  1.00800000E+00
  1.60000000E+01  1.00800000E+00  1.00800000E+00  1.60000000E+01  1.00800000E+00
  1.00800000E+00  1.60000000E+01  1.00800000E+00  1.00800000E+00  1.60000000E+01
  1.00800000E+00  1.00800000E+00  1.60000000E+01  1.00800000E+00  1.00800000E+00
  1.60000000E+01  1.00800000E+00  1.00800000E+00  1.60000000E+01  1.00800000E+00
  1.00800000E+00  1.60000000E+01  1.00800000E+00  1.00800000E+00  1.60000000E+01
  1.00800000E+00  1.00800000E+00  1.60000000E+01  1.00800000E+00  1.00800000E+00
  1.60000000E+01  1.00800000E+00  1.00800000E+00  1.60000000E+01  1.00800000E+00
  1.00800000E+00  1.60000000E+01  1.00800000E+00  1.00800000E+00  1.60000000E+01
  1.00800000E+00  1.00800000E+00  1.60000000E+01  1.00800000E+00  1.00800000E+00
  1.60000000E+01  1.00800000E+00  1.00800000E+00  1.60000000E+01  1.00800000E+00
  1.00800000E+00  1.60000000E+01  1.00800000E+00  1.00800000E+00  1.60000000E+01
  1.00800000E+00  1.00800000E+00  1.60000000E+01  1.00800000E+00  1.00800000E+00
  1.60000000E+01  1.00800000E+00  1.00800000E+00  1.60000000E+01  1.00800000E+00
  1.00800000E+00  1.60000000E+01  1.00800000E+00  1.00800000E+00  1.60000000E+01
  1.00800000E+00  1.00800000E+00  1.60000000E+01  1.00800000E+00  1.00800000E+00
  1.60000000E+01  1.00800000E+00  1.00800000E+00  1.60000000E+01  1.00800000E+00
  1.00800000E+00  1.60000000E+01  1.00800000E+00  1.00800000E+00  1.60000000E+01
  1.00800000E+00  1.00800000E+00  1.60000000E+01  1.00800000E+00  1.00800000E+00
  1.60000000E+01  1.00800000E+00  1.00800000E+00  1.60000000E+01  1.00800000E+00
  1.00800000E+00  1.60000000E+01  1.00800000E+00  1.00800000E+00  1.60000000E+01
  1.00800000E+00  1.00800000E+00  1.60000000E+01  1.00800000E+00  1.00800000E+00
  1.60000000E+01  1.00800000E+00  1.00800000E+00  1.60000000E+01  1.00800000E+00
  1.00800000E+00  1.60000000E+01  1.00800000E+00  1.00800000E+00  1.60000000E+01
  1.00800000E+00  1.00800000E+00  1.60000000E+01  1.00800000E+00  1.00800000E+00
  1.60000000E+01  1.00800000E+00  1.00800000E+00  1.60000000E+01  1.00800000E+00
  1.00800000E+00  1.60000000E+01  1.00800000E+00  1.00800000E+00  1.60000000E+01
  1.00800000E+00  1.00800000E+00  1.60000000E+01  1.00800000E+00  1.00800000E+00
  1.60000000E+01  1.00800000E+00  1.00800000E+00  1.60000000E+01  1.00800000E+00
  1.00800000E+00  1.60000000E+01  1.00800000E+00  1.00800000E+00  1.60000000E+01
  1.00800000E+00  1.00800000E+00  1.60000000E+01  1.00800000E+00  1.00800000E+00
  1.60000000E+01  1.00800000E+00  1.00800000E+00  1.60000000E+01  1.00800000E+00
  1.00800000E+00  1.60000000E+01  1.00800000E+00  1.00800000E+00  1.60000000E+01
  1.00800000E+00  1.00800000E+00  1.60000000E+01  1.00800000E+00  1.00800000E+00
  1.60000000E+01  1.00800000E+00  1.00800000E+00  1.60000000E+01  1.00800000E+00
  1.00800000E+00  1.60000000E+01  1.00800000E+00  1.00800000E+00  1.60000000E+01
  1.00800000E+00  1.00800000E+00  1.60000000E+01  1.00800000E+00  1.00800000E+00
  1.60000000E+01  1.00800000E+00  1.00800000E+00  1.60000000E+01  1.00800000E+00
  1.00800000E+00  1.60000000E+01  1.00800000E+00  1.00800000E+00  1.60000000E+01
  1.00800000E+00  1.00800000E+00  1.60000000E+01  1.00800000E+00  1.00800000E+00
  1.60000000E+01  1.00800000E+00  1.00800000E+00  1.60000000E+01  1.00800000E+00
  1.00800000E+00  1.60000000E+01  1.00800000E+00  1.00800000E+00  1.60000000E+01
  1.00800000E+00  1.00800000E+00  1.60000000E+01  1.00800000E+00  1.00800000E+00
  1.60000000E+01  1.00800000E+00  1.00800000E+00  1.60000000E+01  1.00800000E+00
  1.00800000E+00  1.60000000E+01  1.00800000E+00  1.00800000E+00  1.60000000E+01
  1.00800000E+00  1.00800000E+00  1.60000000E+01  1.00800000E+00  1.00800000E+00
  1.60000000E+01  1.00800000E+00  1.00800000E+00  1.60000000E+01  1.00800000E+00
  1.00800000E+00  1.60000000E+01  1.00800000E+00  1.00800000E+00  1.60000000E+01
  1.00800000E+00  1.00800000E+00  1.60000000E+01  1.00800000E+00  1.00800000E+00
  1.60000000E+01  1.00800000E+00  1.00800000E+00  1.60000000E+01  1.00800000E+00
  1.00800000E+00  1.60000000E+01  1.00800000E+00  1.00800000E+00  1.60000000E+01
  1.00800000E+00  1.00800000E+00  1.60000000E+01  1.00800000E+00  1.00800000E+00
  1.60000000E+01  1.00800000E+00  1.00800000E+00  1.60000000E+01  1.00800000E+00
  1.00800000E+00  1.60000000E+01  1.00800000E+00  1.00800000E+00  1.60000000E+01
  1.00800000E+00  1.00800000E+00  1.60000000E+01  1.00800000E+00  1.00800000E+00
  1.60000000E+01  1.00800000E+00  1.00800000E+00  1.60000000E+01  1.00800000E+00
  1.00800000E+00  1.60000000E+01  1.00800000E+00  1.00800000E+00  1.60000000E+01
  1.00800000E+00  1.00800000E+00  1.60000000E+01  1.00800000E+00  1.00800000E+00
  1.60000000E+01  1.00800000E+00  1.00800000E+00  1.60000000E+01  1.00800000E+00
  1.00800000E+00  1.60000000E+01  1.00800000E+00  1.00800000E+00  1.60000000E+01
  1.00800000E+00  1.00800000E+00  1.60000000E+01  1.00800000E+00  1.00800000E+00
  1.60000000E+01  1.00800000E+00  1.00800000E+00  1.60000000E+01  1.00800000E+00
  1.00800000E+00  1.60000000E+01  1.00800000E+00  1.00800000E+00  1.60000000E+01
  1.00800000E+00  1.00800000E+00  1.60000000E+01  1.00800000E+00  1.00800000E+00
  1.60000000E+01  1.00800000E+00  1.00800000E+00  1.60000000E+01  1.00800000E+00
  1.00800000E+00  1.60000000E+01  1.00800000E+00  1.00800000E+00  1.60000000E+01
  1.00800000E+00  1.00800000E+00  1.60000000E+01  1.00800000E+00  1.00800000E+00
  1.60000000E+01  1.00800000E+00  1.00800000E+00  1.60000000E+01  1.00800000E+00
  1.00800000E+00  1.60000000E+01  1.00800000E+00  1.00800000E+00  1.60000000E+01
  1.00800000E+00  1.00800000E+00  1.60000000E+01  1.00800000E+00  1.00800000E+00
  1.60000000E+01  1.00800000E+00  1.00800000E+00  1.60000000E+01  1.00800000E+00
  1.00800000E+00  1.60000000E+01  1.00800000E+00  1.00800000E+00  1.60000000E+01
  1.00800000E+00  1.00800000E+00  1.60000000E+01  1.00800000E+00  1.00800000E+00
  1.60000000E+01  1.00800000E+00  1.00800000E+00  1.60000000E+01  1.00800000E+00
  1.00800000E+00  1.60000000E+01  1.00800000E+00  1.00800000E+00  1.60000000E+01
  1.00800000E+00  1.00800000E+00  1.60000000E+01  1.00800000E+00  1.00800000E+00
  1.60000000E+01  1.00800000E+00  1.00800000E+00  1.60000000E+01  1.00800000E+00
  1.00800000E+00  1.60000000E+01  1.00800000E+00  1.00800000E+00  1.60000000E+01
  1.00800000E+00  1.00800000E+00  1.60000000E+01  1.00800000E+00  1.00800000E+00
  1.60000000E+01  1.00800000E+00  1.00800000E+00  1.60000000E+01  1.00800000E+00
  1.00800000E+00  1.60000000E+01  1.00800000E+00  1.00800000E+00  1.60000000E+01
  1.00800000E+00  1.00800000E+00  1.60000000E+01  1.00800000E+00  1.00800000E+00
  1.60000000E+01  1.00800000E+00  1.00800000E+00  1.60000000E+01  1.00800000E+00
  1.00800000E+00  1.60000000E+01  1.00800000E+00  1.00800000E+00  1.60000000E+01
  1.00800000E+00  1.00800000E+00  1.60000000E+01  1.00800000E+00  1.00800000E+00
  1.60000000E+01  1.00800000E+00  1.00800000E+00  1.60000000E+01  1.00800000E+00
  1.00800000E+00  1.60000000E+01  1.00800000E+00  1.00800000E+00  1.60000000E+01
  1.00800000E+00  1.00800000E+00  1.60000000E+01  1.00800000E+00  1.00800000E+00
  1.60000000E+01  1.00800000E+00  1.00800000E+00  1.60000000E+01  1.00800000E+00
  1.00800000E+00  1.60000000E+01  1.00800000E+00  1.00800000E+00  1.60000000E+01
  1.00800000E+00  1.00800000E+00  1.60000000E+01  1.00800000E+00  1.00800000E+00
  1.60000000E+01  1.00800000E+00  1.00800000E+00  1.60000000E+01  1.00800000E+00
  1.00800000E+00  1.60000000E+01  1.00800000E+00  1.00800000E+00  1.60000000E+01
  1.00800000E+00  1.00800000E+00  1.60000000E+01  1.00800000E+00  1.00800000E+00
  1.60000000E+01  1.00800000E+00  1.00800000E+00  1.60000000E+01  1.00800000E+00
  1.00800000E+00  1.60000000E+01  1.00800000E+00  1.00800000E+00  1.60000000E+01
  1.00800000E+00  1.00800000E+00  1.60000000E+01  1.00800000E+00  1.00800000E+00
  1.60000000E+01  1.00800000E+00  1.00800000E+00  1.60000000E+01  1.00800000E+00
  1.00800000E+00  1.60000000E+01  1.00800000E+00  1.00800000E+00  1.60000000E+01
  1.00800000E+00  1.00800000E+00  1.60000000E+01  1.00800000E+00  1.00800000E+00
  1.60000000E+01  1.00800000E+00  1.00800000E+00  1.60000000E+01  1.00800000E+00
  1.00800000E+00  1.60000000E+01  1.00800000E+00  1.00800000E+00  1.60000000E+01
  1.00800000E+00  1.00800000E+00  1.60000000E+01  1.00800000E+00  1.00800000E+00
  1.60000000E+01  1.00800000E+00  1.00800000E+00  1.60000000E+01  1.00800000E+00
  1.00800000E+00  1.60000000E+01  1.00800000E+00  1.00800000E+00  1.60000000E+01
  1.00800000E+00  1.00800000E+00  1.60000000E+01  1.00800000E+00  1.00800000E+00
  1.60000000E+01  1.00800000E+00  1.00800000E+00  1.60000000E+01  1.00800000E+00
  1.00800000E+00  1.60000000E+01  1.00800000E+00  1.00800000E+00  1.60000000E+01
  1.00800000E+00  1.00800000E+00  1.60000000E+01  1.00800000E+00  1.00800000E+00
  1.60000000E+01  1.00800000E+00  1.00800000E+00  1.60000000E+01  1.00800000E+00
  1.00800000E+00  1.60000000E+01  1.00800000E+00  1.00800000E+00  1.60000000E+01
  1.00800000E+00  1.00800000E+00  1.60000000E+01  1.00800000E+00  1.00800000E+00
  1.60000000E+01  1.00800000E+00  1.00800000E+00  1.60000000E+01  1.00800000E+00
  1.00800000E+00  1.60000000E+01  1.00800000E+00  1.00800000E+00  1.60000000E+01
  1.00800000E+00  1.00800000E+00  1.60000000E+01  1.00800000E+00  1.00800000E+00
  1.60000000E+01  1.00800000E+00  1.00800000E+00  1.60000000E+01  1.00800000E+00
  1.00800000E+00  1.60000000E+01  1.00800000E+00  1.00800000E+00  1.60000000E+01
  1.00800000E+00  1.00800000E+00  1.60000000E+01  1.00800000E+00  1.00800000E+00
  1.60000000E+01  1.00800000E+00  1.00800000E+00  1.60000000E+01  1.00800000E+00
  1.00800000E+00  1.60000000E+01  1.00800000E+00  1.00800000E+00  1.60000000E+01
  1.00800000E+00  1.00800000E+00  1.60000000E+01  1.00800000E+00  1.00800000E+00
  1.60000000E+01  1.00800000E+00  1.00800000E+00  1.60000000E+01  1.00800000E+00
  1.00800000E+00  1.60000000E+01  1.00800000E+00  1.00800000E+00  1.60000000E+01
  1.00800000E+00  1.00800000E+00  1.60000000E+01  1.00800000E+00  1.00800000E+00
  1.60000000E+01  1.00800000E+00  1.00800000E+00  1.60000000E+01  1.00800000E+00
  1.00800000E+00  1.60000000E+01  1.00800000E+00  1.00800000E+00  1.60000000E+01
  1.00800000E+00  1.00800000E+00  1.60000000E+01  1.00800000E+00  1.00800000E+00
  1.60000000E+01  1.00800000E+00  1.00800000E+00  1.60000000E+01  1.00800000E+00
  1.00800000E+00  1.60000000E+01  1.00800000E+00  1.00800000E+00  1.60000000E+01
  1.00800000E+00  1.00800000E+00  1.60000000E+01  1.00800000E+00  1.00800000E+00
  1.60000000E+01  1.00800000E+00  1.00800000E+00  1.60000000E+01  1.00800000E+00
  1.00800000E+00  1.60000000E+01  1.00800000E+00  1.00800000E+00  1.60000000E+01
  1.00800000E+00  1.00800000E+00  1.60000000E+01  1.00800000E+00  1.00800000E+00
  1.60000000E+01  1.00800000E+00  1.00800000E+00  1.60000000E+01  1.00800000E+00
  1.00800000E+00  1.60000000E+01  1.00800000E+00  1.00800000E+00  1.60000000E+01
  1.00800000E+00  1.00800000E+00  1.60000000E+01  1.00800000E+00  1.00800000E+00
  1.60000000E+01  1.00800000E+00  1.00800000E+00  1.60000000E+01  1.00800000E+00
  1.00800000E+00  1.60000000E+01  1.00800000E+00  1.00800000E+00  1.60000000E+01
  1.00800000E+00  1.00800000E+00  1.60000000E+01  1.00800000E+00  1.00800000E+00
  1.60000000E+01  1.00800000E+00  1.00800000E+00  1.60000000E+01  1.00800000E+00
  1.00800000E+00  1.60000000E+01  1.00800000E+00  1.00800000E+00  1.60000000E+01
  1.00800000E+00  1.00800000E+00  1.60000000E+01  1.00800000E+00  1.00800000E+00
  1.60000000E+01  1.00800000E+00  1.00800000E+00  1.60000000E+01  1.00800000E+00
  1.00800000E+00  1.60000000E+01  1.00800000E+00  1.00800000E+00  1.60000000E+01
  1.00800000E+00  1.00800000E+00  1.60000000E+01  1.00800000E+00  1.00800000E+00
  1.60000000E+01  1.00800000E+00  1.00800000E+00  1.60000000E+01  1.00800000E+00
  1.00800000E+00  1.60000000E+01  1.00800000E+00  1.00800000E+00  1.60000000E+01
  1.00800000E+00  1.00800000E+00  1.60000000E+01  1.00800000E+00  1.00800000E+00
  1.60000000E+01  1.00800000E+00  1.00800000E+00  1.60000000E+01  1.00800000E+00
  1.00800000E+00  1.60000000E+01  1.00800000E+00  1.00800000E+00  1.60000000E+01
  1.00800000E+00  1.00800000E+00  1.60000000E+01  1.00800000E+00  1.00800000E+00
  1.60000000E+01  1.00800000E+00  1.00800000E+00  1.60000000E+01  1.00800000E+00
  1.00800000E+00  1.60000000E+01  1.00800000E+00  1.00800000E+00  1.60000000E+01
  1.00800000E+00  1.00800000E+00  1.60000000E+01  1.00800000E+00  1.00800000E+00
  1.60000000E+01  1.00800000E+00  1.00800000E+00  1.60000000E+01  1.00800000E+00
  1.00800000E+00  1.60000000E+01  1.00800000E+00  1.00800000E+00  1.60000000E+01
  1.00800000E+00  1.00800000E+00  1.60000000E+01  1.00800000E+00  1.00800000E+00
  1.60000000E+01  1.00800000E+00  1.00800000E+00  1.60000000E+01  1.00800000E+00
  1.00800000E+00  1.60000000E+01  1.00800000E+00  1.00800000E+00  1.60000000E+01
  1.00800000E+00  1.00800000E+00  1.60000000E+01  1.00800000E+00  1.00800000E+00
  1.60000000E+01  1.00800000E+00  1.00800000E+00  1.60000000E+01  1.00800000E+00
  1.00800000E+00  1.60000000E+01  1.00800000E+00  1.00800000E+00  1.60000000E+01
  1.00800000E+00  1.00800000E+00  1.60000000E+01  1.00800000E+00  1.00800000E+00
  1.60000000E+01  1.00800000E+00  1.00800000E+00  1.60000000E+01  1.00800000E+00
  1.00800000E+00  1.60000000E+01  1.00800000E+00  1.00800000E+00  1.60000000E+01
  1.00800000E+00  1.00800000E+00  1.60000000E+01  1.00800000E+00  1.00800000E+00
  1.60000000E+01  1.00800000E+00  1.00800000E+00  1.60000000E+01  1.00800000E+00
  1.00800000E+00  1.60000000E+01  1.00800000E+00  1.00800000E+00  1.60000000E+01
  1.00800000E+00  1.00800000E+00  1.60000000E+01  1.00800000E+00  1.00800000E+00
  1.60000000E+01  1.00800000E+00  1.00800000E+00  1.60000000E+01  1.00800000E+00
  1.00800000E+00  1.60000000E+01  1.00800000E+00  1.00800000E+00  1.60000000E+01
  1.00800000E+00  1.00800000E+00  1.60000000E+01  1.00800000E+00  1.00800000E+00
  1.60000000E+01  1.00800000E+00  1.00800000E+00  1.60000000E+01  1.00800000E+00
  1.00800000E+00  1.60000000E+01  1.00800000E+00  1.00800000E+00  1.60000000E+01
  1.00800000E+00  1.00800000E+00  1.60000000E+01  1.00800000E+00  1.00800000E+00
  1.60000000E+01  1.00800000E+00  1.00800000E+00  1.60000000E+01  1.00800000E+00
  1.00800000E+00  1.60000000E+01  1.00800000E+00  1.00800000E+00  1.60000000E+01
  1.00800000E+00  1.00800000E+00  1.60000000E+01  1.00800000E+00  1.00800000E+00
  1.60000000E+01  1.00800000E+00  1.00800000E+00  1.60000000E+01  1.00800000E+00
  1.00800000E+00  1.60000000E+01  1.00800000E+00  1.00800000E+00  1.60000000E+01
  1.00800000E+00  1.00800000E+00  1.60000000E+01  1.00800000E+00  1.00800000E+00
  1.60000000E+01  1.00800000E+00  1.00800000E+00  1.60000000E+01  1.00800000E+00
  1.00800000E+00  1.60000000E+01  1.00800000E+00  1.00800000E+00  1.60000000E+01
  1.00800000E+00  1.00800000E+00  1.60000000E+01  1.00800000E+00  1.00800000E+00
  1.60000000E+01  1.00800000E+00  1.00800000E+00  1.60000000E+01  1.00800000E+00
  1.00800000E+00  1.60000000E+01  1.00800000E+00  1.00800000E+00  1.60000000E+01
  1.00800000E+00  1.00800000E+00  1.60000000E+01  1.00800000E+00  1.00800000E+00
  1.60000000E+01  1.00800000E+00  1.00800000E+00  1.60000000E+01  1.00800000E+00
  1.00800000E+00  1.60000000E+01  1.00800000E+00  1.00800000E+00  1.60000000E+01
  1.00800000E+00  1.00800000E+00  1.60000000E+01  1.00800000E+00  1.00800000E+00
  1.60000000E+01  1.00800000E+00  1.00800000E+00  1.60000000E+01  1.00800000E+00
  1.00800000E+00  1.60000000E+01  1.00800000E+00  1.00800000E+00  1.60000000E+01
  1.00800000E+00  1.00800000E+00  1.60000000E+01  1.00800000E+00  1.00800000E+00
  1.60000000E+01  1.00800000E+00  1.00800000E+00  1.60000000E+01  1.00800000E+00
  1.00800000E+00  1.60000000E+01  1.00800000E+00  1.00800000E+00  1.60000000E+01
  1.00800000E+00  1.00800000E+00  1.60000000E+01  1.00800000E+00  1.00800000E+00
  1.60000000E+01  1.00800000E+00  1.00800000E+00  1.60000000E+01  1.00800000E+00
  1.00800000E+00  1.60000000E+01  1.00800000E+00  1.00800000E+00  1.60000000E+01
  1.00800000E+00  1.00800000E+00  1.60000000E+01  1.00800000E+00  1.00800000E+00
  1.60000000E+01  1.00800000E+00  1.00800000E+00  1.60000000E+01  1.00800000E+00
  1.00800000E+00  1.60000000E+01  1.00800000E+00  1.00800000E+00  1.60000000E+01
  1.00800000E+00  1.00800000E+00  1.60000000E+01  1.00800000E+00  1.00800000E+00
  1.60000000E+01  1.00800000E+00  1.00800000E+00  1.60000000E+01  1.00800000E+00
  1.00800000E+00  1.60000000E+01  1.00800000E+00  1.00800000E+00  1.60000000E+01
  1.00800000E+00  1.00800000E+00  1.60000000E+01  1.00800000E+00  1.00800000E+00
  1.60000000E+01  1.00800000E+00  1.00800000E+00  1.60000000E+01  1.00800000E+00
  1.00800000E+00  1.60000000E+01  1.00800000E+00  1.00800000E+00  1.60000000E+01
  1.00800000E+00  1.00800000E+00  1.60000000E+01  1.00800000E+00  1.00800000E+00
  1.60000000E+01  1.00800000E+00  1.00800000E+00  1.60000000E+01  1.00800000E+00
  1.00800000E+00  1.60000000E+01  1.00800000E+00  1.00800000E+00  1.60000000E+01
  1.00800000E+00  1.00800000E+00  1.60000000E+01  1.00800000E+00  1.00800000E+00
  1.60000000E+01  1.00800000E+00  1.00800000E+00  1.60000000E+01  1.00800000E+00
  1.00800000E+00  1.60000000E+01  1.00800000E+00  1.00800000E+00  1.60000000E+01
  1.00800000E+00  1.00800000E+00  1.60000000E+01  1.00800000E+00  1.00800000E+00
  1.60000000E+01  1.00800000E+00  1.00800000E+00  1.60000000E+01  1.00800000E+00
  1.00800000E+00  1.60000000E+01  1.00800000E+00  1.00800000E+00  1.60000000E+01
  1.00800000E+00  1.00800000E+00  1.60000000E+01  1.00800000E+00  1.00800000E+00
  1.60000000E+01  1.00800000E+00  1.00800000E+00  1.60000000E+01  1.00800000E+00
  1.00800000E+00  1.60000000E+01  1.00800000E+00  1.00800000E+00  1.60000000E+01
  1.00800000E+00  1.00800000E+00  1.60000000E+01  1.00800000E+00  1.00800000E+00
  1.60000000E+01  1.00800000E+00  1.00800000E+00  1.60000000E+01  1.00800000E+00
  1.00800000E+00  1.60000000E+01  1.00800000E+00  1.00800000E+00  1.60000000E+01
  1.00800000E+00  1.00800000E+00  1.60000000E+01  1.00800000E+00  1.00800000E+00
  1.60000000E+01  1.00800000E+00  1.00800000E+00  1.60000000E+01  1.00800000E+00
  1.00800000E+00  1.60000000E+01  1.00800000E+00  1.00800000E+00  1.60000000E+01
  1.00800000E+00  1.00800000E+00  1.60000000E+01  1.00800000E+00  1.00800000E+00
  1.60000000E+01  1.00800000E+00  1.00800000E+00  1.60000000E+01  1.00800000E+00
  1.00800000E+00  1.60000000E+01  1.00800000E+00  1.00800000E+00  1.60000000E+01
  1.00800000E+00  1.00800000E+00  1.60000000E+01  1.00800000E+00  1.00800000E+00
  1.60000000E+01  1.00800000E+00  1.00800000E+00  1.60000000E+01  1.00800000E+00
  1.00800000E+00  1.60000000E+01  1.00800000E+00  1.00800000E+00  1.60000000E+01
  1.00800000E+00  1.00800000E+00  1.60000000E+01  1.00800000E+00  1.00800000E+00
  1.60000000E+01  1.00800000E+00  1.00800000E+00  1.60000000E+01  1.00800000E+00
  1.00800000E+00  1.60000000E+01  1.00800000E+00  1.00800000E+00  1.60000000E+01
  1.00800000E+00  1.00800000E+00  1.60000000E+01  1.00800000E+00  1.00800000E+00
  1.60000000E+01  1.00800000E+00  1.00800000E+00  1.60000000E+01  1.00800000E+00
  1.00800000E+00  1.60000000E+01  1.00800000E+00  1.00800000E+00  1.60000000E+01
  1.00800000E+00  1.00800000E+00  1.60000000E+01  1.00800000E+00  1.00800000E+00
  1.60000000E+01  1.00800000E+00  1.00800000E+00  1.60000000E+01  1.00800000E+00
  1.00800000E+00  1.60000000E+01  1.00800000E+00  1.00800000E+00  1.60000000E+01
  1.00800000E+00  1.00800000E+00  1.60000000E+01  1.00800000E+00  1.00800000E+00
  1.60000000E+01  1.00800000E+00  1.00800000E+00  1.60000000E+01  1.00800000E+00
  1.00800000E+00  1.60000000E+01  1.00800000E+00  1.00800000E+00  1.60000000E+01
  1.00800000E+00  1.00800000E+00  1.60000000E+01  1.00800000E+00  1.00800000E+00
  1.60000000E+01  1.00800000E+00  1.00800000E+00  1.60000000E+01  1.00800000E+00
  1.00800000E+00  1.60000000E+01  1.00800000E+00  1.00800000E+00  1.60000000E+01
  1.00800000E+00  1.00800000E+00  1.60000000E+01  1.00800000E+00  1.00800000E+00
  1.60000000E+01  1.00800000E+00  1.00800000E+00  1.60000000E+01  1.00800000E+00
  1.00800000E+00  1.60000000E+01  1.00800000E+00  1.00800000E+00  1.60000000E+01
  1.00800000E+00  1.00800000E+00  1.60000000E+01  1.00800000E+00  1.00800000E+00
  1.60000000E+01  1.00800000E+00  1.00800000E+00  1.60000000E+01  1.00800000E+00
  1.00800000E+00  1.60000000E+01  1.00800000E+00  1.00800000E+00  1.60000000E+01
  1.00800000E+00  1.00800000E+00  1.60000000E+01  1.00800000E+00  1.00800000E+00
  1.60000000E+01  1.00800000E+00  1.00800000E+00  1.60000000E+01  1.00800000E+00
  1.00800000E+00  1.60000000E+01  1.00800000E+00  1.00800000E+00  1.60000000E+01
  1.00800000E+00  1.00800000E+00  1.60000000E+01  1.00800000E+00  1.00800000E+00
  1.60000000E+01  1.00800000E+00  1.00800000E+00  1.60000000E+01  1.00800000E+00
  1.00800000E+00  1.60000000E+01  1.00800000E+00  1.00800000E+00  1.60000000E+01
  1.00800000E+00  1.00800000E+00  1.60000000E+01  1.00800000E+00  1.00800000E+00
  1.60000000E+01  1.00800000E+00  1.00800000E+00  1.60000000E+01  1.00800000E+00
  1.00800000E+00  1.60000000E+01  1.00800000E+00  1.00800000E+00  1.60000000E+01
  1.00800000E+00  1.00800000E+00  1.60000000E+01  1.00800000E+00  1.00800000E+00
  1.60000000E+01  1.00800000E+00  1.00800000E+00  1.60000000E+01  1.00800000E+00
  1.00800000E+00  1.60000000E+01  1.00800000E+00  1.00800000E+00  1.60000000E+01
  1.00800000E+00  1.00800000E+00  1.60000000E+01  1.00800000E+00  1.00800000E+00
  1.60000000E+01  1.00800000E+00  1.00800000E+00  1.60000000E+01  1.00800000E+00
  1.00800000E+00  1.60000000E+01  1.00800000E+00  1.00800000E+00  1.60000000E+01
  1.00800000E+00  1.00800000E+00  1.60000000E+01  1.00800000E+00  1.00800000E+00
  1.60000000E+01  1.00800000E+00  1.00800000E+00  1.60000000E+01  1.00800000E+00
  1.00800000E+00  1.60000000E+01  1.00800000E+00  1.00800000E+00  1.60000000E+01
  1.00800000E+00  1.00800000E+00  1.60000000E+01  1.00800000E+00  1.00800000E+00
  1.60000000E+01  1.00800000E+00  1.00800000E+00  1.60000000E+01  1.00800000E+00
  1.00800000E+00  1.60000000E+01  1.00800000E+00  1.00800000E+00  1.60000000E+01
  1.00800000E+00  1.00800000E+00  1.60000000E+01  1.00800000E+00  1.00800000E+00
  1.60000000E+01  1.00800000E+00  1.00800000E+00  1.60000000E+01  1.00800000E+00
  1.00800000E+00  1.60000000E+01  1.00800000E+00  1.00800000E+00  1.60000000E+01
  1.00800000E+00  1.00800000E+00  1.60000000E+01  1.00800000E+00  1.00800000E+00
  1.60000000E+01  1.00800000E+00  1.00800000E+00  1.60000000E+01  1.00800000E+00
  1.00800000E+00  1.60000000E+01  1.00800000E+00  1.00800000E+00  1.60000000E+01
  1.00800000E+00  1.00800000E+00  1.60000000E+01  1.00800000E+00  1.00800000E+00
  1.60000000E+01  1.00800000E+00  1.00800000E+00  1.60000000E+01  1.00800000E+00
  1.00800000E+00  1.60000000E+01  1.00800000E+00  1.00800000E+00  1.60000000E+01
  1.00800000E+00  1.00800000E+00  1.60000000E+01  1.00800000E+00  1.00800000E+00
  1.60000000E+01  1.00800000E+00  1.00800000E+00  1.60000000E+01  1.00800000E+00
  1.00800000E+00  1.60000000E+01  1.00800000E+00  1.00800000E+00  1.60000000E+01
  1.00800000E+00  1.00800000E+00  1.60000000E+01  1.00800000E+00  1.00800000E+00
  1.60000000E+01  1.00800000E+00  1.00800000E+00  1.60000000E+01  1.00800000E+00
  1.00800000E+00  1.60000000E+01  1.00800000E+00  1.00800000E+00  1.60000000E+01
  1.00800000E+00  1.00800000E+00  1.60000000E+01  1.00800000E+00  1.00800000E+00
  1.60000000E+01  1.00800000E+00  1.00800000E+00  1.60000000E+01  1.00800000E+00
  1.00800000E+00  1.60000000E+01  1.00800000E+00  1.00800000E+00  1.60000000E+01
  1.00800000E+00  1.00800000E+00  1.60000000E+01  1.00800000E+00  1.00800000E+00
  1.60000000E+01  1.00800000E+00  1.00800000E+00  1.60000000E+01  1.00800000E+00
  1.00800000E+00  1.60000000E+01  1.00800000E+00  1.00800000E+00  1.60000000E+01
  1.00800000E+00  1.00800000E+00  1.60000000E+01  1.00800000E+00  1.00800000E+00
  1.60000000E+01  1.00800000E+00  1.00800000E+00  1.60000000E+01  1.00800000E+00
  1.00800000E+00  1.60000000E+01  1.00800000E+00  1.00800000E+00  1.60000000E+01
  1.00800000E+00  1.00800000E+00  1.60000000E+01  1.00800000E+00  1.00800000E+00
  1.60000000E+01  1.00800000E+00  1.00800000E+00  1.60000000E+01  1.00800000E+00
  1.00800000E+00  1.60000000E+01  1.00800000E+00  1.00800000E+00  1.60000000E+01
  1.00800000E+00  1.00800000E+00  1.60000000E+01  1.00800000E+00  1.00800000E+00
  1.60000000E+01  1.00800000E+00  1.00800000E+00  1.60000000E+01  1.00800000E+00
  1.00800000E+00  1.60000000E+01  1.00800000E+00  1.00800000E+00  1.60000000E+01
  1.00800000E+00  1.00800000E+00  1.60000000E+01  1.00800000E+00  1.00800000E+00
  1.60000000E+01  1.00800000E+00  1.00800000E+00  1.60000000E+01  1.00800000E+00
  1.00800000E+00  1.60000000E+01  1.00800000E+00  1.00800000E+00  1.60000000E+01
  1.00800000E+00  1.00800000E+00  1.60000000E+01  1.00800000E+00  1.00800000E+00
  1.60000000E+01  1.00800000E+00  1.00800000E+00  1.60000000E+01  1.00800000E+00
  1.00800000E+00  1.60000000E+01  1.00800000E+00  1.00800000E+00  1.60000000E+01
  1.00800000E+00  1.00800000E+00  1.60000000E+01  1.00800000E+00  1.00800000E+00
  1.60000000E+01  1.00800000E+00  1.00800000E+00  1.60000000E+01  1.00800000E+00
  1.00800000E+00  1.60000000E+01  1.00800000E+00  1.00800000E+00  1.60000000E+01
  1.00800000E+00  1.00800000E+00  1.60000000E+01  1.00800000E+00  1.00800000E+00
  1.60000000E+01  1.00800000E+00  1.00800000E+00  1.60000000E+01  1.00800000E+00
  1.00800000E+00  1.60000000E+01  1.00800000E+00  1.00800000E+00  1.60000000E+01
  1.00800000E+00  1.00800000E+00  1.60000000E+01  1.00800000E+00  1.00800000E+00
  1.60000000E+01  1.00800000E+00  1.00800000E+00  1.60000000E+01  1.00800000E+00
  1.00800000E+00  1.60000000E+01  1.00800000E+00  1.00800000E+00  1.60000000E+01
  1.00800000E+00  1.00800000E+00  1.60000000E+01  1.00800000E+00  1.00800000E+00
  1.60000000E+01  1.00800000E+00  1.00800000E+00  1.60000000E+01  1.00800000E+00
  1.00800000E+00  1.60000000E+01  1.00800000E+00  1.00800000E+00  1.60000000E+01
  1.00800000E+00  1.00800000E+00  1.60000000E+01  1.00800000E+00  1.00800000E+00
  1.60000000E+01  1.00800000E+00  1.00800000E+00  1.60000000E+01  1.00800000E+00
  1.00800000E+00  1.60000000E+01  1.00800000E+00  1.00800000E+00  1.60000000E+01
  1.00800000E+00  1.00800000E+00  1.60000000E+01  1.00800000E+00  1.00800000E+00
  1.60000000E+01  1.00800000E+00  1.00800000E+00  1.60000000E+01  1.00800000E+00
  1.00800000E+00  1.60000000E+01  1.00800000E+00  1.00800000E+00  1.60000000E+01
  1.00800000E+00  1.00800000E+00  1.60000000E+01  1.00800000E+00  1.00800000E+00
  1.60000000E+01  1.00800000E+00  1.00800000E+00  1.60000000E+01  1.00800000E+00
  1.00800000E+00  1.60000000E+01  1.00800000E+00  1.00800000E+00  1.60000000E+01
  1.00800000E+00  1.00800000E+00  1.60000000E+01  1.00800000E+00  1.00800000E+00
  1.60000000E+01  1.00800000E+00  1.00800000E+00  1.60000000E+01  1.00800000E+00
  1.00800000E+00  1.60000000E+01  1.00800000E+00  1.00800000E+00  1.60000000E+01
  1.00800000E+00  1.00800000E+00  1.60000000E+01  1.00800000E+00  1.00800000E+00
  1.60000000E+01  1.00800000E+00  1.00800000E+00  1.60000000E+01  1.00800000E+00
  1.00800000E+00  1.60000000E+01  1.00800000E+00  1.00800000E+00  1.60000000E+01
  1.00800000E+00  1.00800000E+00  1.60000000E+01  1.00800000E+00  1.00800000E+00
  1.60000000E+01  1.00800000E+00  1.00800000E+00  1.60000000E+01  1.00800000E+00
  1.00800000E+00  1.60000000E+01  1.00800000E+00  1.00800000E+00  1.60000000E+01
  1.00800000E+00  1.00800000E+00  1.60000000E+01  1.00800000E+00  1.00800000E+00
  1.60000000E+01  1.00800000E+00  1.00800000E+00  1.60000000E+01  1.00800000E+00
  1.00800000E+00  1.60000000E+01  1.00800000E+00  1.00800000E+00  1.60000000E+01
  1.00800000E+00  1.00800000E+00  1.60000000E+01  1.00800000E+00  1.00800000E+00
  1.60000000E+01  1.00800000E+00  1.00800000E+00  1.60000000E+01  1.00800000E+00
  1.00800000E+00  1.60000000E+01  1.00800000E+00  1.00800000E+00  1.60000000E+01
  1.00800000E+00  1.00800000E+00  1.60000000E+01  1.00800000E+00  1.00800000E+00
  1.60000000E+01  1.00800000E+00  1.00800000E+00  1.60000000E+01  1.00800000E+00
  1.00800000E+00  1.60000000E+01  1.00800000E+00  1.00800000E+00  1.60000000E+01
  1.00800000E+00  1.00800000E+00  1.60000000E+01  1.00800000E+00  1.00800000E+00
  1.60000000E+01  1.00800000E+00  1.00800000E+00  1.60000000E+01  1.00800000E+00
  1.00800000E+00  1.60000000E+01  1.00800000E+00  1.00800000E+00  1.60000000E+01
  1.00800000E+00  1.00800000E+00  1.60000000E+01  1.00800000E+00  1.00800000E+00
  1.60000000E+01  1.00800000E+00  1.00800000E+00  1.60000000E+01  1.00800000E+00
  1.00800000E+00  1.60000000E+01  1.00800000E+00  1.00800000E+00  1.60000000E+01
  1.00800000E+00  1.00800000E+00  1.60000000E+01  1.00800000E+00  1.00800000E+00
  1.60000000E+01  1.00800000E+00  1.00800000E+00  1.60000000E+01  1.00800000E+00
  1.00800000E+00  1.60000000E+01  1.00800000E+00  1.00800000E+00  1.60000000E+01
  1.00800000E+00  1.00800000E+00  1.60000000E+01  1.00800000E+00  1.00800000E+00
  1.60000000E+01  1.00800000E+00  1.00800000E+00  1.60000000E+01  1.00800000E+00
  1.00800000E+00  1.60000000E+01  1.00800000E+00  1.00800000E+00  1.60000000E+01
  1.00800000E+00  1.00800000E+00  1.60000000E+01  1.00800000E+00  1.00800000E+00
  1.60000000E+01  1.00800000E+00  1.00800000E+00  1.60000000E+01  1.00800000E+00
  1.00800000E+00  1.60000000E+01  1.00800000E+00  1.00800000E+00  1.60000000E+01
  1.00800000E+00  1.00800000E+00  1.60000000E+01  1.00800000E+00  1.00800000E+00
  1.60000000E+01  1.00800000E+00  1.00800000E+00  1.60000000E+01  1.00800000E+00
  1.00800000E+00  1.60000000E+01  1.00800000E+00  1.00800000E+00  1.60000000E+01
  1.00800000E+00  1.00800000E+00  1.60000000E+01  1.00800000E+00  1.00800000E+00
  1.60000000E+01  1.00800000E+00  1.00800000E+00  1.60000000E+01  1.00800000E+00
  1.00800000E+00  1.60000000E+01  1.00800000E+00  1.00800000E+00  1.60000000E+01
  1.00800000E+00  1.00800000E+00  1.60000000E+01  1.00800000E+00  1.00800000E+00
  1.60000000E+01  1.00800000E+00  1.00800000E+00  1.60000000E+01  1.00800000E+00
  1.00800000E+00  1.60000000E+01  1.00800000E+00  1.00800000E+00  1.60000000E+01
  1.00800000E+00  1.00800000E+00  1.60000000E+01  1.00800000E+00  1.00800000E+00
  1.60000000E+01  1.00800000E+00  1.00800000E+00  1.60000000E+01  1.00800000E+00
  1.00800000E+00  1.60000000E+01  1.00800000E+00  1.00800000E+00  1.60000000E+01
  1.00800000E+00  1.00800000E+00  1.60000000E+01  1.00800000E+00  1.00800000E+00
  1.60000000E+01  1.00800000E+00  1.00800000E+00  1.60000000E+01  1.00800000E+00
  1.00800000E+00  1.60000000E+01  1.00800000E+00  1.00800000E+00  1.60000000E+01
  1.00800000E+00  1.00800000E+00  1.60000000E+01  1.00800000E+00  1.00800000E+00
  1.60000000E+01  1.00800000E+00  1.00800000E+00  1.60000000E+01  1.00800000E+00
  1.00800000E+00  1.60000000E+01  1.00800000E+00  1.00800000E+00  1.60000000E+01
  1.00800000E+00  1.00800000E+00  1.60000000E+01  1.00800000E+00  1.00800000E+00
  1.60000000E+01  1.00800000E+00  1.00800000E+00  1.60000000E+01  1.00800000E+00
  1.00800000E+00  1.60000000E+01  1.00800000E+00  1.00800000E+00  1.60000000E+01
  1.00800000E+00  1.00800000E+00  1.60000000E+01  1.00800000E+00  1.00800000E+00
  1.60000000E+01  1.00800000E+00  1.00800000E+00  1.60000000E+01  1.00800000E+00
  1.00800000E+00  1.60000000E+01  1.00800000E+00  1.00800000E+00  1.60000000E+01
  1.00800000E+00  1.00800000E+00  1.60000000E+01  1.00800000E+00  1.00800000E+00
  1.60000000E+01  1.00800000E+00  1.00800000E+00  1.60000000E+01  1.00800000E+00
  1.00800000E+00  1.60000000E+01  1.00800000E+00  1.00800000E+00  1.60000000E+01
  1.00800000E+00  1.00800000E+00  1.60000000E+01  1.00800000E+00  1.00800000E+00
  1.60000000E+01  1.00800000E+00  1.00800000E+00  1.60000000E+01  1.00800000E+00
  1.00800000E+00  1.60000000E+01  1.00800000E+00  1.00800000E+00  1.60000000E+01
  1.00800000E+00  1.00800000E+00  1.60000000E+01  1.00800000E+00  1.00800000E+00
  1.60000000E+01  1.00800000E+00  1.00800000E+00  1.60000000E+01  1.00800000E+00
  1.00800000E+00  1.60000000E+01  1.00800000E+00  1.00800000E+00  1.60000000E+01
  1.00800000E+00  1.00800000E+00  1.60000000E+01  1.00800000E+00  1.00800000E+00
  1.60000000E+01  1.00800000E+00  1.00800000E+00  1.60000000E+01  1.00800000E+00
  1.00800000E+00  1.60000000E+01  1.00800000E+00  1.00800000E+00  1.60000000E+01
  1.00800000E+00  1.00800000E+00  1.60000000E+01  1.00800000E+00  1.00800000E+00
  1.60000000E+01  1.00800000E+00  1.00800000E+00  1.60000000E+01  1.00800000E+00
  1.00800000E+00  1.60000000E+01  1.00800000E+00  1.00800000E+00  1.60000000E+01
  1.00800000E+00  1.00800000E+00  1.60000000E+01  1.00800000E+00  1.00800000E+00
  1.60000000E+01  1.00800000E+00  1.00800000E+00  1.60000000E+01  1.00800000E+00
  1.00800000E+00  1.60000000E+01  1.00800000E+00  1.00800000E+00  1.60000000E+01
  1.00800000E+00  1.00800000E+00  1.60000000E+01  1.00800000E+00  1.00800000E+00
  1.60000000E+01  1.00800000E+00  1.00800000E+00  1.60000000E+01  1.00800000E+00
  1.00800000E+00  1.60000000E+01  1.00800000E+00  1.00800000E+00  1.60000000E+01
  1.00800000E+00  1.00800000E+00  1.60000000E+01  1.00800000E+00  1.00800000E+00
  1.60000000E+01  1.00800000E+00  1.00800000E+00  1.60000000E+01  1.00800000E+00
  1.00800000E+00  1.60000000E+01  1.00800000E+00  1.00800000E+00  1.60000000E+01
  1.00800000E+00  1.00800000E+00  1.60000000E+01  1.00800000E+00  1.00800000E+00
  1.60000000E+01  1.00800000E+00  1.00800000E+00  1.60000000E+01  1.00800000E+00
  1.00800000E+00  1.60000000E+01  1.00800000E+00  1.00800000E+00  1.60000000E+01
  1.00800000E+00  1.00800000E+00  1.60000000E+01  1.00800000E+00  1.00800000E+00
  1.60000000E+01  1.00800000E+00  1.00800000E+00  1.60000000E+01  1.00800000E+00
  1.00800000E+00  1.60000000E+01  1.00800000E+00  1.00800000E+00  1.60000000E+01
  1.00800000E+00  1.00800000E+00  1.60000000E+01  1.00800000E+00  1.00800000E+00
  1.60000000E+01  1.00800000E+00  1.00800000E+00  1.60000000E+01  1.00800000E+00
  1.00800000E+00  1.60000000E+01  1.00800000E+00  1.00800000E+00  1.60000000E+01
  1.00800000E+00  1.00800000E+00  1.60000000E+01  1.00800000E+00  1.00800000E+00
  1.60000000E+01  1.00800000E+00  1.00800000E+00  1.60000000E+01  1.00800000E+00
  1.00800000E+00  1.60000000E+01  1.00800000E+00  1.00800000E+00  1.60000000E+01
  1.00800000E+00  1.00800000E+00  1.60000000E+01  1.00800000E+00  1.00800000E+00
  1.60000000E+01  1.00800000E+00  1.00800000E+00  1.60000000E+01  1.00800000E+00
  1.00800000E+00  1.60000000E+01  1.00800000E+00  1.00800000E+00  1.60000000E+01
  1.00800000E+00  1.00800000E+00  1.60000000E+01  1.00800000E+00  1.00800000E+00
  1.60000000E+01  1.00800000E+00  1.00800000E+00  1.60000000E+01  1.00800000E+00
  1.00800000E+00  1.60000000E+01  1.00800000E+00  1.00800000E+00  1.60000000E+01
  1.00800000E+00  1.00800000E+00  1.60000000E+01  1.00800000E+00  1.00800000E+00
  1.60000000E+01  1.00800000E+00  1.00800000E+00  1.60000000E+01  1.00800000E+00
  1.00800000E+00  1.60000000E+01  1.00800000E+00  1.00800000E+00  1.60000000E+01
  1.00800000E+00  1.00800000E+00  1.60000000E+01  1.00800000E+00  1.00800000E+00
  1.60000000E+01  1.00800000E+00  1.00800000E+00  1.60000000E+01  1.00800000E+00
  1.00800000E+00  1.60000000E+01  1.00800000E+00  1.00800000E+00  1.60000000E+01
  1.00800000E+00  1.00800000E+00  1.60000000E+01  1.00800000E+00  1.00800000E+00
  1.60000000E+01  1.00800000E+00  1.00800000E+00  1.60000000E+01  1.00800000E+00
  1.00800000E+00  1.60000000E+01  1.00800000E+00  1.00800000E+00  1.60000000E+01
  1.00800000E+00  1.00800000E+00  1.60000000E+01  1.00800000E+00  1.00800000E+00
  1.60000000E+01  1.00800000E+00  1.00800000E+00  1.60000000E+01  1.00800000E+00
  1.00800000E+00  1.60000000E+01  1.00800000E+00  1.00800000E+00  1.60000000E+01
  1.00800000E+00  1.00800000E+00  1.60000000E+01  1.00800000E+00  1.00800000E+00
  1.60000000E+01  1.00800000E+00  1.00800000E+00  1.60000000E+01  1.00800000E+00
  1.00800000E+00  1.60000000E+01  1.00800000E+00  1.00800000E+00  1.60000000E+01
  1.00800000E+00  1.00800000E+00  1.60000000E+01  1.00800000E+00  1.00800000E+00
  1.60000000E+01  1.00800000E+00  1.00800000E+00  1.60000000E+01  1.00800000E+00
  1.00800000E+00  1.60000000E+01  1.00800000E+00  1.00800000E+00  1.60000000E+01
  1.00800000E+00  1.00800000E+00  1.60000000E+01  1.00800000E+00  1.00800000E+00
  1.60000000E+01  1.00800000E+00  1.00800000E+00  1.60000000E+01  1.00800000E+00
  1.00800000E+00  1.60000000E+01  1.00800000E+00  1.00800000E+00  1.60000000E+01
  1.00800000E+00  1.00800000E+00  1.60000000E+01  1.00800000E+00  1.00800000E+00
  1.60000000E+01  1.00800000E+00  1.00800000E+00  1.60000000E+01  1.00800000E+00
  1.00800000E+00  1.60000000E+01  1.00800000E+00  1.00800000E+00  1.60000000E+01
  1.00800000E+00  1.00800000E+00  1.60000000E+01  1.00800000E+00  1.00800000E+00
  1.60000000E+01  1.00800000E+00  1.00800000E+00  1.60000000E+01  1.00800000E+00
  1.00800000E+00  1.60000000E+01  1.00800000E+00  1.00800000E+00  1.60000000E+01
  1.00800000E+00  1.00800000E+00  1.60000000E+01  1.00800000E+00  1.00800000E+00
  1.60000000E+01  1.00800000E+00  1.00800000E+00  1.60000000E+01  1.00800000E+00
  1.00800000E+00  1.60000000E+01  1.00800000E+00  1.00800000E+00  1.60000000E+01
  1.00800000E+00  1.00800000E+00  1.60000000E+01  1.00800000E+00  1.00800000E+00
  1.60000000E+01  1.00800000E+00  1.00800000E+00  1.60000000E+01  1.00800000E+00
  1.00800000E+00  1.60000000E+01  1.00800000E+00  1.00800000E+00  1.60000000E+01
  1.00800000E+00  1.00800000E+00  1.60000000E+01  1.00800000E+00  1.00800000E+00
  1.60000000E+01  1.00800000E+00  1.00800000E+00  1.60000000E+01  1.00800000E+00
  1.00800000E+00  1.60000000E+01  1.00800000E+00  1.00800000E+00  1.60000000E+01
  1.00800000E+00  1.00800000E+00  1.60000000E+01  1.00800000E+00  1.00800000E+00
  1.60000000E+01  1.00800000E+00  1.00800000E+00  1.60000000E+01  1.00800000E+00
  1.00800000E+00  1.60000000E+01  1.00800000E+00  1.00800000E+00  1.60000000E+01
  1.00800000E+00  1.00800000E+00  1.60000000E+01  1.00800000E+00  1.00800000E+00
  1.60000000E+01  1.00800000E+00  1.00800000E+00  1.60000000E+01  1.00800000E+00
  1.00800000E+00  1.60000000E+01  1.00800000E+00  1.00800000E+00  1.60000000E+01
  1.00800000E+00  1.00800000E+00  1.60000000E+01  1.00800000E+00  1.00800000E+00
  1.60000000E+01  1.00800000E+00  1.00800000E+00  1.60000000E+01  1.00800000E+00
  1.00800000E+00  1.60000000E+01  1.00800000E+00  1.00800000E+00  1.60000000E+01
  1.00800000E+00  1.00800000E+00  1.60000000E+01  1.00800000E+00  1.00800000E+00
  1.60000000E+01  1.00800000E+00  1.00800000E+00  1.60000000E+01  1.00800000E+00
  1.00800000E+00  1.60000000E+01  1.00800000E+00  1.00800000E+00  1.60000000E+01
  1.00800000E+00  1.00800000E+00  1.60000000E+01  1.00800000E+00  1.00800000E+00
  1.60000000E+01  1.00800000E+00  1.00800000E+00  1.60000000E+01  1.00800000E+00
  1.00800000E+00  1.60000000E+01  1.00800000E+00  1.00800000E+00  1.60000000E+01
  1.00800000E+00  1.00800000E+00  1.60000000E+01  1.00800000E+00  1.00800000E+00
  1.60000000E+01  1.00800000E+00  1.00800000E+00  1.60000000E+01  1.00800000E+00
  1.00800000E+00  1.60000000E+01  1.00800000E+00  1.00800000E+00  1.60000000E+01
  1.00800000E+00  1.00800000E+00  1.60000000E+01  1.00800000E+00  1.00800000E+00
  1.60000000E+01  1.00800000E+00  1.00800000E+00  1.60000000E+01  1.00800000E+00
  1.00800000E+00  1.60000000E+01  1.00800000E+00  1.00800000E+00  1.60000000E+01
  1.00800000E+00  1.00800000E+00  1.60000000E+01  1.00800000E+00  1.00800000E+00
  1.60000000E+01  1.00800000E+00  1.00800000E+00  1.60000000E+01  1.00800000E+00
  1.00800000E+00  1.60000000E+01  1.00800000E+00  1.00800000E+00  1.60000000E+01
  1.00800000E+00  1.00800000E+00  1.60000000E+01  1.00800000E+00  1.00800000E+00
  1.60000000E+01  1.00800000E+00  1.00800000E+00  1.60000000E+01  1.00800000E+00
  1.00800000E+00  1.60000000E+01  1.00800000E+00  1.00800000E+00  1.60000000E+01
  1.00800000E+00  1.00800000E+00  1.60000000E+01  1.00800000E+00  1.00800000E+00
  1.60000000E+01  1.00800000E+00  1.00800000E+00  1.60000000E+01  1.00800000E+00
  1.00800000E+00  1.60000000E+01  1.00800000E+00  1.00800000E+00  1.60000000E+01
  1.00800000E+00  1.00800000E+00  1.60000000E+01  1.00800000E+00  1.00800000E+00
  1.60000000E+01  1.00800000E+00  1.00800000E+00  1.60000000E+01  1.00800000E+00
  1.00800000E+00  1.60000000E+01  1.00800000E+00  1.00800000E+00  1.60000000E+01
  1.00800000E+00  1.00800000E+00  1.60000000E+01  1.00800000E+00  1.00800000E+00
  1.60000000E+01  1.00800000E+00  1.00800000E+00  1.60000000E+01  1.00800000E+00
  1.00800000E+00  1.60000000E+01  1.00800000E+00  1.00800000E+00  1.60000000E+01
  1.00800000E+00  1.00800000E+00  1.60000000E+01  1.00800000E+00  1.00800000E+00
  1.60000000E+01  1.00800000E+00  1.00800000E+00  1.60000000E+01  1.00800000E+00
  1.00800000E+00  1.60000000E+01  1.00800000E+00  1.00800000E+00  1.60000000E+01
  1.00800000E+00  1.00800000E+00  1.60000000E+01  1.00800000E+00  1.00800000E+00
  1.60000000E+01  1.00800000E+00  1.00800000E+00  1.60000000E+01  1.00800000E+00
  1.00800000E+00  1.60000000E+01  1.00800000E+00  1.00800000E+00  1.60000000E+01
  1.00800000E+00  1.00800000E+00  1.60000000E+01  1.00800000E+00  1.00800000E+00
  1.60000000E+01  1.00800000E+00  1.00800000E+00  1.60000000E+01  1.00800000E+00
  1.00800000E+00  1.60000000E+01  1.00800000E+00  1.00800000E+00  1.60000000E+01
  1.00800000E+00  1.00800000E+00  1.60000000E+01  1.00800000E+00  1.00800000E+00
  1.60000000E+01  1.00800000E+00  1.00800000E+00  1.60000000E+01  1.00800000E+00
  1.00800000E+00  1.60000000E+01  1.00800000E+00  1.00800000E+00  1.60000000E+01
  1.00800000E+00  1.00800000E+00  1.60000000E+01  1.00800000E+00  1.00800000E+00
  1.60000000E+01  1.00800000E+00  1.00800000E+00  1.60000000E+01  1.00800000E+00
  1.00800000E+00  1.60000000E+01  1.00800000E+00  1.00800000E+00  1.60000000E+01
  1.00800000E+00  1.00800000E+00  1.60000000E+01  1.00800000E+00  1.00800000E+00
  1.60000000E+01  1.00800000E+00  1.00800000E+00  1.60000000E+01  1.00800000E+00
  1.00800000E+00  1.60000000E+01  1.00800000E+00  1.00800000E+00  1.60000000E+01
  1.00800000E+00  1.00800000E+00  1.60000000E+01  1.00800000E+00  1.00800000E+00
  1.60000000E+01  1.00800000E+00  1.00800000E+00  1.60000000E+01  1.00800000E+00
  1.00800000E+00  1.60000000E+01  1.00800000E+00  1.00800000E+00  1.60000000E+01
  1.00800000E+00  1.00800000E+00  1.60000000E+01  1.00800000E+00  1.00800000E+00
  1.60000000E+01  1.00800000E+00  1.00800000E+00  1.60000000E+01  1.00800000E+00
  1.00800000E+00  1.60000000E+01  1.00800000E+00  1.00800000E+00  1.60000000E+01
  1.00800000E+00  1.00800000E+00  1.60000000E+01  1.00800000E+00  1.00800000E+00
  1.60000000E+01  1.00800000E+00  1.00800000E+00  1.60000000E+01  1.00800000E+00
  1.00800000E+00  1.60000000E+01  1.00800000E+00  1.00800000E+00  1.60000000E+01
  1.00800000E+00  1.00800000E+00  1.60000000E+01  1.00800000E+00  1.00800000E+00
  1.60000000E+01  1.00800000E+00  1.00800000E+00  1.60000000E+01  1.00800000E+00
  1.00800000E+00  1.60000000E+01  1.00800000E+00  1.00800000E+00  1.60000000E+01
  1.00800000E+00  1.00800000E+00  1.60000000E+01  1.00800000E+00  1.00800000E+00
  1.60000000E+01  1.00800000E+00  1.00800000E+00  1.60000000E+01  1.00800000E+00
  1.00800000E+00  1.60000000E+01  1.00800000E+00  1.00800000E+00  1.60000000E+01
  1.00800000E+00  1.00800000E+00  1.60000000E+01  1.00800000E+00  1.00800000E+00
  1.60000000E+01  1.00800000E+00  1.00800000E+00  1.60000000E+01  1.00800000E+00
  1.00800000E+00  1.60000000E+01  1.00800000E+00  1.00800000E+00  1.60000000E+01
  1.00800000E+00  1.00800000E+00  1.60000000E+01  1.00800000E+00  1.00800000E+00
  1.60000000E+01  1.00800000E+00  1.00800000E+00  1.60000000E+01  1.00800000E+00
  1.00800000E+00  1.60000000E+01  1.00800000E+00  1.00800000E+00  1.60000000E+01
  1.00800000E+00  1.00800000E+00  1.60000000E+01  1.00800000E+00  1.00800000E+00
  1.60000000E+01  1.00800000E+00  1.00800000E+00  1.60000000E+01  1.00800000E+00
  1.00800000E+00  1.60000000E+01  1.00800000E+00  1.00800000E+00  1.60000000E+01
  1.00800000E+00  1.00800000E+00  1.60000000E+01  1.00800000E+00  1.00800000E+00
  1.60000000E+01  1.00800000E+00  1.00800000E+00  1.60000000E+01  1.00800000E+00
  1.00800000E+00  1.60000000E+01  1.00800000E+00  1.00800000E+00  1.60000000E+01
  1.00800000E+00  1.00800000E+00  1.60000000E+01  1.00800000E+00  1.00800000E+00
  1.60000000E+01  1.00800000E+00  1.00800000E+00  1.60000000E+01  1.00800000E+00
  1.00800000E+00  1.60000000E+01  1.00800000E+00  1.00800000E+00  1.60000000E+01
  1.00800000E+00  1.00800000E+00  1.60000000E+01  1.00800000E+00  1.00800000E+00
  1.60000000E+01  1.00800000E+00  1.00800000E+00  1.60000000E+01  1.00800000E+00
  1.00800000E+00  1.60000000E+01  1.00800000E+00  1.00800000E+00  1.60000000E+01
  1.00800000E+00  1.00800000E+00  1.60000000E+01  1.00800000E+00  1.00800000E+00
  1.60000000E+01  1.00800000E+00  1.00800000E+00  1.60000000E+01  1.00800000E+00
  1.00800000E+00  1.60000000E+01  1.00800000E+00  1.00800000E+00  1.60000000E+01
  1.00800000E+00  1.00800000E+00  1.60000000E+01  1.00800000E+00  1.00800000E+00
  1.60000000E+01  1.00800000E+00  1.00800000E+00  1.60000000E+01  1.00800000E+00
  1.00800000E+00  1.60000000E+01  1.00800000E+00  1.00800000E+00  1.60000000E+01
  1.00800000E+00  1.00800000E+00  1.60000000E+01  1.00800000E+00  1.00800000E+00
  1.60000000E+01  1.00800000E+00  1.00800000E+00  1.60000000E+01  1.00800000E+00
  1.00800000E+00  1.60000000E+01  1.00800000E+00  1.00800000E+00  1.60000000E+01
  1.00800000E+00  1.00800000E+00  1.60000000E+01  1.00800000E+00  1.00800000E+00
  1.60000000E+01  1.00800000E+00  1.00800000E+00  1.60000000E+01  1.00800000E+00
  1.00800000E+00  1.60000000E+01  1.00800000E+00  1.00800000E+00  1.60000000E+01
  1.00800000E+00  1.00800000E+00  1.60000000E+01  1.00800000E+00  1.00800000E+00
  1.60000000E+01  1.00800000E+00  1.00800000E+00  1.60000000E+01  1.00800000E+00
  1.00800000E+00  1.60000000E+01  1.00800000E+00  1.00800000E+00  1.60000000E+01
  1.00800000E+00  1.00800000E+00  1.60000000E+01  1.00800000E+00  1.00800000E+00
  1.60000000E+01  1.00800000E+00  1.00800000E+00  1.60000000E+01  1.00800000E+00
  1.00800000E+00  1.60000000E+01  1.00800000E+00  1.00800000E+00  1.60000000E+01
  1.00800000E+00  1.00800000E+00  1.60000000E+01  1.00800000E+00  1.00800000E+00
  1.60000000E+01  1.00800000E+00  1.00800000E+00  1.60000000E+01  1.00800000E+00
  1.00800000E+00  1.60000000E+01  1.00800000E+00  1.00800000E+00  1.60000000E+01
  1.00800000E+00  1.00800000E+00  1.60000000E+01  1.00800000E+00  1.00800000E+00
  1.60000000E+01  1.00800000E+00  1.00800000E+00  1.60000000E+01  1.00800000E+00
  1.00800000E+00  1.60000000E+01  1.00800000E+00  1.00800000E+00  1.60000000E+01
  1.00800000E+00  1.00800000E+00  1.60000000E+01  1.00800000E+00  1.00800000E+00
  1.60000000E+01  1.00800000E+00  1.00800000E+00  1.60000000E+01  1.00800000E+00
  1.00800000E+00  1.60000000E+01  1.00800000E+00  1.00800000E+00  1.60000000E+01
  1.00800000E+00  1.00800000E+00  1.60000000E+01  1.00800000E+00  1.00800000E+00
  1.60000000E+01  1.00800000E+00  1.00800000E+00  1.60000000E+01  1.00800000E+00
  1.00800000E+00  1.60000000E+01  1.00800000E+00  1.00800000E+00  1.60000000E+01
  1.00800000E+00  1.00800000E+00  1.60000000E+01  1.00800000E+00  1.00800000E+00
  1.60000000E+01  1.00800000E+00  1.00800000E+00  1.60000000E+01  1.00800000E+00
  1.00800000E+00  1.60000000E+01  1.00800000E+00  1.00800000E+00  1.60000000E+01
  1.00800000E+00  1.00800000E+00  1.60000000E+01  1.00800000E+00  1.00800000E+00
  1.60000000E+01  1.00800000E+00  1.00800000E+00  1.60000000E+01  1.00800000E+00
  1.00800000E+00  1.60000000E+01  1.00800000E+00  1.00800000E+00  1.60000000E+01
  1.00800000E+00  1.00800000E+00  1.60000000E+01  1.00800000E+00  1.00800000E+00
  1.60000000E+01  1.00800000E+00  1.00800000E+00  1.60000000E+01  1.00800000E+00
  1.00800000E+00  1.60000000E+01  1.00800000E+00  1.00800000E+00  1.60000000E+01
  1.00800000E+00  1.00800000E+00  1.60000000E+01  1.00800000E+00  1.00800000E+00
  1.60000000E+01  1.00800000E+00  1.00800000E+00  1.60000000E+01  1.00800000E+00
  1.00800000E+00  1.60000000E+01  1.00800000E+00  1.00800000E+00  1.60000000E+01
  1.00800000E+00  1.00800000E+00  1.60000000E+01  1.00800000E+00  1.00800000E+00
  1.60000000E+01  1.00800000E+00  1.00800000E+00  1.60000000E+01  1.00800000E+00
  1.00800000E+00  1.60000000E+01  1.00800000E+00  1.00800000E+00  1.60000000E+01
  1.00800000E+00  1.00800000E+00  1.60000000E+01  1.00800000E+00  1.00800000E+00
  1.60000000E+01  1.00800000E+00  1.00800000E+00  1.60000000E+01  1.00800000E+00
  1.00800000E+00  1.60000000E+01  1.00800000E+00  1.00800000E+00  1.60000000E+01
  1.00800000E+00  1.00800000E+00  1.60000000E+01  1.00800000E+00  1.00800000E+00
  1.60000000E+01  1.00800000E+00  1.00800000E+00  1.60000000E+01  1.00800000E+00
  1.00800000E+00  1.60000000E+01  1.00800000E+00  1.00800000E+00  1.60000000E+01
  1.00800000E+00  1.00800000E+00  1.60000000E+01  1.00800000E+00  1.00800000E+00
  1.60000000E+01  1.00800000E+00  1.00800000E+00  1.60000000E+01  1.00800000E+00
  1.00800000E+00  1.60000000E+01  1.00800000E+00  1.00800000E+00  1.60000000E+01
  1.00800000E+00  1.00800000E+00  1.60000000E+01  1.00800000E+00  1.00800000E+00
  1.60000000E+01  1.00800000E+00  1.00800000E+00  1.60000000E+01  1.00800000E+00
  1.00800000E+00  1.60000000E+01  1.00800000E+00  1.00800000E+00  1.60000000E+01
  1.00800000E+00  1.00800000E+00  1.60000000E+01  1.00800000E+00  1.00800000E+00
  1.60000000E+01  1.00800000E+00  1.00800000E+00  1.60000000E+01  1.00800000E+00
  1.00800000E+00  1.60000000E+01  1.00800000E+00  1.00800000E+00  1.60000000E+01
  1.00800000E+00  1.00800000E+00  1.60000000E+01  1.00800000E+00  1.00800000E+00
  1.60000000E+01  1.00800000E+00  1.00800000E+00  1.60000000E+01  1.00800000E+00
  1.00800000E+00  1.60000000E+01  1.00800000E+00  1.00800000E+00  1.60000000E+01
  1.00800000E+00  1.00800000E+00  1.60000000E+01  1.00800000E+00  1.00800000E+00
  1.60000000E+01  1.00800000E+00  1.00800000E+00  1.60000000E+01  1.00800000E+00
  1.00800000E+00  1.60000000E+01  1.00800000E+00  1.00800000E+00  1.60000000E+01
  1.00800000E+00  1.00800000E+00  1.60000000E+01  1.00800000E+00  1.00800000E+00
  1.60000000E+01  1.00800000E+00  1.00800000E+00  1.60000000E+01  1.00800000E+00
  1.00800000E+00  1.60000000E+01  1.00800000E+00  1.00800000E+00  1.60000000E+01
  1.00800000E+00  1.00800000E+00  1.60000000E+01  1.00800000E+00  1.00800000E+00
  1.60000000E+01  1.00800000E+00  1.00800000E+00  1.60000000E+01  1.00800000E+00
  1.00800000E+00  1.60000000E+01  1.00800000E+00  1.00800000E+00  1.60000000E+01
  1.00800000E+00  1.00800000E+00  1.60000000E+01  1.00800000E+00  1.00800000E+00
  1.60000000E+01  1.00800000E+00  1.00800000E+00  1.60000000E+01  1.00800000E+00
  1.00800000E+00  1.60000000E+01  1.00800000E+00  1.00800000E+00  1.60000000E+01
  1.00800000E+00  1.00800000E+00  1.60000000E+01  1.00800000E+00  1.00800000E+00
  1.60000000E+01  1.00800000E+00  1.00800000E+00  1.60000000E+01  1.00800000E+00
  1.00800000E+00  1.60000000E+01  1.00800000E+00  1.00800000E+00  1.60000000E+01
  1.00800000E+00  1.00800000E+00  1.60000000E+01  1.00800000E+00  1.00800000E+00
  1.60000000E+01  1.00800000E+00  1.00800000E+00  1.60000000E+01  1.00800000E+00
  1.00800000E+00  1.60000000E+01  1.00800000E+00  1.00800000E+00  1.60000000E+01
  1.00800000E+00  1.00800000E+00  1.60000000E+01  1.00800000E+00  1.00800000E+00
  1.60000000E+01  1.00800000E+00  1.00800000E+00  1.60000000E+01  1.00800000E+00
  1.00800000E+00  1.60000000E+01  1.00800000E+00  1.00800000E+00  1.60000000E+01
  1.00800000E+00  1.00800000E+00  1.60000000E+01  1.00800000E+00  1.00800000E+00
  1.60000000E+01  1.00800000E+00  1.00800000E+00  1.60000000E+01  1.00800000E+00
  1.00800000E+00  1.60000000E+01  1.00800000E+00  1.00800000E+00  1.60000000E+01
  1.00800000E+00  1.00800000E+00  1.60000000E+01  1.00800000E+00  1.00800000E+00
  1.60000000E+01  1.00800000E+00  1.00800000E+00  1.60000000E+01  1.00800000E+00
  1.00800000E+00  1.60000000E+01  1.00800000E+00  1.00800000E+00  1.60000000E+01
  1.00800000E+00  1.00800000E+00  1.60000000E+01  1.00800000E+00  1.00800000E+00
  1.60000000E+01  1.00800000E+00  1.00800000E+00  1.60000000E+01  1.00800000E+00
  1.00800000E+00  1.60000000E+01  1.00800000E+00  1.00800000E+00  1.60000000E+01
  1.00800000E+00  1.00800000E+00  1.60000000E+01  1.00800000E+00  1.00800000E+00
  1.60000000E+01  1.00800000E+00  1.00800000E+00  1.60000000E+01  1.00800000E+00
  1.00800000E+00  1.60000000E+01  1.00800000E+00  1.00800000E+00  1.60000000E+01
  1.00800000E+00  1.00800000E+00  1.60000000E+01  1.00800000E+00  1.00800000E+00
  1.60000000E+01  1.00800000E+00  1.00800000E+00  1.60000000E+01  1.00800000E+00
  1.00800000E+00  1.60000000E+01  1.00800000E+00  1.00800000E+00  1.60000000E+01
  1.00800000E+00  1.00800000E+00  1.60000000E+01  1.00800000E+00  1.00800000E+00
  1.60000000E+01  1.00800000E+00  1.00800000E+00  1.60000000E+01  1.00800000E+00
  1.00800000E+00  1.60000000E+01  1.00800000E+00  1.00800000E+00  1.60000000E+01
  1.00800000E+00  1.00800000E+00  1.60000000E+01  1.00800000E+00  1.00800000E+00
  1.60000000E+01  1.00800000E+00  1.00800000E+00  1.60000000E+01  1.00800000E+00
  1.00800000E+00  1.60000000E+01  1.00800000E+00  1.00800000E+00  1.60000000E+01
  1.00800000E+00  1.00800000E+00  1.60000000E+01  1.00800000E+00  1.00800000E+00
  1.60000000E+01  1.00800000E+00  1.00800000E+00  1.60000000E+01  1.00800000E+00
  1.00800000E+00  1.60000000E+01  1.00800000E+00  1.00800000E+00  1.60000000E+01
  1.00800000E+00  1.00800000E+00  1.60000000E+01  1.00800000E+00  1.00800000E+00
  1.60000000E+01  1.00800000E+00  1.00800000E+00  1.60000000E+01  1.00800000E+00
  1.00800000E+00  1.60000000E+01  1.00800000E+00  1.00800000E+00  1.60000000E+01
  1.00800000E+00  1.00800000E+00  1.60000000E+01  1.00800000E+00  1.00800000E+00
  1.60000000E+01  1.00800000E+00  1.00800000E+00  1.60000000E+01  1.00800000E+00
  1.00800000E+00  1.60000000E+01  1.00800000E+00  1.00800000E+00  1.60000000E+01
  1.00800000E+00  1.00800000E+00  1.60000000E+01  1.00800000E+00  1.00800000E+00
  1.60000000E+01  1.00800000E+00  1.00800000E+00  1.60000000E+01  1.00800000E+00
  1.00800000E+00  1.60000000E+01  1.00800000E+00  1.00800000E+00  1.60000000E+01
  1.00800000E+00  1.00800000E+00  1.60000000E+01  1.00800000E+00  1.00800000E+00
  1.60000000E+01  1.00800000E+00  1.00800000E+00  1.60000000E+01  1.00800000E+00
  1.00800000E+00  1.60000000E+01  1.00800000E+00  1.00800000E+00  1.60000000E+01
  1.00800000E+00  1.00800000E+00  1.60000000E+01  1.00800000E+00  1.00800000E+00
  1.60000000E+01  1.00800000E+00  1.00800000E+00  1.60000000E+01  1.00800000E+00
  1.00800000E+00  1.60000000E+01  1.00800000E+00  1.00800000E+00  1.60000000E+01
  1.00800000E+00  1.00800000E+00  1.60000000E+01  1.00800000E+00  1.00800000E+00
  1.60000000E+01  1.00800000E+00  1.00800000E+00  1.60000000E+01  1.00800000E+00
  1.00800000E+00  1.60000000E+01  1.00800000E+00  1.00800000E+00  1.60000000E+01
  1.00800000E+00  1.00800000E+00  1.60000000E+01  1.00800000E+00  1.00800000E+00
  1.60000000E+01  1.00800000E+00  1.00800000E+00  1.60000000E+01  1.00800000E+00
  1.00800000E+00  1.60000000E+01  1.00800000E+00  1.00800000E+00  1.60000000E+01
  1.00800000E+00  1.00800000E+00  1.60000000E+01  1.00800000E+00  1.00800000E+00
  1.60000000E+01  1.00800000E+00  1.00800000E+00  1.60000000E+01  1.00800000E+00
  1.00800000E+00  1.60000000E+01  1.00800000E+00  1.00800000E+00  1.60000000E+01
  1.00800000E+00  1.00800000E+00  1.60000000E+01  1.00800000E+00  1.00800000E+00
  1.60000000E+01  1.00800000E+00  1.00800000E+00  1.60000000E+01  1.00800000E+00
  1.00800000E+00  1.60000000E+01  1.00800000E+00  1.00800000E+00  1.60000000E+01
  1.00800000E+00  1.00800000E+00  1.60000000E+01  1.00800000E+00  1.00800000E+00
  1.60000000E+01  1.00800000E+00  1.00800000E+00  1.60000000E+01  1.00800000E+00
  1.00800000E+00  1.60000000E+01  1.00800000E+00  1.00800000E+00  1.60000000E+01
  1.00800000E+00  1.00800000E+00  1.60000000E+01  1.00800000E+00  1.00800000E+00
  1.60000000E+01  1.00800000E+00  1.00800000E+00  1.60000000E+01  1.00800000E+00
  1.00800000E+00  1.60000000E+01  1.00800000E+00  1.00800000E+00  1.60000000E+01
  1.00800000E+00  1.00800000E+00  1.60000000E+01  1.00800000E+00  1.00800000E+00
  1.60000000E+01  1.00800000E+00  1.00800000E+00  1.60000000E+01  1.00800000E+00
  1.00800000E+00  1.60000000E+01  1.00800000E+00  1.00800000E+00  1.60000000E+01
  1.00800000E+00  1.00800000E+00  1.60000000E+01  1.00800000E+00  1.00800000E+00
  1.60000000E+01  1.00800000E+00  1.00800000E+00  1.60000000E+01  1.00800000E+00
  1.00800000E+00  1.60000000E+01  1.00800000E+00  1.00800000E+00  1.60000000E+01
  1.00800000E+00  1.00800000E+00  1.60000000E+01  1.00800000E+00  1.00800000E+00
  1.60000000E+01  1.00800000E+00  1.00800000E+00  1.60000000E+01  1.00800000E+00
  1.00800000E+00  1.60000000E+01  1.00800000E+00  1.00800000E+00  1.60000000E+01
  1.00800000E+00  1.00800000E+00  1.60000000E+01  1.00800000E+00  1.00800000E+00
  1.60000000E+01  1.00800000E+00  1.00800000E+00  1.60000000E+01  1.00800000E+00
  1.00800000E+00  1.60000000E+01  1.00800000E+00  1.00800000E+00  1.60000000E+01
  1.00800000E+00  1.00800000E+00  1.60000000E+01  1.00800000E+00  1.00800000E+00
  1.60000000E+01  1.00800000E+00  1.00800000E+00  1.60000000E+01  1.00800000E+00
  1.00800000E+00  1.60000000E+01  1.00800000E+00  1.00800000E+00  1.60000000E+01
  1.00800000E+00  1.00800000E+00  1.60000000E+01  1.00800000E+00  1.00800000E+00
  1.60000000E+01  1.00800000E+00  1.00800000E+00  1.60000000E+01  1.00800000E+00
  1.00800000E+00  1.60000000E+01  1.00800000E+00  1.00800000E+00  1.60000000E+01
  1.00800000E+00  1.00800000E+00  1.60000000E+01  1.00800000E+00  1.00800000E+00
  1.60000000E+01  1.00800000E+00  1.00800000E+00  1.60000000E+01  1.00800000E+00
  1.00800000E+00  1.60000000E+01  1.00800000E+00  1.00800000E+00  1.60000000E+01
  1.00800000E+00  1.00800000E+00  1.60000000E+01  1.00800000E+00  1.00800000E+00
  1.60000000E+01  1.00800000E+00  1.00800000E+00  1.60000000E+01  1.00800000E+00
  1.00800000E+00  1.60000000E+01  1.00800000E+00  1.00800000E+00  1.60000000E+01
  1.00800000E+00  1.00800000E+00  1.60000000E+01  1.00800000E+00  1.00800000E+00
  1.60000000E+01  1.00800000E+00  1.00800000E+00  1.60000000E+01  1.00800000E+00
  1.00800000E+00  1.60000000E+01  1.00800000E+00  1.00800000E+00  1.60000000E+01
  1.00800000E+00  1.00800000E+00  1.60000000E+01  1.00800000E+00  1.00800000E+00
  1.60000000E+01  1.00800000E+00  1.00800000E+00  1.60000000E+01  1.00800000E+00
  1.00800000E+00  1.60000000E+01  1.00800000E+00  1.00800000E+00  1.60000000E+01
  1.00800000E+00  1.00800000E+00  1.60000000E+01  1.00800000E+00  1.00800000E+00
  1.60000000E+01  1.00800000E+00  1.00800000E+00  1.60000000E+01  1.00800000E+00
  1.00800000E+00  1.60000000E+01  1.00800000E+00  1.00800000E+00  1.60000000E+01
  1.00800000E+00  1.00800000E+00  1.60000000E+01  1.00800000E+00  1.00800000E+00
  1.60000000E+01  1.00800000E+00  1.00800000E+00  1.60000000E+01  1.00800000E+00
  1.00800000E+00  1.60000000E+01  1.00800000E+00  1.00800000E+00  1.60000000E+01
  1.00800000E+00  1.00800000E+00  1.60000000E+01  1.00800000E+00  1.00800000E+00
  1.60000000E+01  1.00800000E+00  1.00800000E+00  1.60000000E+01  1.00800000E+00
  1.00800000E+00  1.60000000E+01  1.00800000E+00  1.00800000E+00  1.60000000E+01
  1.00800000E+00  1.00800000E+00  1.60000000E+01  1.00800000E+00  1.00800000E+00
  1.60000000E+01  1.00800000E+00  1.00800000E+00  1.60000000E+01  1.00800000E+00
  1.00800000E+00  1.60000000E+01  1.00800000E+00  1.00800000E+00  1.60000000E+01
  1.00800000E+00  1.00800000E+00  1.60000000E+01  1.00800000E+00  1.00800000E+00
  1.60000000E+01  1.00800000E+00  1.00800000E+00  1.60000000E+01  1.00800000E+00
  1.00800000E+00  1.60000000E+01  1.00800000E+00  1.00800000E+00  1.60000000E+01
  1.00800000E+00  1.00800000E+00  1.60000000E+01  1.00800000E+00  1.00800000E+00
  1.60000000E+01  1.00800000E+00  1.00800000E+00  1.60000000E+01  1.00800000E+00
  1.00800000E+00  1.60000000E+01  1.00800000E+00  1.00800000E+00  1.60000000E+01
  1.00800000E+00  1.00800000E+00  1.60000000E+01  1.00800000E+00  1.00800000E+00
  1.60000000E+01  1.00800000E+00  1.00800000E+00  1.60000000E+01  1.00800000E+00
  1.00800000E+00  1.60000000E+01  1.00800000E+00  1.00800000E+00  1.60000000E+01
  1.00800000E+00  1.00800000E+00  1.60000000E+01  1.00800000E+00  1.00800000E+00
  1.60000000E+01  1.00800000E+00  1.00800000E+00  1.60000000E+01  1.00800000E+00
  1.00800000E+00  1.60000000E+01  1.00800000E+00  1.00800000E+00  1.60000000E+01
  1.00800000E+00  1.00800000E+00  1.60000000E+01  1.00800000E+00  1.00800000E+00
  1.60000000E+01  1.00800000E+00  1.00800000E+00  1.60000000E+01  1.00800000E+00
  1.00800000E+00  1.60000000E+01  1.00800000E+00  1.00800000E+00  1.60000000E+01
  1.00800000E+00  1.00800000E+00  1.60000000E+01  1.00800000E+00  1.00800000E+00
  1.60000000E+01  1.00800000E+00  1.00800000E+00  1.60000000E+01  1.00800000E+00
  1.00800000E+00  1.60000000E+01  1.00800000E+00  1.00800000E+00  1.60000000E+01
  1.00800000E+00  1.00800000E+00  1.60000000E+01  1.00800000E+00  1.00800000E+00
  1.60000000E+01  1.00800000E+00  1.00800000E+00  1.60000000E+01  1.00800000E+00
  1.00800000E+00  1.60000000E+01  1.00800000E+00  1.00800000E+00  1.60000000E+01
  1.00800000E+00  1.00800000E+00  1.60000000E+01  1.00800000E+00  1.00800000E+00
  1.60000000E+01  1.00800000E+00  1.00800000E+00  1.60000000E+01  1.00800000E+00
  1.00800000E+00  1.60000000E+01  1.00800000E+00  1.00800000E+00  1.60000000E+01
  1.00800000E+00  1.00800000E+00  1.60000000E+01  1.00800000E+00  1.00800000E+00
  1.60000000E+01  1.00800000E+00  1.00800000E+00  1.60000000E+01  1.00800000E+00
  1.00800000E+00  1.60000000E+01  1.00800000E+00  1.00800000E+00  1.60000000E+01
  1.00800000E+00  1.00800000E+00  1.60000000E+01  1.00800000E+00  1.00800000E+00
  1.60000000E+01  1.00800000E+00  1.00800000E+00  1.60000000E+01  1.00800000E+00
  1.00800000E+00  1.60000000E+01  1.00800000E+00  1.00800000E+00  1.60000000E+01
  1.00800000E+00  1.00800000E+00  1.60000000E+01  1.00800000E+00  1.00800000E+00
  1.60000000E+01  1.00800000E+00  1.00800000E+00  1.60000000E+01  1.00800000E+00
  1.00800000E+00  1.60000000E+01  1.00800000E+00  1.00800000E+00  1.60000000E+01
  1.00800000E+00  1.00800000E+00  1.60000000E+01  1.00800000E+00  1.00800000E+00
  1.60000000E+01  1.00800000E+00  1.00800000E+00  1.60000000E+01  1.00800000E+00
  1.00800000E+00  1.60000000E+01  1.00800000E+00  1.00800000E+00  1.60000000E+01
  1.00800000E+00  1.00800000E+00  1.60000000E+01  1.00800000E+00  1.00800000E+00
  1.60000000E+01  1.00800000E+00  1.00800000E+00  1.60000000E+01  1.00800000E+00
  1.00800000E+00  1.60000000E+01  1.00800000E+00  1.00800000E+00  1.60000000E+01
  1.00800000E+00  1.00800000E+00  1.60000000E+01  1.00800000E+00  1.00800000E+00
  1.60000000E+01  1.00800000E+00  1.00800000E+00  1.60000000E+01  1.00800000E+00
  1.00800000E+00  1.60000000E+01  1.00800000E+00  1.00800000E+00  1.60000000E+01
  1.00800000E+00  1.00800000E+00  1.60000000E+01  1.00800000E+00  1.00800000E+00
  1.60000000E+01  1.00800000E+00  1.00800000E+00  1.60000000E+01  1.00800000E+00
  1.00800000E+00  1.60000000E+01  1.00800000E+00  1.00800000E+00  1.60000000E+01
  1.00800000E+00  1.00800000E+00  1.60000000E+01  1.00800000E+00  1.00800000E+00
  1.60000000E+01  1.00800000E+00  1.00800000E+00  1.60000000E+01  1.00800000E+00
  1.00800000E+00  1.60000000E+01  1.00800000E+00  1.00800000E+00  1.60000000E+01
  1.00800000E+00  1.00800000E+00  1.60000000E+01  1.00800000E+00  1.00800000E+00
  1.60000000E+01  1.00800000E+00  1.00800000E+00  1.60000000E+01  1.00800000E+00
  1.00800000E+00  1.60000000E+01  1.00800000E+00  1.00800000E+00  1.60000000E+01
  1.00800000E+00  1.00800000E+00  1.60000000E+01  1.00800000E+00  1.00800000E+00
  1.60000000E+01  1.00800000E+00  1.00800000E+00  1.60000000E+01  1.00800000E+00
  1.00800000E+00  1.60000000E+01  1.00800000E+00  1.00800000E+00  1.60000000E+01
  1.00800000E+00  1.00800000E+00  1.60000000E+01  1.00800000E+00  1.00800000E+00
  1.60000000E+01  1.00800000E+00  1.00800000E+00  1.60000000E+01  1.00800000E+00
  1.00800000E+00  1.60000000E+01  1.00800000E+00  1.00800000E+00  1.60000000E+01
  1.00800000E+00  1.00800000E+00  1.60000000E+01  1.00800000E+00  1.00800000E+00
  1.60000000E+01  1.00800000E+00  1.00800000E+00  1.60000000E+01  1.00800000E+00
  1.00800000E+00  1.60000000E+01  1.00800000E+00  1.00800000E+00  1.60000000E+01
  1.00800000E+00  1.00800000E+00  1.60000000E+01  1.00800000E+00  1.00800000E+00
  1.60000000E+01  1.00800000E+00  1.00800000E+00  1.60000000E+01  1.00800000E+00
  1.00800000E+00  1.60000000E+01  1.00800000E+00  1.00800000E+00  1.60000000E+01
  1.00800000E+00  1.00800000E+00  1.60000000E+01  1.00800000E+00  1.00800000E+00
  1.60000000E+01  1.00800000E+00  1.00800000E+00  1.60000000E+01  1.00800000E+00
  1.00800000E+00  1.60000000E+01  1.00800000E+00  1.00800000E+00  1.60000000E+01
  1.00800000E+00  1.00800000E+00  1.60000000E+01  1.00800000E+00  1.00800000E+00
  1.60000000E+01  1.00800000E+00  1.00800000E+00  1.60000000E+01  1.00800000E+00
  1.00800000E+00  1.60000000E+01  1.00800000E+00  1.00800000E+00  1.60000000E+01
  1.00800000E+00  1.00800000E+00  1.60000000E+01  1.00800000E+00  1.00800000E+00
  1.60000000E+01  1.00800000E+00  1.00800000E+00  1.60000000E+01  1.00800000E+00
  1.00800000E+00  1.60000000E+01  1.00800000E+00  1.00800000E+00  1.60000000E+01
  1.00800000E+00  1.00800000E+00  1.60000000E+01  1.00800000E+00  1.00800000E+00
  1.60000000E+01  1.00800000E+00  1.00800000E+00  1.60000000E+01  1.00800000E+00
  1.00800000E+00  1.60000000E+01  1.00800000E+00  1.00800000E+00  1.60000000E+01
  1.00800000E+00  1.00800000E+00  1.60000000E+01  1.00800000E+00  1.00800000E+00
  1.60000000E+01  1.00800000E+00  1.00800000E+00  1.60000000E+01  1.00800000E+00
  1.00800000E+00  1.60000000E+01  1.00800000E+00  1.00800000E+00  1.60000000E+01
  1.00800000E+00  1.00800000E+00  1.60000000E+01  1.00800000E+00  1.00800000E+00
  1.60000000E+01  1.00800000E+00  1.00800000E+00  1.60000000E+01  1.00800000E+00
  1.00800000E+00  1.60000000E+01  1.00800000E+00  1.00800000E+00  1.60000000E+01
  1.00800000E+00  1.00800000E+00  1.60000000E+01  1.00800000E+00  1.00800000E+00
  1.60000000E+01  1.00800000E+00  1.00800000E+00  1.60000000E+01  1.00800000E+00
  1.00800000E+00  1.60000000E+01  1.00800000E+00  1.00800000E+00  1.60000000E+01
  1.00800000E+00  1.00800000E+00  1.60000000E+01  1.00800000E+00  1.00800000E+00
  1.60000000E+01  1.00800000E+00  1.00800000E+00  1.60000000E+01  1.00800000E+00
  1.00800000E+00  1.60000000E+01  1.00800000E+00  1.00800000E+00  1.60000000E+01
  1.00800000E+00  1.00800000E+00  1.60000000E+01  1.00800000E+00  1.00800000E+00
  1.60000000E+01  1.00800000E+00  1.00800000E+00  1.60000000E+01  1.00800000E+00
  1.00800000E+00  1.60000000E+01  1.00800000E+00  1.00800000E+00  1.60000000E+01
  1.00800000E+00  1.00800000E+00  1.60000000E+01  1.00800000E+00  1.00800000E+00
  1.60000000E+01  1.00800000E+00  1.00800000E+00  1.60000000E+01  1.00800000E+00
  1.00800000E+00  1.60000000E+01  1.00800000E+00  1.00800000E+00  1.60000000E+01
  1.00800000E+00  1.00800000E+00  1.60000000E+01  1.00800000E+00  1.00800000E+00
  1.60000000E+01  1.00800000E+00  1.00800000E+00  1.60000000E+01  1.00800000E+00
  1.00800000E+00  1.60000000E+01  1.00800000E+00  1.00800000E+00  1.60000000E+01
  1.00800000E+00  1.00800000E+00  1.60000000E+01  1.00800000E+00  1.00800000E+00
  1.60000000E+01  1.00800000E+00  1.00800000E+00  1.60000000E+01  1.00800000E+00
  1.00800000E+00  1.60000000E+01  1.00800000E+00  1.00800000E+00  1.60000000E+01
  1.00800000E+00  1.00800000E+00  1.60000000E+01  1.00800000E+00  1.00800000E+00
  1.60000000E+01  1.00800000E+00  1.00800000E+00  1.60000000E+01  1.00800000E+00
  1.00800000E+00  1.60000000E+01  1.00800000E+00  1.00800000E+00  1.60000000E+01
  1.00800000E+00  1.00800000E+00  1.60000000E+01  1.00800000E+00  1.00800000E+00
  1.60000000E+01  1.00800000E+00  1.00800000E+00  1.60000000E+01  1.00800000E+00
  1.00800000E+00  1.60000000E+01  1.00800000E+00  1.00800000E+00  1.60000000E+01
  1.00800000E+00  1.00800000E+00  1.60000000E+01  1.00800000E+00  1.00800000E+00
  1.60000000E+01  1.00800000E+00  1.00800000E+00  1.60000000E+01  1.00800000E+00
  1.00800000E+00  1.60000000E+01  1.00800000E+00  1.00800000E+00  1.60000000E+01
  1.00800000E+00  1.00800000E+00  1.60000000E+01  1.00800000E+00  1.00800000E+00
  1.60000000E+01  1.00800000E+00  1.00800000E+00  1.60000000E+01  1.00800000E+00
  1.00800000E+00  1.60000000E+01  1.00800000E+00  1.00800000E+00  1.60000000E+01
  1.00800000E+00  1.00800000E+00  1.60000000E+01  1.00800000E+00  1.00800000E+00
  1.60000000E+01  1.00800000E+00  1.00800000E+00  1.60000000E+01  1.00800000E+00
  1.00800000E+00  1.60000000E+01  1.00800000E+00  1.00800000E+00  1.60000000E+01
  1.00800000E+00  1.00800000E+00  1.60000000E+01  1.00800000E+00  1.00800000E+00
  1.60000000E+01  1.00800000E+00  1.00800000E+00  1.60000000E+01  1.00800000E+00
  1.00800000E+00  1.60000000E+01  1.00800000E+00  1.00800000E+00  1.60000000E+01
  1.00800000E+00  1.00800000E+00  1.60000000E+01  1.00800000E+00  1.00800000E+00
  1.60000000E+01  1.00800000E+00  1.00800000E+00  1.60000000E+01  1.00800000E+00
  1.00800000E+00  1.60000000E+01  1.00800000E+00  1.00800000E+00  1.60000000E+01
  1.00800000E+00  1.00800000E+00  1.60000000E+01  1.00800000E+00  1.00800000E+00
  1.60000000E+01  1.00800000E+00  1.00800000E+00  1.60000000E+01  1.00800000E+00
  1.00800000E+00  1.60000000E+01  1.00800000E+00  1.00800000E+00  1.60000000E+01
  1.00800000E+00  1.00800000E+00  1.60000000E+01  1.00800000E+00  1.00800000E+00
  1.60000000E+01  1.00800000E+00  1.00800000E+00  1.60000000E+01  1.00800000E+00
  1.00800000E+00  1.60000000E+01  1.00800000E+00  1.00800000E+00  1.60000000E+01
  1.00800000E+00  1.00800000E+00  1.60000000E+01  1.00800000E+00  1.00800000E+00
  1.60000000E+01  1.00800000E+00  1.00800000E+00  1.60000000E+01  1.00800000E+00
  1.00800000E+00  1.60000000E+01  1.00800000E+00  1.00800000E+00  1.60000000E+01
  1.00800000E+00  1.00800000E+00  1.60000000E+01  1.00800000E+00  1.00800000E+00
  1.60000000E+01  1.00800000E+00  1.00800000E+00  1.60000000E+01  1.00800000E+00
  1.00800000E+00  1.60000000E+01  1.00800000E+00  1.00800000E+00  1.60000000E+01
  1.00800000E+00  1.00800000E+00  1.60000000E+01  1.00800000E+00  1.00800000E+00
  1.60000000E+01  1.00800000E+00  1.00800000E+00  1.60000000E+01  1.00800000E+00
  1.00800000E+00  1.60000000E+01  1.00800000E+00  1.00800000E+00  1.60000000E+01
  1.00800000E+00  1.00800000E+00  1.60000000E+01  1.00800000E+00  1.00800000E+00
  1.60000000E+01  1.00800000E+00  1.00800000E+00  1.60000000E+01  1.00800000E+00
  1.00800000E+00  1.60000000E+01  1.00800000E+00  1.00800000E+00  1.60000000E+01
  1.00800000E+00  1.00800000E+00  1.60000000E+01  1.00800000E+00  1.00800000E+00
  1.60000000E+01  1.00800000E+00  1.00800000E+00  1.60000000E+01  1.00800000E+00
  1.00800000E+00  1.60000000E+01  1.00800000E+00  1.00800000E+00  1.60000000E+01
  1.00800000E+00  1.00800000E+00  1.60000000E+01  1.00800000E+00  1.00800000E+00
  1.60000000E+01  1.00800000E+00  1.00800000E+00  1.60000000E+01  1.00800000E+00
  1.00800000E+00  1.60000000E+01  1.00800000E+00  1.00800000E+00  1.60000000E+01
  1.00800000E+00  1.00800000E+00  1.60000000E+01  1.00800000E+00  1.00800000E+00
  1.60000000E+01  1.00800000E+00  1.00800000E+00  1.60000000E+01  1.00800000E+00
  1.00800000E+00  1.60000000E+01  1.00800000E+00  1.00800000E+00  1.60000000E+01
  1.00800000E+00  1.00800000E+00  1.60000000E+01  1.00800000E+00  1.00800000E+00
  1.60000000E+01  1.00800000E+00  1.00800000E+00  1.60000000E+01  1.00800000E+00
  1.00800000E+00  1.60000000E+01  1.00800000E+00  1.00800000E+00  1.60000000E+01
  1.00800000E+00  1.00800000E+00  1.60000000E+01  1.00800000E+00  1.00800000E+00
  1.60000000E+01  1.00800000E+00  1.00800000E+00  1.60000000E+01  1.00800000E+00
  1.00800000E+00  1.60000000E+01  1.00800000E+00  1.00800000E+00  1.60000000E+01
  1.00800000E+00  1.00800000E+00  1.60000000E+01  1.00800000E+00  1.00800000E+00
  1.60000000E+01  1.00800000E+00  1.00800000E+00  1.60000000E+01  1.00800000E+00
  1.00800000E+00  1.60000000E+01  1.00800000E+00  1.00800000E+00  1.60000000E+01
  1.00800000E+00  1.00800000E+00  1.60000000E+01  1.00800000E+00  1.00800000E+00
  1.60000000E+01  1.00800000E+00  1.00800000E+00  1.60000000E+01  1.00800000E+00
  1.00800000E+00  1.60000000E+01  1.00800000E+00  1.00800000E+00  1.60000000E+01
  1.00800000E+00  1.00800000E+00  1.60000000E+01  1.00800000E+00  1.00800000E+00
  1.60000000E+01  1.00800000E+00  1.00800000E+00  1.60000000E+01  1.00800000E+00
  1.00800000E+00  1.60000000E+01  1.00800000E+00  1.00800000E+00  1.60000000E+01
  1.00800000E+00  1.00800000E+00  1.60000000E+01  1.00800000E+00  1.00800000E+00
  1.60000000E+01  1.00800000E+00  1.00800000E+00  1.60000000E+01  1.00800000E+00
  1.00800000E+00  1.60000000E+01  1.00800000E+00  1.00800000E+00  1.60000000E+01
  1.00800000E+00  1.00800000E+00  1.60000000E+01  1.00800000E+00  1.00800000E+00
  1.60000000E+01  1.00800000E+00  1.00800000E+00  1.60000000E+01  1.00800000E+00
  1.00800000E+00  1.60000000E+01  1.00800000E+00  1.00800000E+00  1.60000000E+01
  1.00800000E+00  1.00800000E+00  1.60000000E+01  1.00800000E+00  1.00800000E+00
  1.60000000E+01  1.00800000E+00  1.00800000E+00  1.60000000E+01  1.00800000E+00
  1.00800000E+00  1.60000000E+01  1.00800000E+00  1.00800000E+00  1.60000000E+01
  1.00800000E+00  1.00800000E+00  1.60000000E+01  1.00800000E+00  1.00800000E+00
  1.60000000E+01  1.00800000E+00  1.00800000E+00  1.60000000E+01  1.00800000E+00
  1.00800000E+00  1.60000000E+01  1.00800000E+00  1.00800000E+00  1.60000000E+01
  1.00800000E+00  1.00800000E+00  1.60000000E+01  1.00800000E+00  1.00800000E+00
  1.60000000E+01  1.00800000E+00  1.00800000E+00  1.60000000E+01  1.00800000E+00
  1.00800000E+00  1.60000000E+01  1.00800000E+00  1.00800000E+00  1.60000000E+01
  1.00800000E+00  1.00800000E+00  1.60000000E+01  1.00800000E+00  1.00800000E+00
  1.60000000E+01  1.00800000E+00  1.00800000E+00  1.60000000E+01  1.00800000E+00
  1.00800000E+00  1.60000000E+01  1.00800000E+00  1.00800000E+00  1.60000000E+01
  1.00800000E+00  1.00800000E+00  1.60000000E+01  1.00800000E+00  1.00800000E+00
  1.60000000E+01  1.00800000E+00  1.00800000E+00  1.60000000E+01  1.00800000E+00
  1.00800000E+00  1.60000000E+01  1.00800000E+00  1.00800000E+00  1.60000000E+01
  1.00800000E+00  1.00800000E+00  1.60000000E+01  1.00800000E+00  1.00800000E+00
  1.60000000E+01  1.00800000E+00  1.00800000E+00  1.60000000E+01  1.00800000E+00
  1.00800000E+00  1.60000000E+01  1.00800000E+00  1.00800000E+00  1.60000000E+01
  1.00800000E+00  1.00800000E+00  1.60000000E+01  1.00800000E+00  1.00800000E+00
  1.60000000E+01  1.00800000E+00  1.00800000E+00  1.60000000E+01  1.00800000E+00
  1.00800000E+00  1.60000000E+01  1.00800000E+00  1.00800000E+00  1.60000000E+01
  1.00800000E+00  1.00800000E+00  1.60000000E+01  1.00800000E+00  1.00800000E+00
  1.60000000E+01  1.00800000E+00  1.00800000E+00  1.60000000E+01  1.00800000E+00
  1.00800000E+00  1.60000000E+01  1.00800000E+00  1.00800000E+00  1.60000000E+01
  1.00800000E+00  1.00800000E+00  1.60000000E+01  1.00800000E+00  1.00800000E+00
  1.60000000E+01  1.00800000E+00  1.00800000E+00  1.60000000E+01  1.00800000E+00
  1.00800000E+00  1.60000000E+01  1.00800000E+00  1.00800000E+00  1.60000000E+01
  1.00800000E+00  1.00800000E+00  1.60000000E+01  1.00800000E+00  1.00800000E+00
  1.60000000E+01  1.00800000E+00  1.00800000E+00  1.60000000E+01  1.00800000E+00
  1.00800000E+00  1.60000000E+01  1.00800000E+00  1.00800000E+00  1.60000000E+01
  1.00800000E+00  1.00800000E+00  1.60000000E+01  1.00800000E+00  1.00800000E+00
  1.60000000E+01  1.00800000E+00  1.00800000E+00  1.60000000E+01  1.00800000E+00
  1.00800000E+00  1.60000000E+01  1.00800000E+00  1.00800000E+00  1.60000000E+01
  1.00800000E+00  1.00800000E+00  1.60000000E+01  1.00800000E+00  1.00800000E+00
  1.60000000E+01  1.00800000E+00  1.00800000E+00  1.60000000E+01  1.00800000E+00
  1.00800000E+00  1.60000000E+01  1.00800000E+00  1.00800000E+00  1.60000000E+01
  1.00800000E+00  1.00800000E+00  1.60000000E+01  1.00800000E+00  1.00800000E+00
  1.60000000E+01  1.00800000E+00  1.00800000E+00  1.60000000E+01  1.00800000E+00
  1.00800000E+00  1.60000000E+01  1.00800000E+00  1.00800000E+00  1.60000000E+01
  1.00800000E+00  1.00800000E+00  1.60000000E+01  1.00800000E+00  1.00800000E+00
  1.60000000E+01  1.00800000E+00  1.00800000E+00  1.60000000E+01  1.00800000E+00
  1.00800000E+00  1.60000000E+01  1.00800000E+00  1.00800000E+00  1.60000000E+01
  1.00800000E+00  1.00800000E+00  1.60000000E+01  1.00800000E+00  1.00800000E+00
  1.60000000E+01  1.00800000E+00  1.00800000E+00  1.60000000E+01  1.00800000E+00
  1.00800000E+00  1.60000000E+01  1.00800000E+00  1.00800000E+00  1.60000000E+01
  1.00800000E+00  1.00800000E+00  1.60000000E+01  1.00800000E+00  1.00800000E+00
  1.60000000E+01  1.00800000E+00  1.00800000E+00  1.60000000E+01  1.00800000E+00
  1.00800000E+00  1.60000000E+01  1.00800000E+00  1.00800000E+00  1.60000000E+01
  1.00800000E+00  1.00800000E+00  1.60000000E+01  1.00800000E+00  1.00800000E+00
  1.60000000E+01  1.00800000E+00  1.00800000E+00  1.60000000E+01  1.00800000E+00
  1.00800000E+00  1.60000000E+01  1.00800000E+00  1.00800000E+00  1.60000000E+01
  1.00800000E+00  1.00800000E+00  1.60000000E+01  1.00800000E+00  1.00800000E+00
  1.60000000E+01  1.00800000E+00  1.00800000E+00  1.60000000E+01  1.00800000E+00
  1.00800000E+00  1.60000000E+01  1.00800000E+00  1.00800000E+00  1.60000000E+01
  1.00800000E+00  1.00800000E+00  1.60000000E+01  1.00800000E+00  1.00800000E+00
  1.60000000E+01  1.00800000E+00  1.00800000E+00  1.60000000E+01  1.00800000E+00
  1.00800000E+00  1.60000000E+01  1.00800000E+00  1.00800000E+00  1.60000000E+01
  1.00800000E+00  1.00800000E+00  1.60000000E+01  1.00800000E+00  1.00800000E+00
  1.60000000E+01  1.00800000E+00  1.00800000E+00  1.60000000E+01  1.00800000E+00
  1.00800000E+00  1.60000000E+01  1.00800000E+00  1.00800000E+00  1.60000000E+01
  1.00800000E+00  1.00800000E+00  1.60000000E+01  1.00800000E+00  1.00800000E+00
  1.60000000E+01  1.00800000E+00  1.00800000E+00  1.60000000E+01  1.00800000E+00
  1.00800000E+00  1.60000000E+01  1.00800000E+00  1.00800000E+00  1.60000000E+01
  1.00800000E+00  1.00800000E+00  1.60000000E+01  1.00800000E+00  1.00800000E+00
  1.60000000E+01  1.00800000E+00  1.00800000E+00  1.60000000E+01  1.00800000E+00
  1.00800000E+00  1.60000000E+01  1.00800000E+00  1.00800000E+00  1.60000000E+01
  1.00800000E+00  1.00800000E+00  1.60000000E+01  1.00800000E+00  1.00800000E+00
  1.60000000E+01  1.00800000E+00  1.00800000E+00  1.60000000E+01  1.00800000E+00
  1.00800000E+00  1.60000000E+01  1.00800000E+00  1.00800000E+00  1.60000000E+01
  1.00800000E+00  1.00800000E+00  1.60000000E+01  1.00800000E+00  1.00800000E+00
  1.60000000E+01  1.00800000E+00  1.00800000E+00  1.60000000E+01  1.00800000E+00
  1.00800000E+00  1.60000000E+01  1.00800000E+00  1.00800000E+00  1.60000000E+01
  1.00800000E+00  1.00800000E+00  1.60000000E+01  1.00800000E+00  1.00800000E+00
  1.60000000E+01  1.00800000E+00  1.00800000E+00  1.60000000E+01  1.00800000E+00
  1.00800000E+00  1.60000000E+01  1.00800000E+00  1.00800000E+00  1.60000000E+01
  1.00800000E+00  1.00800000E+00  1.60000000E+01  1.00800000E+00  1.00800000E+00
  1.60000000E+01  1.00800000E+00  1.00800000E+00  1.60000000E+01  1.00800000E+00
  1.00800000E+00  1.60000000E+01  1.00800000E+00  1.00800000E+00  1.60000000E+01
  1.00800000E+00  1.00800000E+00  1.60000000E+01  1.00800000E+00  1.00800000E+00
  1.60000000E+01  1.00800000E+00  1.00800000E+00  1.60000000E+01  1.00800000E+00
  1.00800000E+00  1.60000000E+01  1.00800000E+00  1.00800000E+00  1.60000000E+01
  1.00800000E+00  1.00800000E+00  1.60000000E+01  1.00800000E+00  1.00800000E+00
  1.60000000E+01  1.00800000E+00  1.00800000E+00  1.60000000E+01  1.00800000E+00
  1.00800000E+00  1.60000000E+01  1.00800000E+00  1.00800000E+00  1.60000000E+01
  1.00800000E+00  1.00800000E+00  1.60000000E+01  1.00800000E+00  1.00800000E+00
  1.60000000E+01  1.00800000E+00  1.00800000E+00  1.60000000E+01  1.00800000E+00
  1.00800000E+00  1.60000000E+01  1.00800000E+00  1.00800000E+00  1.60000000E+01
  1.00800000E+00  1.00800000E+00  1.60000000E+01  1.00800000E+00  1.00800000E+00
  1.60000000E+01  1.00800000E+00  1.00800000E+00  1.60000000E+01  1.00800000E+00
  1.00800000E+00  1.60000000E+01  1.00800000E+00  1.00800000E+00  1.60000000E+01
  1.00800000E+00  1.00800000E+00  1.60000000E+01  1.00800000E+00  1.00800000E+00
  1.60000000E+01  1.00800000E+00  1.00800000E+00  1.60000000E+01  1.00800000E+00
  1.00800000E+00  1.60000000E+01  1.00800000E+00  1.00800000E+00  1.60000000E+01
  1.00800000E+00  1.00800000E+00  1.60000000E+01  1.00800000E+00  1.00800000E+00
  1.60000000E+01  1.00800000E+00  1.00800000E+00  1.60000000E+01  1.00800000E+00
  1.00800000E+00  1.60000000E+01  1.00800000E+00  1.00800000E+00  1.60000000E+01
  1.00800000E+00  1.00800000E+00  1.60000000E+01  1.00800000E+00  1.00800000E+00
  1.60000000E+01  1.00800000E+00  1.00800000E+00  1.60000000E+01  1.00800000E+00
  1.00800000E+00  1.60000000E+01  1.00800000E+00  1.00800000E+00  1.60000000E+01
  1.00800000E+00  1.00800000E+00  1.60000000E+01  1.00800000E+00  1.00800000E+00
  1.60000000E+01  1.00800000E+00  1.00800000E+00  1.60000000E+01  1.00800000E+00
  1.00800000E+00  1.60000000E+01  1.00800000E+00  1.00800000E+00  1.60000000E+01
  1.00800000E+00  1.00800000E+00  1.60000000E+01  1.00800000E+00  1.00800000E+00
  1.60000000E+01  1.00800000E+00  1.00800000E+00  1.60000000E+01  1.00800000E+00
  1.00800000E+00  1.60000000E+01  1.00800000E+00  1.00800000E+00  1.60000000E+01
  1.00800000E+00  1.00800000E+00  1.60000000E+01  1.00800000E+00  1.00800000E+00
  1.60000000E+01  1.00800000E+00  1.00800000E+00  1.60000000E+01  1.00800000E+00
  1.00800000E+00  1.60000000E+01  1.00800000E+00  1.00800000E+00  1.60000000E+01
  1.00800000E+00  1.00800000E+00  1.60000000E+01  1.00800000E+00  1.00800000E+00
  1.60000000E+01  1.00800000E+00  1.00800000E+00  1.60000000E+01  1.00800000E+00
  1.00800000E+00  1.60000000E+01  1.00800000E+00  1.00800000E+00  1.60000000E+01
  1.00800000E+00  1.00800000E+00  1.60000000E+01  1.00800000E+00  1.00800000E+00
  1.60000000E+01  1.00800000E+00  1.00800000E+00  1.60000000E+01  1.00800000E+00
  1.00800000E+00  1.60000000E+01  1.00800000E+00  1.00800000E+00  1.60000000E+01
  1.00800000E+00  1.00800000E+00  1.60000000E+01  1.00800000E+00  1.00800000E+00
  1.60000000E+01  1.00800000E+00  1.00800000E+00  1.60000000E+01  1.00800000E+00
  1.00800000E+00  1.60000000E+01  1.00800000E+00  1.00800000E+00  1.60000000E+01
  1.00800000E+00  1.00800000E+00  1.60000000E+01  1.00800000E+00  1.00800000E+00
  1.60000000E+01  1.00800000E+00  1.00800000E+00  1.60000000E+01  1.00800000E+00
  1.00800000E+00  1.60000000E+01  1.00800000E+00  1.00800000E+00  1.60000000E+01
  1.00800000E+00  1.00800000E+00  1.60000000E+01  1.00800000E+00  1.00800000E+00
  1.60000000E+01  1.00800000E+00  1.00800000E+00  1.60000000E+01  1.00800000E+00
  1.00800000E+00  1.60000000E+01  1.00800000E+00  1.00800000E+00  1.60000000E+01
  1.00800000E+00  1.00800000E+00  1.60000000E+01  1.00800000E+00  1.00800000E+00
  1.60000000E+01  1.00800000E+00  1.00800000E+00  1.60000000E+01  1.00800000E+00
  1.00800000E+00  1.60000000E+01  1.00800000E+00  1.00800000E+00  1.60000000E+01
  1.00800000E+00  1.00800000E+00  1.60000000E+01  1.00800000E+00  1.00800000E+00
  1.60000000E+01  1.00800000E+00  1.00800000E+00  1.60000000E+01  1.00800000E+00
  1.00800000E+00  1.60000000E+01  1.00800000E+00  1.00800000E+00  1.60000000E+01
  1.00800000E+00  1.00800000E+00  1.60000000E+01  1.00800000E+00  1.00800000E+00
  1.60000000E+01  1.00800000E+00  1.00800000E+00  1.60000000E+01  1.00800000E+00
  1.00800000E+00  1.60000000E+01  1.00800000E+00  1.00800000E+00  1.60000000E+01
  1.00800000E+00  1.00800000E+00  1.60000000E+01  1.00800000E+00  1.00800000E+00
  1.60000000E+01  1.00800000E+00  1.00800000E+00  1.60000000E+01  1.00800000E+00
  1.00800000E+00  1.60000000E+01  1.00800000E+00  1.00800000E+00  1.60000000E+01
  1.00800000E+00  1.00800000E+00  1.60000000E+01  1.00800000E+00  1.00800000E+00
  1.60000000E+01  1.00800000E+00  1.00800000E+00  1.60000000E+01  1.00800000E+00
  1.00800000E+00  1.60000000E+01  1.00800000E+00  1.00800000E+00  1.60000000E+01
  1.00800000E+00  1.00800000E+00  1.60000000E+01  1.00800000E+00  1.00800000E+00
  1.60000000E+01  1.00800000E+00  1.00800000E+00  1.60000000E+01  1.00800000E+00
  1.00800000E+00  1.60000000E+01  1.00800000E+00  1.00800000E+00  1.60000000E+01
  1.00800000E+00  1.00800000E+00  1.60000000E+01  1.00800000E+00  1.00800000E+00
  1.60000000E+01  1.00800000E+00  1.00800000E+00  1.60000000E+01  1.00800000E+00
  1.00800000E+00  1.60000000E+01  1.00800000E+00  1.00800000E+00  1.60000000E+01
  1.00800000E+00  1.00800000E+00  1.60000000E+01  1.00800000E+00  1.00800000E+00
  1.60000000E+01  1.00800000E+00  1.00800000E+00  1.60000000E+01  1.00800000E+00
  1.00800000E+00  1.60000000E+01  1.00800000E+00  1.00800000E+00  1.60000000E+01
  1.00800000E+00  1.00800000E+00  1.60000000E+01  1.00800000E+00  1.00800000E+00
  1.60000000E+01  1.00800000E+00  1.00800000E+00  1.60000000E+01  1.00800000E+00
  1.00800000E+00  1.60000000E+01  1.00800000E+00  1.00800000E+00  1.60000000E+01
  1.00800000E+00  1.00800000E+00  1.60000000E+01  1.00800000E+00  1.00800000E+00
  1.60000000E+01  1.00800000E+00  1.00800000E+00  1.60000000E+01  1.00800000E+00
  1.00800000E+00  1.60000000E+01  1.00800000E+00  1.00800000E+00  1.60000000E+01
  1.00800000E+00  1.00800000E+00  1.60000000E+01  1.00800000E+00  1.00800000E+00
  1.60000000E+01  1.00800000E+00  1.00800000E+00  1.60000000E+01  1.00800000E+00
  1.00800000E+00  1.60000000E+01  1.00800000E+00  1.00800000E+00  1.60000000E+01
  1.00800000E+00  1.00800000E+00  1.60000000E+01  1.00800000E+00  1.00800000E+00
  1.60000000E+01  1.00800000E+00  1.00800000E+00  1.60000000E+01  1.00800000E+00
  1.00800000E+00  1.60000000E+01  1.00800000E+00  1.00800000E+00  1.60000000E+01
  1.00800000E+00  1.00800000E+00  1.60000000E+01  1.00800000E+00  1.00800000E+00
  1.60000000E+01  1.00800000E+00  1.00800000E+00  1.60000000E+01  1.00800000E+00
  1.00800000E+00  1.60000000E+01  1.00800000E+00  1.00800000E+00  1.60000000E+01
  1.00800000E+00  1.00800000E+00  1.60000000E+01  1.00800000E+00  1.00800000E+00
  1.60000000E+01  1.00800000E+00  1.00800000E+00  1.60000000E+01  1.00800000E+00
  1.00800000E+00  1.60000000E+01  1.00800000E+00  1.00800000E+00  1.60000000E+01
  1.00800000E+00  1.00800000E+00  1.60000000E+01  1.00800000E+00  1.00800000E+00
  1.60000000E+01  1.00800000E+00  1.00800000E+00  1.60000000E+01  1.00800000E+00
  1.00800000E+00  1.60000000E+01  1.00800000E+00  1.00800000E+00  1.60000000E+01
  1.00800000E+00  1.00800000E+00  1.60000000E+01  1.00800000E+00  1.00800000E+00
  1.60000000E+01  1.00800000E+00  1.00800000E+00  1.60000000E+01  1.00800000E+00
  1.00800000E+00  1.60000000E+01  1.00800000E+00  1.00800000E+00  1.60000000E+01
  1.00800000E+00  1.00800000E+00  1.60000000E+01  1.00800000E+00  1.00800000E+00
  1.60000000E+01  1.00800000E+00  1.00800000E+00  1.60000000E+01  1.00800000E+00
  1.00800000E+00  1.60000000E+01  1.00800000E+00  1.00800000E+00  1.60000000E+01
  1.00800000E+00  1.00800000E+00  1.60000000E+01  1.00800000E+00  1.00800000E+00
  1.60000000E+01  1.00800000E+00  1.00800000E+00  1.60000000E+01  1.00800000E+00
  1.00800000E+00  1.60000000E+01  1.00800000E+00  1.00800000E+00  1.60000000E+01
  1.00800000E+00  1.00800000E+00  1.60000000E+01  1.00800000E+00  1.00800000E+00
  1.60000000E+01  1.00800000E+00  1.00800000E+00  1.60000000E+01  1.00800000E+00
  1.00800000E+00  1.60000000E+01  1.00800000E+00  1.00800000E+00  1.60000000E+01
  1.00800000E+00  1.00800000E+00  1.60000000E+01  1.00800000E+00  1.00800000E+00
  1.60000000E+01  1.00800000E+00  1.00800000E+00  1.60000000E+01  1.00800000E+00
  1.00800000E+00  1.60000000E+01  1.00800000E+00  1.00800000E+00  1.60000000E+01
  1.00800000E+00  1.00800000E+00  1.60000000E+01  1.00800000E+00  1.00800000E+00
  1.60000000E+01  1.00800000E+00  1.00800000E+00  1.60000000E+01  1.00800000E+00
  1.00800000E+00  1.60000000E+01  1.00800000E+00  1.00800000E+00  1.60000000E+01
  1.00800000E+00  1.00800000E+00  1.60000000E+01  1.00800000E+00  1.00800000E+00
  1.60000000E+01  1.00800000E+00  1.00800000E+00  1.60000000E+01  1.00800000E+00
  1.00800000E+00  1.60000000E+01  1.00800000E+00  1.00800000E+00  1.60000000E+01
  1.00800000E+00  1.00800000E+00  1.60000000E+01  1.00800000E+00  1.00800000E+00
  1.60000000E+01  1.00800000E+00  1.00800000E+00  1.60000000E+01  1.00800000E+00
  1.00800000E+00  1.60000000E+01  1.00800000E+00  1.00800000E+00  1.60000000E+01
  1.00800000E+00  1.00800000E+00  1.60000000E+01  1.00800000E+00  1.00800000E+00
  1.60000000E+01  1.00800000E+00  1.00800000E+00  1.60000000E+01  1.00800000E+00
  1.00800000E+00  1.60000000E+01  1.00800000E+00  1.00800000E+00  1.60000000E+01
  1.00800000E+00  1.00800000E+00  1.60000000E+01  1.00800000E+00  1.00800000E+00
  1.60000000E+01  1.00800000E+00  1.00800000E+00  1.60000000E+01  1.00800000E+00
  1.00800000E+00  1.60000000E+01  1.00800000E+00  1.00800000E+00  1.60000000E+01
  1.00800000E+00  1.00800000E+00  1.60000000E+01  1.00800000E+00  1.00800000E+00
  1.60000000E+01  1.00800000E+00  1.00800000E+00  1.60000000E+01  1.00800000E+00
  1.00800000E+00  1.60000000E+01  1.00800000E+00  1.00800000E+00  1.60000000E+01
  1.00800000E+00  1.00800000E+00  1.60000000E+01  1.00800000E+00  1.00800000E+00
  1.60000000E+01  1.00800000E+00  1.00800000E+00  1.60000000E+01  1.00800000E+00
  1.00800000E+00  1.60000000E+01  1.00800000E+00  1.00800000E+00  1.60000000E+01
  1.00800000E+00  1.00800000E+00  1.60000000E+01  1.00800000E+00  1.00800000E+00
  1.60000000E+01  1.00800000E+00  1.00800000E+00  1.60000000E+01  1.00800000E+00
  1.00800000E+00  1.60000000E+01  1.00800000E+00  1.00800000E+00  1.60000000E+01
  1.00800000E+00  1.00800000E+00  1.60000000E+01  1.00800000E+00  1.00800000E+00
  1.60000000E+01  1.00800000E+00  1.00800000E+00  1.60000000E+01  1.00800000E+00
  1.00800000E+00  1.60000000E+01  1.00800000E+00  1.00800000E+00  1.60000000E+01
  1.00800000E+00  1.00800000E+00  1.60000000E+01  1.00800000E+00  1.00800000E+00
  1.60000000E+01  1.00800000E+00  1.00800000E+00  1.60000000E+01  1.00800000E+00
  1.00800000E+00  1.60000000E+01  1.00800000E+00  1.00800000E+00  1.60000000E+01
  1.00800000E+00  1.00800000E+00  1.60000000E+01  1.00800000E+00  1.00800000E+00
  1.60000000E+01  1.00800000E+00  1.00800000E+00  1.60000000E+01  1.00800000E+00
  1.00800000E+00  1.60000000E+01  1.00800000E+00  1.00800000E+00  1.60000000E+01
  1.00800000E+00  1.00800000E+00  1.60000000E+01  1.00800000E+00  1.00800000E+00
  1.60000000E+01  1.00800000E+00  1.00800000E+00  1.60000000E+01  1.00800000E+00
  1.00800000E+00  1.60000000E+01  1.00800000E+00  1.00800000E+00  1.60000000E+01
  1.00800000E+00  1.00800000E+00  1.60000000E+01  1.00800000E+00  1.00800000E+00
  1.60000000E+01  1.00800000E+00  1.00800000E+00  1.60000000E+01  1.00800000E+00
  1.00800000E+00  1.60000000E+01  1.00800000E+00  1.00800000E+00  1.60000000E+01
  1.00800000E+00  1.00800000E+00  1.60000000E+01  1.00800000E+00  1.00800000E+00
  1.60000000E+01  1.00800000E+00  1.00800000E+00  1.60000000E+01  1.00800000E+00
  1.00800000E+00  1.60000000E+01  1.00800000E+00  1.00800000E+00  1.60000000E+01
  1.00800000E+00  1.00800000E+00  1.60000000E+01  1.00800000E+00  1.00800000E+00
  1.60000000E+01  1.00800000E+00  1.00800000E+00  1.60000000E+01  1.00800000E+00
  1.00800000E+00  1.60000000E+01  1.00800000E+00  1.00800000E+00  1.60000000E+01
  1.00800000E+00  1.00800000E+00  1.60000000E+01  1.00800000E+00  1.00800000E+00
  1.60000000E+01  1.00800000E+00  1.00800000E+00  1.60000000E+01  1.00800000E+00
  1.00800000E+00  1.60000000E+01  1.00800000E+00  1.00800000E+00  1.60000000E+01
  1.00800000E+00  1.00800000E+00  1.60000000E+01  1.00800000E+00  1.00800000E+00
  1.60000000E+01  1.00800000E+00  1.00800000E+00  1.60000000E+01  1.00800000E+00
  1.00800000E+00  1.60000000E+01  1.00800000E+00  1.00800000E+00  1.60000000E+01
  1.00800000E+00  1.00800000E+00  1.60000000E+01  1.00800000E+00  1.00800000E+00
  1.60000000E+01  1.00800000E+00  1.00800000E+00  1.60000000E+01  1.00800000E+00
  1.00800000E+00  1.60000000E+01  1.00800000E+00  1.00800000E+00  1.60000000E+01
  1.00800000E+00  1.00800000E+00  1.60000000E+01  1.00800000E+00  1.00800000E+00
  1.60000000E+01  1.00800000E+00  1.00800000E+00  1.60000000E+01  1.00800000E+00
  1.00800000E+00  1.60000000E+01  1.00800000E+00  1.00800000E+00  1.60000000E+01
  1.00800000E+00  1.00800000E+00  1.60000000E+01  1.00800000E+00  1.00800000E+00
  1.60000000E+01  1.00800000E+00  1.00800000E+00  1.60000000E+01  1.00800000E+00
  1.00800000E+00  1.60000000E+01  1.00800000E+00  1.00800000E+00  1.60000000E+01
  1.00800000E+00  1.00800000E+00  1.60000000E+01  1.00800000E+00  1.00800000E+00
  1.60000000E+01  1.00800000E+00  1.00800000E+00  1.60000000E+01  1.00800000E+00
  1.00800000E+00  1.60000000E+01  1.00800000E+00  1.00800000E+00  1.60000000E+01
  1.00800000E+00  1.00800000E+00  1.60000000E+01  1.00800000E+00  1.00800000E+00
  1.60000000E+01  1.00800000E+00  1.00800000E+00  1.60000000E+01  1.00800000E+00
  1.00800000E+00  1.60000000E+01  1.00800000E+00  1.00800000E+00  1.60000000E+01
  1.00800000E+00  1.00800000E+00  1.60000000E+01  1.00800000E+00  1.00800000E+00
  1.60000000E+01  1.00800000E+00  1.00800000E+00  1.60000000E+01  1.00800000E+00
  1.00800000E+00  1.60000000E+01  1.00800000E+00  1.00800000E+00  1.60000000E+01
  1.00800000E+00  1.00800000E+00  1.60000000E+01  1.00800000E+00  1.00800000E+00
  1.60000000E+01  1.00800000E+00  1.00800000E+00  1.60000000E+01  1.00800000E+00
  1.00800000E+00  1.60000000E+01  1.00800000E+00  1.00800000E+00  1.60000000E+01
  1.00800000E+00  1.00800000E+00  1.60000000E+01  1.00800000E+00  1.00800000E+00
  1.60000000E+01  1.00800000E+00  1.00800000E+00  1.60000000E+01  1.00800000E+00
  1.00800000E+00  1.60000000E+01  1.00800000E+00  1.00800000E+00  1.60000000E+01
  1.00800000E+00  1.00800000E+00  1.60000000E+01  1.00800000E+00  1.00800000E+00
  1.60000000E+01  1.00800000E+00  1.00800000E+00  1.60000000E+01  1.00800000E+00
  1.00800000E+00  1.60000000E+01  1.00800000E+00  1.00800000E+00  1.60000000E+01
  1.00800000E+00  1.00800000E+00  1.60000000E+01  1.00800000E+00  1.00800000E+00
  1.60000000E+01  1.00800000E+00  1.00800000E+00  1.60000000E+01  1.00800000E+00
  1.00800000E+00  1.60000000E+01  1.00800000E+00  1.00800000E+00  1.60000000E+01
  1.00800000E+00  1.00800000E+00  1.60000000E+01  1.00800000E+00  1.00800000E+00
  1.60000000E+01  1.00800000E+00  1.00800000E+00  1.60000000E+01  1.00800000E+00
  1.00800000E+00  1.60000000E+01  1.00800000E+00  1.00800000E+00  1.60000000E+01
  1.00800000E+00  1.00800000E+00  1.60000000E+01  1.00800000E+00  1.00800000E+00
  1.60000000E+01  1.00800000E+00  1.00800000E+00  1.60000000E+01  1.00800000E+00
  1.00800000E+00  1.60000000E+01  1.00800000E+00  1.00800000E+00  1.60000000E+01
  1.00800000E+00  1.00800000E+00  1.60000000E+01  1.00800000E+00  1.00800000E+00
  1.60000000E+01  1.00800000E+00  1.00800000E+00  1.60000000E+01  1.00800000E+00
  1.00800000E+00  1.60000000E+01  1.00800000E+00  1.00800000E+00  1.60000000E+01
  1.00800000E+00  1.00800000E+00  1.60000000E+01  1.00800000E+00  1.00800000E+00
  1.60000000E+01  1.00800000E+00  1.00800000E+00  1.60000000E+01  1.00800000E+00
  1.00800000E+00  1.60000000E+01  1.00800000E+00  1.00800000E+00  1.60000000E+01
  1.00800000E+00  1.00800000E+00  1.60000000E+01  1.00800000E+00  1.00800000E+00
  1.60000000E+01  1.00800000E+00  1.00800000E+00  1.60000000E+01  1.00800000E+00
  1.00800000E+00  1.60000000E+01  1.00800000E+00  1.00800000E+00  1.60000000E+01
  1.00800000E+00  1.00800000E+00  1.60000000E+01  1.00800000E+00  1.00800000E+00
  1.60000000E+01  1.00800000E+00  1.00800000E+00  1.60000000E+01  1.00800000E+00
  1.00800000E+00  1.60000000E+01  1.00800000E+00  1.00800000E+00  1.60000000E+01
  1.00800000E+00  1.00800000E+00  1.60000000E+01  1.00800000E+00  1.00800000E+00
  1.60000000E+01  1.00800000E+00  1.00800000E+00  1.60000000E+01  1.00800000E+00
  1.00800000E+00  1.60000000E+01  1.00800000E+00  1.00800000E+00  1.60000000E+01
  1.00800000E+00  1.00800000E+00  1.60000000E+01  1.00800000E+00  1.00800000E+00
  1.60000000E+01  1.00800000E+00  1.00800000E+00  1.60000000E+01  1.00800000E+00
  1.00800000E+00  1.60000000E+01  1.00800000E+00  1.00800000E+00  1.60000000E+01
  1.00800000E+00  1.00800000E+00  1.60000000E+01  1.00800000E+00  1.00800000E+00
  1.60000000E+01  1.00800000E+00  1.00800000E+00  1.60000000E+01  1.00800000E+00
  1.00800000E+00  1.60000000E+01  1.00800000E+00  1.00800000E+00  1.60000000E+01
  1.00800000E+00  1.00800000E+00  1.60000000E+01  1.00800000E+00  1.00800000E+00
  1.60000000E+01  1.00800000E+00  1.00800000E+00  1.60000000E+01  1.00800000E+00
  1.00800000E+00  1.60000000E+01  1.00800000E+00  1.00800000E+00  1.60000000E+01
  1.00800000E+00  1.00800000E+00  1.60000000E+01  1.00800000E+00  1.00800000E+00
  1.60000000E+01  1.00800000E+00  1.00800000E+00  1.60000000E+01  1.00800000E+00
  1.00800000E+00  1.60000000E+01  1.00800000E+00  1.00800000E+00  1.60000000E+01
  1.00800000E+00  1.00800000E+00  1.60000000E+01  1.00800000E+00  1.00800000E+00
  1.60000000E+01  1.00800000E+00  1.00800000E+00  1.60000000E+01  1.00800000E+00
  1.00800000E+00  1.60000000E+01  1.00800000E+00  1.00800000E+00  1.60000000E+01
  1.00800000E+00  1.00800000E+00  1.60000000E+01  1.00800000E+00  1.00800000E+00
  1.60000000E+01  1.00800000E+00  1.00800000E+00  1.60000000E+01  1.00800000E+00
  1.00800000E+00  1.60000000E+01  1.00800000E+00  1.00800000E+00  1.60000000E+01
  1.00800000E+00  1.00800000E+00  1.60000000E+01  1.00800000E+00  1.00800000E+00
  1.60000000E+01  1.00800000E+00  1.00800000E+00  1.60000000E+01  1.00800000E+00
  1.00800000E+00  1.60000000E+01  1.00800000E+00  1.00800000E+00  1.60000000E+01
  1.00800000E+00  1.00800000E+00  1.60000000E+01  1.00800000E+00  1.00800000E+00
  1.60000000E+01  1.00800000E+00  1.00800000E+00  1.60000000E+01  1.00800000E+00
  1.00800000E+00  1.60000000E+01  1.00800000E+00  1.00800000E+00  1.60000000E+01
  1.00800000E+00  1.00800000E+00  1.60000000E+01  1.00800000E+00  1.00800000E+00
  1.60000000E+01  1.00800000E+00  1.00800000E+00  1.60000000E+01  1.00800000E+00
  1.00800000E+00  1.60000000E+01  1.00800000E+00  1.00800000E+00  1.60000000E+01
  1.00800000E+00  1.00800000E+00  1.60000000E+01  1.00800000E+00  1.00800000E+00
  1.60000000E+01  1.00800000E+00  1.00800000E+00  1.60000000E+01  1.00800000E+00
  1.00800000E+00  1.60000000E+01  1.00800000E+00  1.00800000E+00  1.60000000E+01
  1.00800000E+00  1.00800000E+00  1.60000000E+01  1.00800000E+00  1.00800000E+00
  1.60000000E+01  1.00800000E+00  1.00800000E+00  1.60000000E+01  1.00800000E+00
  1.00800000E+00  1.60000000E+01  1.00800000E+00  1.00800000E+00  1.60000000E+01
  1.00800000E+00  1.00800000E+00  1.60000000E+01  1.00800000E+00  1.00800000E+00
  1.60000000E+01  1.00800000E+00  1.00800000E+00  1.60000000E+01  1.00800000E+00
  1.00800000E+00  1.60000000E+01  1.00800000E+00  1.00800000E+00  1.60000000E+01
  1.00800000E+00  1.00800000E+00  1.60000000E+01  1.00800000E+00  1.00800000E+00
  1.60000000E+01  1.00800000E+00  1.00800000E+00  1.60000000E+01  1.00800000E+00
  1.00800000E+00  1.60000000E+01  1.00800000E+00  1.00800000E+00  1.60000000E+01
  1.00800000E+00  1.00800000E+00  1.60000000E+01  1.00800000E+00  1.00800000E+00
  1.60000000E+01  1.00800000E+00  1.00800000E+00  1.60000000E+01  1.00800000E+00
  1.00800000E+00  1.60000000E+01  1.00800000E+00  1.00800000E+00  1.60000000E+01
  1.00800000E+00  1.00800000E+00  1.60000000E+01  1.00800000E+00  1.00800000E+00
  1.60000000E+01  1.00800000E+00  1.00800000E+00  1.60000000E+01  1.00800000E+00
  1.00800000E+00  1.60000000E+01  1.00800000E+00  1.00800000E+00  1.60000000E+01
  1.00800000E+00  1.00800000E+00  1.60000000E+01  1.00800000E+00  1.00800000E+00
  1.60000000E+01  1.00800000E+00  1.00800000E+00  1.60000000E+01  1.00800000E+00
  1.00800000E+00  1.60000000E+01  1.00800000E+00  1.00800000E+00  1.60000000E+01
  1.00800000E+00  1.00800000E+00  1.60000000E+01  1.00800000E+00  1.00800000E+00
  1.60000000E+01  1.00800000E+00  1.00800000E+00  1.60000000E+01  1.00800000E+00
  1.00800000E+00  1.60000000E+01  1.00800000E+00  1.00800000E+00  1.60000000E+01
  1.00800000E+00  1.00800000E+00  1.60000000E+01  1.00800000E+00  1.00800000E+00
  1.60000000E+01  1.00800000E+00  1.00800000E+00  1.60000000E+01  1.00800000E+00
  1.00800000E+00  1.60000000E+01  1.00800000E+00  1.00800000E+00  1.60000000E+01
  1.00800000E+00  1.00800000E+00  1.60000000E+01  1.00800000E+00  1.00800000E+00
  1.60000000E+01  1.00800000E+00  1.00800000E+00  1.60000000E+01  1.00800000E+00
  1.00800000E+00  1.60000000E+01  1.00800000E+00  1.00800000E+00  1.60000000E+01
  1.00800000E+00  1.00800000E+00  1.60000000E+01  1.00800000E+00  1.00800000E+00
  1.60000000E+01  1.00800000E+00  1.00800000E+00  1.60000000E+01  1.00800000E+00
  1.00800000E+00  1.60000000E+01  1.00800000E+00  1.00800000E+00  1.60000000E+01
  1.00800000E+00  1.00800000E+00  1.60000000E+01  1.00800000E+00  1.00800000E+00
  1.60000000E+01  1.00800000E+00  1.00800000E+00  1.60000000E+01  1.00800000E+00
  1.00800000E+00  1.60000000E+01  1.00800000E+00  1.00800000E+00  1.60000000E+01
  1.00800000E+00  1.00800000E+00  1.60000000E+01  1.00800000E+00  1.00800000E+00
  1.60000000E+01  1.00800000E+00  1.00800000E+00  1.60000000E+01  1.00800000E+00
  1.00800000E+00  1.60000000E+01  1.00800000E+00  1.00800000E+00  1.60000000E+01
  1.00800000E+00  1.00800000E+00  1.60000000E+01  1.00800000E+00  1.00800000E+00
  1.60000000E+01  1.00800000E+00  1.00800000E+00  1.60000000E+01  1.00800000E+00
  1.00800000E+00  1.60000000E+01  1.00800000E+00  1.00800000E+00  1.60000000E+01
  1.00800000E+00  1.00800000E+00  1.60000000E+01  1.00800000E+00  1.00800000E+00
  1.60000000E+01  1.00800000E+00  1.00800000E+00  1.60000000E+01  1.00800000E+00
  1.00800000E+00  1.60000000E+01  1.00800000E+00  1.00800000E+00  1.60000000E+01
  1.00800000E+00  1.00800000E+00  1.60000000E+01  1.00800000E+00  1.00800000E+00
  1.60000000E+01  1.00800000E+00  1.00800000E+00  1.60000000E+01  1.00800000E+00
  1.00800000E+00  1.60000000E+01  1.00800000E+00  1.00800000E+00  1.60000000E+01
  1.00800000E+00  1.00800000E+00  1.60000000E+01  1.00800000E+00  1.00800000E+00
  1.60000000E+01  1.00800000E+00  1.00800000E+00  1.60000000E+01  1.00800000E+00
  1.00800000E+00  1.60000000E+01  1.00800000E+00  1.00800000E+00  1.60000000E+01
  1.00800000E+00  1.00800000E+00  1.60000000E+01  1.00800000E+00  1.00800000E+00
  1.60000000E+01  1.00800000E+00  1.00800000E+00  1.60000000E+01  1.00800000E+00
  1.00800000E+00  1.60000000E+01  1.00800000E+00  1.00800000E+00  1.60000000E+01
  1.00800000E+00  1.00800000E+00  1.60000000E+01  1.00800000E+00  1.00800000E+00
  1.60000000E+01  1.00800000E+00  1.00800000E+00  1.60000000E+01  1.00800000E+00
  1.00800000E+00  1.60000000E+01  1.00800000E+00  1.00800000E+00  1.60000000E+01
  1.00800000E+00  1.00800000E+00  1.60000000E+01  1.00800000E+00  1.00800000E+00
  1.60000000E+01  1.00800000E+00  1.00800000E+00  1.60000000E+01  1.00800000E+00
  1.00800000E+00  1.60000000E+01  1.00800000E+00  1.00800000E+00  1.60000000E+01
  1.00800000E+00  1.00800000E+00  1.60000000E+01  1.00800000E+00  1.00800000E+00
  1.60000000E+01  1.00800000E+00  1.00800000E+00  1.60000000E+01  1.00800000E+00
  1.00800000E+00  1.60000000E+01  1.00800000E+00  1.00800000E+00  1.60000000E+01
  1.00800000E+00  1.00800000E+00  1.60000000E+01  1.00800000E+00  1.00800000E+00
  1.60000000E+01  1.00800000E+00  1.00800000E+00  1.60000000E+01  1.00800000E+00
  1.00800000E+00  1.60000000E+01  1.00800000E+00  1.00800000E+00  1.60000000E+01
  1.00800000E+00  1.00800000E+00  1.60000000E+01  1.00800000E+00  1.00800000E+00
  1.60000000E+01  1.00800000E+00  1.00800000E+00  1.60000000E+01  1.00800000E+00
  1.00800000E+00  1.60000000E+01  1.00800000E+00  1.00800000E+00  1.60000000E+01
  1.00800000E+00  1.00800000E+00  1.60000000E+01  1.00800000E+00  1.00800000E+00
  1.60000000E+01  1.00800000E+00  1.00800000E+00  1.60000000E+01  1.00800000E+00
  1.00800000E+00  1.60000000E+01  1.00800000E+00  1.00800000E+00  1.60000000E+01
  1.00800000E+00  1.00800000E+00  1.60000000E+01  1.00800000E+00  1.00800000E+00
  1.60000000E+01  1.00800000E+00  1.00800000E+00  1.60000000E+01  1.00800000E+00
  1.00800000E+00  1.60000000E+01  1.00800000E+00  1.00800000E+00  1.60000000E+01
  1.00800000E+00  1.00800000E+00  1.60000000E+01  1.00800000E+00  1.00800000E+00
  1.60000000E+01  1.00800000E+00  1.00800000E+00  1.60000000E+01  1.00800000E+00
  1.00800000E+00  1.60000000E+01  1.00800000E+00  1.00800000E+00  1.60000000E+01
  1.00800000E+00  1.00800000E+00  1.60000000E+01  1.00800000E+00  1.00800000E+00
  1.60000000E+01  1.00800000E+00  1.00800000E+00  1.60000000E+01  1.00800000E+00
  1.00800000E+00  1.60000000E+01  1.00800000E+00  1.00800000E+00  1.60000000E+01
  1.00800000E+00  1.00800000E+00  1.60000000E+01  1.00800000E+00  1.00800000E+00
  1.60000000E+01  1.00800000E+00  1.00800000E+00  1.60000000E+01  1.00800000E+00
  1.00800000E+00  1.60000000E+01  1.00800000E+00  1.00800000E+00  1.60000000E+01
  1.00800000E+00  1.00800000E+00  1.60000000E+01  1.00800000E+00  1.00800000E+00
  1.60000000E+01  1.00800000E+00  1.00800000E+00  1.60000000E+01  1.00800000E+00
  1.00800000E+00  1.60000000E+01  1.00800000E+00  1.00800000E+00  1.60000000E+01
  1.00800000E+00  1.00800000E+00  1.60000000E+01  1.00800000E+00  1.00800000E+00
  1.60000000E+01  1.00800000E+00  1.00800000E+00  1.60000000E+01  1.00800000E+00
  1.00800000E+00  1.60000000E+01  1.00800000E+00  1.00800000E+00  1.60000000E+01
  1.00800000E+00  1.00800000E+00  1.60000000E+01  1.00800000E+00  1.00800000E+00
  1.60000000E+01  1.00800000E+00  1.00800000E+00  1.60000000E+01  1.00800000E+00
  1.00800000E+00  1.60000000E+01  1.00800000E+00  1.00800000E+00  1.60000000E+01
  1.00800000E+00  1.00800000E+00  1.60000000E+01  1.00800000E+00  1.00800000E+00
  1.60000000E+01  1.00800000E+00  1.00800000E+00  1.60000000E+01  1.00800000E+00
  1.00800000E+00  1.60000000E+01  1.00800000E+00  1.00800000E+00  1.60000000E+01
  1.00800000E+00  1.00800000E+00  1.60000000E+01  1.00800000E+00  1.00800000E+00
  1.60000000E+01  1.00800000E+00  1.00800000E+00  1.60000000E+01  1.00800000E+00
  1.00800000E+00  1.60000000E+01  1.00800000E+00  1.00800000E+00  1.60000000E+01
  1.00800000E+00  1.00800000E+00  1.60000000E+01  1.00800000E+00  1.00800000E+00
  1.60000000E+01  1.00800000E+00  1.00800000E+00  1.60000000E+01  1.00800000E+00
  1.00800000E+00  1.60000000E+01  1.00800000E+00  1.00800000E+00  1.60000000E+01
  1.00800000E+00  1.00800000E+00  1.60000000E+01  1.00800000E+00  1.00800000E+00
  1.60000000E+01  1.00800000E+00  1.00800000E+00  1.60000000E+01  1.00800000E+00
  1.00800000E+00  1.60000000E+01  1.00800000E+00  1.00800000E+00  1.60000000E+01
  1.00800000E+00  1.00800000E+00  1.60000000E+01  1.00800000E+00  1.00800000E+00
  1.60000000E+01  1.00800000E+00  1.00800000E+00  1.60000000E+01  1.00800000E+00
  1.00800000E+00  1.60000000E+01  1.00800000E+00  1.00800000E+00  1.60000000E+01
  1.00800000E+00  1.00800000E+00  1.60000000E+01  1.00800000E+00  1.00800000E+00
  1.60000000E+01  1.00800000E+00  1.00800000E+00  1.60000000E+01  1.00800000E+00
  1.00800000E+00  1.60000000E+01  1.00800000E+00  1.00800000E+00  1.60000000E+01
  1.00800000E+00  1.00800000E+00  1.60000000E+01  1.00800000E+00  1.00800000E+00
  1.60000000E+01  1.00800000E+00  1.00800000E+00  1.60000000E+01  1.00800000E+00
  1.00800000E+00  1.60000000E+01  1.00800000E+00  1.00800000E+00  1.60000000E+01
  1.00800000E+00  1.00800000E+00  1.60000000E+01  1.00800000E+00  1.00800000E+00
  1.60000000E+01  1.00800000E+00  1.00800000E+00  1.60000000E+01  1.00800000E+00
  1.00800000E+00  1.60000000E+01  1.00800000E+00  1.00800000E+00  1.60000000E+01
  1.00800000E+00  1.00800000E+00  1.60000000E+01  1.00800000E+00  1.00800000E+00
  1.60000000E+01  1.00800000E+00  1.00800000E+00  1.60000000E+01  1.00800000E+00
  1.00800000E+00  1.60000000E+01  1.00800000E+00  1.00800000E+00  1.60000000E+01
  1.00800000E+00  1.00800000E+00  1.60000000E+01  1.00800000E+00  1.00800000E+00
  1.60000000E+01  1.00800000E+00  1.00800000E+00  1.60000000E+01  1.00800000E+00
  1.00800000E+00  1.60000000E+01  1.00800000E+00  1.00800000E+00  1.60000000E+01
  1.00800000E+00  1.00800000E+00  1.60000000E+01  1.00800000E+00  1.00800000E+00
  1.60000000E+01  1.00800000E+00  1.00800000E+00  1.60000000E+01  1.00800000E+00
  1.00800000E+00  1.60000000E+01  1.00800000E+00  1.00800000E+00  1.60000000E+01
  1.00800000E+00  1.00800000E+00  1.60000000E+01  1.00800000E+00  1.00800000E+00
  1.60000000E+01  1.00800000E+00  1.00800000E+00  1.60000000E+01  1.00800000E+00
  1.00800000E+00  1.60000000E+01  1.00800000E+00  1.00800000E+00  1.60000000E+01
  1.00800000E+00  1.00800000E+00  1.60000000E+01  1.00800000E+00  1.00800000E+00
  1.60000000E+01  1.00800000E+00  1.00800000E+00  1.60000000E+01  1.00800000E+00
  1.00800000E+00  1.60000000E+01  1.00800000E+00  1.00800000E+00  1.60000000E+01
  1.00800000E+00  1.00800000E+00  1.60000000E+01  1.00800000E+00  1.00800000E+00
  1.60000000E+01  1.00800000E+00  1.00800000E+00  1.60000000E+01  1.00800000E+00
  1.00800000E+00  1.60000000E+01  1.00800000E+00  1.00800000E+00  1.60000000E+01
  1.00800000E+00  1.00800000E+00  1.60000000E+01  1.00800000E+00  1.00800000E+00
  1.60000000E+01  1.00800000E+00  1.00800000E+00  1.60000000E+01  1.00800000E+00
  1.00800000E+00  1.60000000E+01  1.00800000E+00  1.00800000E+00  1.60000000E+01
  1.00800000E+00  1.00800000E+00  1.60000000E+01  1.00800000E+00  1.00800000E+00
  1.60000000E+01  1.00800000E+00  1.00800000E+00  1.60000000E+01  1.00800000E+00
  1.00800000E+00  1.60000000E+01  1.00800000E+00  1.00800000E+00  1.60000000E+01
  1.00800000E+00  1.00800000E+00  1.60000000E+01  1.00800000E+00  1.00800000E+00
  1.60000000E+01  1.00800000E+00  1.00800000E+00  1.60000000E+01  1.00800000E+00
  1.00800000E+00  1.60000000E+01  1.00800000E+00  1.00800000E+00  1.60000000E+01
  1.00800000E+00  1.00800000E+00  1.60000000E+01  1.00800000E+00  1.00800000E+00
  1.60000000E+01  1.00800000E+00  1.00800000E+00  1.60000000E+01  1.00800000E+00
  1.00800000E+00  1.60000000E+01  1.00800000E+00  1.00800000E+00  1.60000000E+01
  1.00800000E+00  1.00800000E+00  1.60000000E+01  1.00800000E+00  1.00800000E+00
  1.60000000E+01  1.00800000E+00  1.00800000E+00  1.60000000E+01  1.00800000E+00
  1.00800000E+00  1.60000000E+01  1.00800000E+00  1.00800000E+00  1.60000000E+01
  1.00800000E+00  1.00800000E+00  1.60000000E+01  1.00800000E+00  1.00800000E+00
  1.60000000E+01  1.00800000E+00  1.00800000E+00  1.60000000E+01  1.00800000E+00
  1.00800000E+00  1.60000000E+01  1.00800000E+00  1.00800000E+00  1.60000000E+01
  1.00800000E+00  1.00800000E+00  1.60000000E+01  1.00800000E+00  1.00800000E+00
  1.60000000E+01  1.00800000E+00  1.00800000E+00  1.60000000E+01  1.00800000E+00
  1.00800000E+00  1.60000000E+01  1.00800000E+00  1.00800000E+00  1.60000000E+01
  1.00800000E+00  1.00800000E+00  1.60000000E+01  1.00800000E+00  1.00800000E+00
  1.60000000E+01  1.00800000E+00  1.00800000E+00  1.60000000E+01  1.00800000E+00
  1.00800000E+00  1.60000000E+01  1.00800000E+00  1.00800000E+00  1.60000000E+01
  1.00800000E+00  1.00800000E+00  1.60000000E+01  1.00800000E+00  1.00800000E+00
  1.60000000E+01  1.00800000E+00  1.00800000E+00  1.60000000E+01  1.00800000E+00
  1.00800000E+00  1.60000000E+01  1.00800000E+00  1.00800000E+00  1.60000000E+01
  1.00800000E+00  1.00800000E+00  1.60000000E+01  1.00800000E+00  1.00800000E+00
  1.60000000E+01  1.00800000E+00  1.00800000E+00  1.60000000E+01  1.00800000E+00
  1.00800000E+00  1.60000000E+01  1.00800000E+00  1.00800000E+00  1.60000000E+01
  1.00800000E+00  1.00800000E+00  1.60000000E+01  1.00800000E+00  1.00800000E+00
  1.60000000E+01  1.00800000E+00  1.00800000E+00  1.60000000E+01  1.00800000E+00
  1.00800000E+00  1.60000000E+01  1.00800000E+00  1.00800000E+00  1.60000000E+01
  1.00800000E+00  1.00800000E+00  1.60000000E+01  1.00800000E+00  1.00800000E+00
  1.60000000E+01  1.00800000E+00  1.00800000E+00  1.60000000E+01  1.00800000E+00
  1.00800000E+00  1.60000000E+01  1.00800000E+00  1.00800000E+00  1.60000000E+01
  1.00800000E+00  1.00800000E+00  1.60000000E+01  1.00800000E+00  1.00800000E+00
  1.60000000E+01  1.00800000E+00  1.00800000E+00  1.60000000E+01  1.00800000E+00
  1.00800000E+00  1.60000000E+01  1.00800000E+00  1.00800000E+00  1.60000000E+01
  1.00800000E+00  1.00800000E+00  1.60000000E+01  1.00800000E+00  1.00800000E+00
  1.60000000E+01  1.00800000E+00  1.00800000E+00  1.60000000E+01  1.00800000E+00
  1.00800000E+00  1.60000000E+01  1.00800000E+00  1.00800000E+00  1.60000000E+01
  1.00800000E+00  1.00800000E+00  1.60000000E+01  1.00800000E+00  1.00800000E+00
  1.60000000E+01  1.00800000E+00  1.00800000E+00  1.60000000E+01  1.00800000E+00
  1.00800000E+00  1.60000000E+01  1.00800000E+00  1.00800000E+00  1.60000000E+01
  1.00800000E+00  1.00800000E+00  1.60000000E+01  1.00800000E+00  1.00800000E+00
  1.60000000E+01  1.00800000E+00  1.00800000E+00  1.60000000E+01  1.00800000E+00
  1.00800000E+00  1.60000000E+01  1.00800000E+00  1.00800000E+00  1.60000000E+01
  1.00800000E+00  1.00800000E+00  1.60000000E+01  1.00800000E+00  1.00800000E+00
  1.60000000E+01  1.00800000E+00  1.00800000E+00  1.60000000E+01  1.00800000E+00
  1.00800000E+00  1.60000000E+01  1.00800000E+00  1.00800000E+00  1.60000000E+01
  1.00800000E+00  1.00800000E+00  1.60000000E+01  1.00800000E+00  1.00800000E+00
  1.60000000E+01  1.00800000E+00  1.00800000E+00  1.60000000E+01  1.00800000E+00
  1.00800000E+00  1.60000000E+01  1.00800000E+00  1.00800000E+00  1.60000000E+01
  1.00800000E+00  1.00800000E+00  1.60000000E+01  1.00800000E+00  1.00800000E+00
  1.60000000E+01  1.00800000E+00  1.00800000E+00  1.60000000E+01  1.00800000E+00
  1.00800000E+00  1.60000000E+01  1.00800000E+00  1.00800000E+00  1.60000000E+01
  1.00800000E+00  1.00800000E+00  1.60000000E+01  1.00800000E+00  1.00800000E+00
  1.60000000E+01  1.00800000E+00  1.00800000E+00  1.60000000E+01  1.00800000E+00
  1.00800000E+00  1.60000000E+01  1.00800000E+00  1.00800000E+00  1.60000000E+01
  1.00800000E+00  1.00800000E+00  1.60000000E+01  1.00800000E+00  1.00800000E+00
  1.60000000E+01  1.00800000E+00  1.00800000E+00  1.60000000E+01  1.00800000E+00
  1.00800000E+00  1.60000000E+01  1.00800000E+00  1.00800000E+00  1.60000000E+01
  1.00800000E+00  1.00800000E+00  1.60000000E+01  1.00800000E+00  1.00800000E+00
  1.60000000E+01  1.00800000E+00  1.00800000E+00  1.60000000E+01  1.00800000E+00
  1.00800000E+00  1.60000000E+01  1.00800000E+00  1.00800000E+00  1.60000000E+01
  1.00800000E+00  1.00800000E+00  1.60000000E+01  1.00800000E+00  1.00800000E+00
  1.60000000E+01  1.00800000E+00  1.00800000E+00  1.60000000E+01  1.00800000E+00
  1.00800000E+00  1.60000000E+01  1.00800000E+00  1.00800000E+00  1.60000000E+01
  1.00800000E+00  1.00800000E+00  1.60000000E+01  1.00800000E+00  1.00800000E+00
  1.60000000E+01  1.00800000E+00  1.00800000E+00  1.60000000E+01  1.00800000E+00
  1.00800000E+00  1.60000000E+01  1.00800000E+00  1.00800000E+00  1.60000000E+01
  1.00800000E+00  1.00800000E+00  1.60000000E+01  1.00800000E+00  1.00800000E+00
  1.60000000E+01  1.00800000E+00  1.00800000E+00  1.60000000E+01  1.00800000E+00
  1.00800000E+00  1.60000000E+01  1.00800000E+00  1.00800000E+00  1.60000000E+01
  1.00800000E+00  1.00800000E+00  1.60000000E+01  1.00800000E+00  1.00800000E+00
  1.60000000E+01  1.00800000E+00  1.00800000E+00  1.60000000E+01  1.00800000E+00
  1.00800000E+00  1.60000000E+01  1.00800000E+00  1.00800000E+00  1.60000000E+01
  1.00800000E+00  1.00800000E+00  1.60000000E+01  1.00800000E+00  1.00800000E+00
  1.60000000E+01  1.00800000E+00  1.00800000E+00  1.60000000E+01  1.00800000E+00
  1.00800000E+00  1.60000000E+01  1.00800000E+00  1.00800000E+00  1.60000000E+01
  1.00800000E+00  1.00800000E+00  1.60000000E+01  1.00800000E+00  1.00800000E+00
  1.60000000E+01  1.00800000E+00  1.00800000E+00  1.60000000E+01  1.00800000E+00
  1.00800000E+00  1.60000000E+01  1.00800000E+00  1.00800000E+00  1.60000000E+01
  1.00800000E+00  1.00800000E+00  1.60000000E+01  1.00800000E+00  1.00800000E+00
  1.60000000E+01  1.00800000E+00  1.00800000E+00  1.60000000E+01  1.00800000E+00
  1.00800000E+00  1.60000000E+01  1.00800000E+00  1.00800000E+00  1.60000000E+01
  1.00800000E+00  1.00800000E+00  1.60000000E+01  1.00800000E+00  1.00800000E+00
  1.60000000E+01  1.00800000E+00  1.00800000E+00  1.60000000E+01  1.00800000E+00
  1.00800000E+00  1.60000000E+01  1.00800000E+00  1.00800000E+00  1.60000000E+01
  1.00800000E+00  1.00800000E+00  1.60000000E+01  1.00800000E+00  1.00800000E+00
  1.60000000E+01  1.00800000E+00  1.00800000E+00  1.60000000E+01  1.00800000E+00
  1.00800000E+00  1.60000000E+01  1.00800000E+00  1.00800000E+00  1.60000000E+01
  1.00800000E+00  1.00800000E+00  1.60000000E+01  1.00800000E+00  1.00800000E+00
  1.60000000E+01  1.00800000E+00  1.00800000E+00  1.60000000E+01  1.00800000E+00
  1.00800000E+00  1.60000000E+01  1.00800000E+00  1.00800000E+00  1.60000000E+01
  1.00800000E+00  1.00800000E+00  1.60000000E+01  1.00800000E+00  1.00800000E+00
  1.60000000E+01  1.00800000E+00  1.00800000E+00  1.60000000E+01  1.00800000E+00
  1.00800000E+00  1.60000000E+01  1.00800000E+00  1.00800000E+00  1.60000000E+01
  1.00800000E+00  1.00800000E+00  1.60000000E+01  1.00800000E+00  1.00800000E+00
  1.60000000E+01  1.00800000E+00  1.00800000E+00  1.60000000E+01  1.00800000E+00
  1.00800000E+00  1.60000000E+01  1.00800000E+00  1.00800000E+00  1.60000000E+01
  1.00800000E+00  1.00800000E+00  1.60000000E+01  1.00800000E+00  1.00800000E+00
  1.60000000E+01  1.00800000E+00  1.00800000E+00  1.60000000E+01  1.00800000E+00
  1.00800000E+00  1.60000000E+01  1.00800000E+00  1.00800000E+00  1.60000000E+01
  1.00800000E+00  1.00800000E+00  1.60000000E+01  1.00800000E+00  1.00800000E+00
  1.60000000E+01  1.00800000E+00  1.00800000E+00  1.60000000E+01  1.00800000E+00
  1.00800000E+00  1.60000000E+01  1.00800000E+00  1.00800000E+00  1.60000000E+01
  1.00800000E+00  1.00800000E+00  1.60000000E+01  1.00800000E+00  1.00800000E+00
  1.60000000E+01  1.00800000E+00  1.00800000E+00  1.60000000E+01  1.00800000E+00
  1.00800000E+00  1.60000000E+01  1.00800000E+00  1.00800000E+00  1.60000000E+01
  1.00800000E+00  1.00800000E+00  1.60000000E+01  1.00800000E+00  1.00800000E+00
  1.60000000E+01  1.00800000E+00  1.00800000E+00  1.60000000E+01  1.00800000E+00
  1.00800000E+00  1.60000000E+01  1.00800000E+00  1.00800000E+00  1.60000000E+01
  1.00800000E+00  1.00800000E+00  1.60000000E+01  1.00800000E+00  1.00800000E+00
  1.60000000E+01  1.00800000E+00  1.00800000E+00  1.60000000E+01  1.00800000E+00
  1.00800000E+00  1.60000000E+01  1.00800000E+00  1.00800000E+00  1.60000000E+01
  1.00800000E+00  1.00800000E+00  1.60000000E+01  1.00800000E+00  1.00800000E+00
  1.60000000E+01  1.00800000E+00  1.00800000E+00  1.60000000E+01  1.00800000E+00
  1.00800000E+00  1.60000000E+01  1.00800000E+00  1.00800000E+00  1.60000000E+01
  1.00800000E+00  1.00800000E+00  1.60000000E+01  1.00800000E+00  1.00800000E+00
  1.60000000E+01  1.00800000E+00  1.00800000E+00  1.60000000E+01  1.00800000E+00
  1.00800000E+00  1.60000000E+01  1.00800000E+00  1.00800000E+00  1.60000000E+01
  1.00800000E+00  1.00800000E+00  1.60000000E+01  1.00800000E+00  1.00800000E+00
  1.60000000E+01  1.00800000E+00  1.00800000E+00  1.60000000E+01  1.00800000E+00
  1.00800000E+00  1.60000000E+01  1.00800000E+00  1.00800000E+00  1.60000000E+01
  1.00800000E+00  1.00800000E+00  1.60000000E+01  1.00800000E+00  1.00800000E+00
  1.60000000E+01  1.00800000E+00  1.00800000E+00  1.60000000E+01  1.00800000E+00
  1.00800000E+00  1.60000000E+01  1.00800000E+00  1.00800000E+00  1.60000000E+01
  1.00800000E+00  1.00800000E+00  1.60000000E+01  1.00800000E+00  1.00800000E+00
  1.60000000E+01  1.00800000E+00  1.00800000E+00  1.60000000E+01  1.00800000E+00
  1.00800000E+00  1.60000000E+01  1.00800000E+00  1.00800000E+00  1.60000000E+01
  1.00800000E+00  1.00800000E+00  1.60000000E+01  1.00800000E+00  1.00800000E+00
  1.60000000E+01  1.00800000E+00  1.00800000E+00  1.60000000E+01  1.00800000E+00
  1.00800000E+00  1.60000000E+01  1.00800000E+00  1.00800000E+00  1.60000000E+01
  1.00800000E+00  1.00800000E+00  1.60000000E+01  1.00800000E+00  1.00800000E+00
  1.60000000E+01  1.00800000E+00  1.00800000E+00  1.60000000E+01  1.00800000E+00
  1.00800000E+00  1.60000000E+01  1.00800000E+00  1.00800000E+00  1.60000000E+01
  1.00800000E+00  1.00800000E+00  1.60000000E+01  1.00800000E+00  1.00800000E+00
  1.60000000E+01  1.00800000E+00  1.00800000E+00  1.60000000E+01  1.00800000E+00
  1.00800000E+00  1.60000000E+01  1.00800000E+00  1.00800000E+00  1.60000000E+01
  1.00800000E+00  1.00800000E+00  1.60000000E+01  1.00800000E+00  1.00800000E+00
  1.60000000E+01  1.00800000E+00  1.00800000E+00  1.60000000E+01  1.00800000E+00
  1.00800000E+00  1.60000000E+01  1.00800000E+00  1.00800000E+00  1.60000000E+01
  1.00800000E+00  1.00800000E+00  1.60000000E+01  1.00800000E+00  1.00800000E+00
  1.60000000E+01  1.00800000E+00  1.00800000E+00  1.60000000E+01  1.00800000E+00
  1.00800000E+00  1.60000000E+01  1.00800000E+00  1.00800000E+00  1.60000000E+01
  1.00800000E+00  1.00800000E+00  1.60000000E+01  1.00800000E+00  1.00800000E+00
  1.60000000E+01  1.00800000E+00  1.00800000E+00  1.60000000E+01  1.00800000E+00
  1.00800000E+00  1.60000000E+01  1.00800000E+00  1.00800000E+00  1.60000000E+01
  1.00800000E+00  1.00800000E+00  1.60000000E+01  1.00800000E+00  1.00800000E+00
  1.60000000E+01  1.00800000E+00  1.00800000E+00  1.60000000E+01  1.00800000E+00
  1.00800000E+00  1.60000000E+01  1.00800000E+00  1.00800000E+00  1.60000000E+01
  1.00800000E+00  1.00800000E+00  1.60000000E+01  1.00800000E+00  1.00800000E+00
  1.60000000E+01  1.00800000E+00  1.00800000E+00  1.60000000E+01  1.00800000E+00
  1.00800000E+00  1.60000000E+01  1.00800000E+00  1.00800000E+00  1.60000000E+01
  1.00800000E+00  1.00800000E+00  1.60000000E+01  1.00800000E+00  1.00800000E+00
  1.60000000E+01  1.00800000E+00  1.00800000E+00  1.60000000E+01  1.00800000E+00
  1.00800000E+00  1.60000000E+01  1.00800000E+00  1.00800000E+00  1.60000000E+01
  1.00800000E+00  1.00800000E+00  1.60000000E+01  1.00800000E+00  1.00800000E+00
  1.60000000E+01  1.00800000E+00  1.00800000E+00  1.60000000E+01  1.00800000E+00
  1.00800000E+00  1.60000000E+01  1.00800000E+00  1.00800000E+00  1.60000000E+01
  1.00800000E+00  1.00800000E+00  1.60000000E+01  1.00800000E+00  1.00800000E+00
  1.60000000E+01  1.00800000E+00  1.00800000E+00  1.60000000E+01  1.00800000E+00
  1.00800000E+00  1.60000000E+01  1.00800000E+00  1.00800000E+00  1.60000000E+01
  1.00800000E+00  1.00800000E+00  1.60000000E+01  1.00800000E+00  1.00800000E+00
  1.60000000E+01  1.00800000E+00  1.00800000E+00  1.60000000E+01  1.00800000E+00
  1.00800000E+00  1.60000000E+01  1.00800000E+00  1.00800000E+00  1.60000000E+01
  1.00800000E+00  1.00800000E+00  1.60000000E+01  1.00800000E+00  1.00800000E+00
  1.60000000E+01  1.00800000E+00  1.00800000E+00  1.60000000E+01  1.00800000E+00
  1.00800000E+00  1.60000000E+01  1.00800000E+00  1.00800000E+00  1.60000000E+01
  1.00800000E+00  1.00800000E+00  1.60000000E+01  1.00800000E+00  1.00800000E+00
  1.60000000E+01  1.00800000E+00  1.00800000E+00  1.60000000E+01  1.00800000E+00
  1.00800000E+00  1.60000000E+01  1.00800000E+00  1.00800000E+00  1.60000000E+01
  1.00800000E+00  1.00800000E+00  1.60000000E+01  1.00800000E+00  1.00800000E+00
  1.60000000E+01  1.00800000E+00  1.00800000E+00  1.60000000E+01  1.00800000E+00
  1.00800000E+00  1.60000000E+01  1.00800000E+00  1.00800000E+00  1.60000000E+01
  1.00800000E+00  1.00800000E+00  1.60000000E+01  1.00800000E+00  1.00800000E+00
  1.60000000E+01  1.00800000E+00  1.00800000E+00  1.60000000E+01  1.00800000E+00
  1.00800000E+00  1.60000000E+01  1.00800000E+00  1.00800000E+00  1.60000000E+01
  1.00800000E+00  1.00800000E+00  1.60000000E+01  1.00800000E+00  1.00800000E+00
  1.60000000E+01  1.00800000E+00  1.00800000E+00  1.60000000E+01  1.00800000E+00
  1.00800000E+00  1.60000000E+01  1.00800000E+00  1.00800000E+00  1.60000000E+01
  1.00800000E+00  1.00800000E+00  1.60000000E+01  1.00800000E+00  1.00800000E+00
  1.60000000E+01  1.00800000E+00  1.00800000E+00  1.60000000E+01  1.00800000E+00
  1.00800000E+00  1.60000000E+01  1.00800000E+00  1.00800000E+00  1.60000000E+01
  1.00800000E+00  1.00800000E+00  1.60000000E+01  1.00800000E+00  1.00800000E+00
  1.60000000E+01  1.00800000E+00  1.00800000E+00  1.60000000E+01  1.00800000E+00
  1.00800000E+00  1.60000000E+01  1.00800000E+00  1.00800000E+00  1.60000000E+01
  1.00800000E+00  1.00800000E+00  1.60000000E+01  1.00800000E+00  1.00800000E+00
  1.60000000E+01  1.00800000E+00  1.00800000E+00  1.60000000E+01  1.00800000E+00
  1.00800000E+00  1.60000000E+01  1.00800000E+00  1.00800000E+00  1.60000000E+01
  1.00800000E+00  1.00800000E+00  1.60000000E+01  1.00800000E+00  1.00800000E+00
  1.60000000E+01  1.00800000E+00  1.00800000E+00  1.60000000E+01  1.00800000E+00
  1.00800000E+00  1.60000000E+01  1.00800000E+00  1.00800000E+00  1.60000000E+01
  1.00800000E+00  1.00800000E+00  1.60000000E+01  1.00800000E+00  1.00800000E+00
  1.60000000E+01  1.00800000E+00  1.00800000E+00  1.60000000E+01  1.00800000E+00
  1.00800000E+00  1.60000000E+01  1.00800000E+00  1.00800000E+00  1.60000000E+01
  1.00800000E+00  1.00800000E+00  1.60000000E+01  1.00800000E+00  1.00800000E+00
  1.60000000E+01  1.00800000E+00  1.00800000E+00  1.60000000E+01  1.00800000E+00
  1.00800000E+00  1.60000000E+01  1.00800000E+00  1.00800000E+00  1.60000000E+01
  1.00800000E+00  1.00800000E+00  1.60000000E+01  1.00800000E+00  1.00800000E+00
  1.60000000E+01  1.00800000E+00  1.00800000E+00  1.60000000E+01  1.00800000E+00
  1.00800000E+00  1.60000000E+01  1.00800000E+00  1.00800000E+00  1.60000000E+01
  1.00800000E+00  1.00800000E+00  1.60000000E+01  1.00800000E+00  1.00800000E+00
  1.60000000E+01  1.00800000E+00  1.00800000E+00  1.60000000E+01  1.00800000E+00
  1.00800000E+00  1.60000000E+01  1.00800000E+00  1.00800000E+00  1.60000000E+01
  1.00800000E+00  1.00800000E+00  1.60000000E+01  1.00800000E+00  1.00800000E+00
  1.60000000E+01  1.00800000E+00  1.00800000E+00  1.60000000E+01  1.00800000E+00
  1.00800000E+00  1.60000000E+01  1.00800000E+00  1.00800000E+00  1.60000000E+01
  1.00800000E+00  1.00800000E+00  1.60000000E+01  1.00800000E+00  1.00800000E+00
  1.60000000E+01  1.00800000E+00  1.00800000E+00  1.60000000E+01  1.00800000E+00
  1.00800000E+00  1.60000000E+01  1.00800000E+00  1.00800000E+00  1.60000000E+01
  1.00800000E+00  1.00800000E+00  1.60000000E+01  1.00800000E+00  1.00800000E+00
  1.60000000E+01  1.00800000E+00  1.00800000E+00  1.60000000E+01  1.00800000E+00
  1.00800000E+00  1.60000000E+01  1.00800000E+00  1.00800000E+00  1.60000000E+01
  1.00800000E+00  1.00800000E+00  1.60000000E+01  1.00800000E+00  1.00800000E+00
  1.60000000E+01  1.00800000E+00  1.00800000E+00  1.60000000E+01  1.00800000E+00
  1.00800000E+00  1.60000000E+01  1.00800000E+00  1.00800000E+00  1.60000000E+01
  1.00800000E+00  1.00800000E+00  1.60000000E+01  1.00800000E+00  1.00800000E+00
  1.60000000E+01  1.00800000E+00  1.00800000E+00  1.60000000E+01  1.00800000E+00
  1.00800000E+00  1.60000000E+01  1.00800000E+00  1.00800000E+00  1.60000000E+01
  1.00800000E+00  1.00800000E+00  1.60000000E+01  1.00800000E+00  1.00800000E+00
  1.60000000E+01  1.00800000E+00  1.00800000E+00  1.60000000E+01  1.00800000E+00
  1.00800000E+00  1.60000000E+01  1.00800000E+00  1.00800000E+00  1.60000000E+01
  1.00800000E+00  1.00800000E+00  1.60000000E+01  1.00800000E+00  1.00800000E+00
  1.60000000E+01  1.00800000E+00  1.00800000E+00  1.60000000E+01  1.00800000E+00
  1.00800000E+00  1.60000000E+01  1.00800000E+00  1.00800000E+00  1.60000000E+01
  1.00800000E+00  1.00800000E+00  1.60000000E+01  1.00800000E+00  1.00800000E+00
  1.60000000E+01  1.00800000E+00  1.00800000E+00  1.60000000E+01  1.00800000E+00
  1.00800000E+00  1.60000000E+01  1.00800000E+00  1.00800000E+00  1.60000000E+01
  1.00800000E+00  1.00800000E+00  1.60000000E+01  1.00800000E+00  1.00800000E+00
  1.60000000E+01  1.00800000E+00  1.00800000E+00  1.60000000E+01  1.00800000E+00
  1.00800000E+00  1.60000000E+01  1.00800000E+00  1.00800000E+00  1.60000000E+01
  1.00800000E+00  1.00800000E+00  1.60000000E+01  1.00800000E+00  1.00800000E+00
  1.60000000E+01  1.00800000E+00  1.00800000E+00  1.60000000E+01  1.00800000E+00
  1.00800000E+00  1.60000000E+01  1.00800000E+00  1.00800000E+00  1.60000000E+01
  1.00800000E+00  1.00800000E+00  1.60000000E+01  1.00800000E+00  1.00800000E+00
  1.60000000E+01  1.00800000E+00  1.00800000E+00  1.60000000E+01  1.00800000E+00
  1.00800000E+00  1.60000000E+01  1.00800000E+00  1.00800000E+00  1.60000000E+01
  1.00800000E+00  1.00800000E+00  1.60000000E+01  1.00800000E+00  1.00800000E+00
  1.60000000E+01  1.00800000E+00  1.00800000E+00  1.60000000E+01  1.00800000E+00
  1.00800000E+00  1.60000000E+01  1.00800000E+00  1.00800000E+00  1.60000000E+01
  1.00800000E+00  1.00800000E+00  1.60000000E+01  1.00800000E+00  1.00800000E+00
  1.60000000E+01  1.00800000E+00  1.00800000E+00  1.60000000E+01  1.00800000E+00
  1.00800000E+00  1.60000000E+01  1.00800000E+00  1.00800000E+00  1.60000000E+01
  1.00800000E+00  1.00800000E+00  1.60000000E+01  1.00800000E+00  1.00800000E+00
  1.60000000E+01  1.00800000E+00  1.00800000E+00  1.60000000E+01  1.00800000E+00
  1.00800000E+00  1.60000000E+01  1.00800000E+00  1.00800000E+00  1.60000000E+01
  1.00800000E+00  1.00800000E+00  1.60000000E+01  1.00800000E+00  1.00800000E+00
  1.60000000E+01  1.00800000E+00  1.00800000E+00  1.60000000E+01  1.00800000E+00
  1.00800000E+00  1.60000000E+01  1.00800000E+00  1.00800000E+00  1.60000000E+01
  1.00800000E+00  1.00800000E+00  1.60000000E+01  1.00800000E+00  1.00800000E+00
  1.60000000E+01  1.00800000E+00  1.00800000E+00  1.60000000E+01  1.00800000E+00
  1.00800000E+00  1.60000000E+01  1.00800000E+00  1.00800000E+00  1.60000000E+01
  1.00800000E+00  1.00800000E+00  1.60000000E+01  1.00800000E+00  1.00800000E+00
  1.60000000E+01  1.00800000E+00  1.00800000E+00  1.60000000E+01  1.00800000E+00
  1.00800000E+00  1.60000000E+01  1.00800000E+00  1.00800000E+00  1.60000000E+01
  1.00800000E+00  1.00800000E+00  1.60000000E+01  1.00800000E+00  1.00800000E+00
  1.60000000E+01  1.00800000E+00  1.00800000E+00  1.60000000E+01  1.00800000E+00
  1.00800000E+00  1.60000000E+01  1.00800000E+00  1.00800000E+00  1.60000000E+01
  1.00800000E+00  1.00800000E+00  1.60000000E+01  1.00800000E+00  1.00800000E+00
  1.60000000E+01  1.00800000E+00  1.00800000E+00  1.60000000E+01  1.00800000E+00
  1.00800000E+00  1.60000000E+01  1.00800000E+00  1.00800000E+00  1.60000000E+01
  1.00800000E+00  1.00800000E+00  1.60000000E+01  1.00800000E+00  1.00800000E+00
  1.60000000E+01  1.00800000E+00  1.00800000E+00  1.60000000E+01  1.00800000E+00
  1.00800000E+00  1.60000000E+01  1.00800000E+00  1.00800000E+00  1.60000000E+01
  1.00800000E+00  1.00800000E+00  1.60000000E+01  1.00800000E+00  1.00800000E+00
  1.60000000E+01  1.00800000E+00  1.00800000E+00  1.60000000E+01  1.00800000E+00
  1.00800000E+00  1.60000000E+01  1.00800000E+00  1.00800000E+00  1.60000000E+01
  1.00800000E+00  1.00800000E+00  1.60000000E+01  1.00800000E+00  1.00800000E+00
  1.60000000E+01  1.00800000E+00  1.00800000E+00  1.60000000E+01  1.00800000E+00
  1.00800000E+00  1.60000000E+01  1.00800000E+00  1.00800000E+00  1.60000000E+01
  1.00800000E+00  1.00800000E+00  1.60000000E+01  1.00800000E+00  1.00800000E+00
  1.60000000E+01  1.00800000E+00  1.00800000E+00  1.60000000E+01  1.00800000E+00
  1.00800000E+00  1.60000000E+01  1.00800000E+00  1.00800000E+00  1.60000000E+01
  1.00800000E+00  1.00800000E+00  1.60000000E+01  1.00800000E+00  1.00800000E+00
  1.60000000E+01  1.00800000E+00  1.00800000E+00  1.60000000E+01  1.00800000E+00
  1.00800000E+00  1.60000000E+01  1.00800000E+00  1.00800000E+00  1.60000000E+01
  1.00800000E+00  1.00800000E+00  1.60000000E+01  1.00800000E+00  1.00800000E+00
  1.60000000E+01  1.00800000E+00  1.00800000E+00  1.60000000E+01  1.00800000E+00
  1.00800000E+00  1.60000000E+01  1.00800000E+00  1.00800000E+00  1.60000000E+01
  1.00800000E+00  1.00800000E+00  1.60000000E+01  1.00800000E+00  1.00800000E+00
  1.60000000E+01  1.00800000E+00  1.00800000E+00  1.60000000E+01  1.00800000E+00
  1.00800000E+00  1.60000000E+01  1.00800000E+00  1.00800000E+00  1.60000000E+01
  1.00800000E+00  1.00800000E+00  1.60000000E+01  1.00800000E+00  1.00800000E+00
  1.60000000E+01  1.00800000E+00  1.00800000E+00  1.60000000E+01  1.00800000E+00
  1.00800000E+00  1.60000000E+01  1.00800000E+00  1.00800000E+00  1.60000000E+01
  1.00800000E+00  1.00800000E+00  1.60000000E+01  1.00800000E+00  1.00800000E+00
  1.60000000E+01  1.00800000E+00  1.00800000E+00  1.60000000E+01  1.00800000E+00
  1.00800000E+00  1.60000000E+01  1.00800000E+00  1.00800000E+00  1.60000000E+01
  1.00800000E+00  1.00800000E+00  1.60000000E+01  1.00800000E+00  1.00800000E+00
  1.60000000E+01  1.00800000E+00  1.00800000E+00  1.60000000E+01  1.00800000E+00
  1.00800000E+00  1.60000000E+01  1.00800000E+00  1.00800000E+00  1.60000000E+01
  1.00800000E+00  1.00800000E+00  1.60000000E+01  1.00800000E+00  1.00800000E+00
  1.60000000E+01  1.00800000E+00  1.00800000E+00  1.60000000E+01  1.00800000E+00
  1.00800000E+00  1.60000000E+01  1.00800000E+00  1.00800000E+00  1.60000000E+01
  1.00800000E+00  1.00800000E+00  1.60000000E+01  1.00800000E+00  1.00800000E+00
  1.60000000E+01  1.00800000E+00  1.00800000E+00  1.60000000E+01  1.00800000E+00
  1.00800000E+00  1.60000000E+01  1.00800000E+00  1.00800000E+00  1.60000000E+01
  1.00800000E+00  1.00800000E+00  1.60000000E+01  1.00800000E+00  1.00800000E+00
  1.60000000E+01  1.00800000E+00  1.00800000E+00  1.60000000E+01  1.00800000E+00
  1.00800000E+00  1.60000000E+01  1.00800000E+00  1.00800000E+00  1.60000000E+01
  1.00800000E+00  1.00800000E+00  1.60000000E+01  1.00800000E+00  1.00800000E+00
  1.60000000E+01  1.00800000E+00  1.00800000E+00  1.60000000E+01  1.00800000E+00
  1.00800000E+00  1.60000000E+01  1.00800000E+00  1.00800000E+00  1.60000000E+01
  1.00800000E+00  1.00800000E+00  1.60000000E+01  1.00800000E+00  1.00800000E+00
  1.60000000E+01  1.00800000E+00  1.00800000E+00  1.60000000E+01  1.00800000E+00
  1.00800000E+00  1.60000000E+01  1.00800000E+00  1.00800000E+00  1.60000000E+01
  1.00800000E+00  1.00800000E+00  1.60000000E+01  1.00800000E+00  1.00800000E+00
  1.60000000E+01  1.00800000E+00  1.00800000E+00  1.60000000E+01  1.00800000E+00
  1.00800000E+00  1.60000000E+01  1.00800000E+00  1.00800000E+00  1.60000000E+01
  1.00800000E+00  1.00800000E+00  1.60000000E+01  1.00800000E+00  1.00800000E+00
  1.60000000E+01  1.00800000E+00  1.00800000E+00  1.60000000E+01  1.00800000E+00
  1.00800000E+00  1.60000000E+01  1.00800000E+00  1.00800000E+00  1.60000000E+01
  1.00800000E+00  1.00800000E+00  1.60000000E+01  1.00800000E+00  1.00800000E+00
  1.60000000E+01  1.00800000E+00  1.00800000E+00  1.60000000E+01  1.00800000E+00
  1.00800000E+00  1.60000000E+01  1.00800000E+00  1.00800000E+00  1.60000000E+01
  1.00800000E+00  1.00800000E+00  1.60000000E+01  1.00800000E+00  1.00800000E+00
  1.60000000E+01  1.00800000E+00  1.00800000E+00  1.60000000E+01  1.00800000E+00
  1.00800000E+00  1.60000000E+01  1.00800000E+00  1.00800000E+00  1.60000000E+01
  1.00800000E+00  1.00800000E+00  1.60000000E+01  1.00800000E+00  1.00800000E+00
  1.60000000E+01  1.00800000E+00  1.00800000E+00  1.60000000E+01  1.00800000E+00
  1.00800000E+00  1.60000000E+01  1.00800000E+00  1.00800000E+00  1.60000000E+01
  1.00800000E+00  1.00800000E+00  1.60000000E+01  1.00800000E+00  1.00800000E+00
  1.60000000E+01  1.00800000E+00  1.00800000E+00  1.60000000E+01  1.00800000E+00
  1.00800000E+00  1.60000000E+01  1.00800000E+00  1.00800000E+00  1.60000000E+01
  1.00800000E+00  1.00800000E+00  1.60000000E+01  1.00800000E+00  1.00800000E+00
  1.60000000E+01  1.00800000E+00  1.00800000E+00  1.60000000E+01  1.00800000E+00
  1.00800000E+00  1.60000000E+01  1.00800000E+00  1.00800000E+00  1.60000000E+01
  1.00800000E+00  1.00800000E+00  1.60000000E+01  1.00800000E+00  1.00800000E+00
  1.60000000E+01  1.00800000E+00  1.00800000E+00  1.60000000E+01  1.00800000E+00
  1.00800000E+00  1.60000000E+01  1.00800000E+00  1.00800000E+00  1.60000000E+01
  1.00800000E+00  1.00800000E+00  1.60000000E+01  1.00800000E+00  1.00800000E+00
  1.60000000E+01  1.00800000E+00  1.00800000E+00  1.60000000E+01  1.00800000E+00
  1.00800000E+00  1.60000000E+01  1.00800000E+00  1.00800000E+00  1.60000000E+01
  1.00800000E+00  1.00800000E+00  1.60000000E+01  1.00800000E+00  1.00800000E+00
  1.60000000E+01  1.00800000E+00  1.00800000E+00  1.60000000E+01  1.00800000E+00
  1.00800000E+00  1.60000000E+01  1.00800000E+00  1.00800000E+00  1.60000000E+01
  1.00800000E+00  1.00800000E+00  1.60000000E+01  1.00800000E+00  1.00800000E+00
  1.60000000E+01  1.00800000E+00  1.00800000E+00  1.60000000E+01  1.00800000E+00
  1.00800000E+00  1.60000000E+01  1.00800000E+00  1.00800000E+00  1.60000000E+01
  1.00800000E+00  1.00800000E+00  1.60000000E+01  1.00800000E+00  1.00800000E+00
  1.60000000E+01  1.00800000E+00  1.00800000E+00  1.60000000E+01  1.00800000E+00
  1.00800000E+00  1.60000000E+01  1.00800000E+00  1.00800000E+00  1.60000000E+01
  1.00800000E+00  1.00800000E+00  1.60000000E+01  1.00800000E+00  1.00800000E+00
  1.60000000E+01  1.00800000E+00  1.00800000E+00  1.60000000E+01  1.00800000E+00
  1.00800000E+00  1.60000000E+01  1.00800000E+00  1.00800000E+00  1.60000000E+01
  1.00800000E+00  1.00800000E+00  1.60000000E+01  1.00800000E+00  1.00800000E+00
  1.60000000E+01  1.00800000E+00  1.00800000E+00  1.60000000E+01  1.00800000E+00
  1.00800000E+00  1.60000000E+01  1.00800000E+00  1.00800000E+00  1.60000000E+01
  1.00800000E+00  1.00800000E+00  1.60000000E+01  1.00800000E+00  1.00800000E+00
  1.60000000E+01  1.00800000E+00  1.00800000E+00  1.60000000E+01  1.00800000E+00
  1.00800000E+00  1.60000000E+01  1.00800000E+00  1.00800000E+00  1.60000000E+01
  1.00800000E+00  1.00800000E+00  1.60000000E+01  1.00800000E+00  1.00800000E+00
  1.60000000E+01  1.00800000E+00  1.00800000E+00  1.60000000E+01  1.00800000E+00
  1.00800000E+00  1.60000000E+01  1.00800000E+00  1.00800000E+00  1.60000000E+01
  1.00800000E+00  1.00800000E+00  1.60000000E+01  1.00800000E+00  1.00800000E+00
  1.60000000E+01  1.00800000E+00  1.00800000E+00  1.60000000E+01  1.00800000E+00
  1.00800000E+00  1.60000000E+01  1.00800000E+00  1.00800000E+00  1.60000000E+01
  1.00800000E+00  1.00800000E+00  1.60000000E+01  1.00800000E+00  1.00800000E+00
  1.60000000E+01  1.00800000E+00  1.00800000E+00  1.60000000E+01  1.00800000E+00
  1.00800000E+00  1.60000000E+01  1.00800000E+00  1.00800000E+00  1.60000000E+01
  1.00800000E+00  1.00800000E+00  1.60000000E+01  1.00800000E+00  1.00800000E+00
  1.60000000E+01  1.00800000E+00  1.00800000E+00  1.60000000E+01  1.00800000E+00
  1.00800000E+00  1.60000000E+01  1.00800000E+00  1.00800000E+00  1.60000000E+01
  1.00800000E+00  1.00800000E+00  1.60000000E+01  1.00800000E+00  1.00800000E+00
  1.60000000E+01  1.00800000E+00  1.00800000E+00  1.60000000E+01  1.00800000E+00
  1.00800000E+00  1.60000000E+01  1.00800000E+00  1.00800000E+00  1.60000000E+01
  1.00800000E+00  1.00800000E+00  1.60000000E+01  1.00800000E+00  1.00800000E+00
  1.60000000E+01  1.00800000E+00  1.00800000E+00  1.60000000E+01  1.00800000E+00
  1.00800000E+00  1.60000000E+01  1.00800000E+00  1.00800000E+00  1.60000000E+01
  1.00800000E+00  1.00800000E+00  1.60000000E+01  1.00800000E+00  1.00800000E+00
  1.60000000E+01  1.00800000E+00  1.00800000E+00  1.60000000E+01  1.00800000E+00
  1.00800000E+00  1.60000000E+01  1.00800000E+00  1.00800000E+00  1.60000000E+01
  1.00800000E+00  1.00800000E+00  1.60000000E+01  1.00800000E+00  1.00800000E+00
  1.60000000E+01  1.00800000E+00  1.00800000E+00  1.60000000E+01  1.00800000E+00
  1.00800000E+00  1.60000000E+01  1.00800000E+00  1.00800000E+00  1.60000000E+01
  1.00800000E+00  1.00800000E+00  1.60000000E+01  1.00800000E+00  1.00800000E+00
  1.60000000E+01  1.00800000E+00  1.00800000E+00  1.60000000E+01  1.00800000E+00
  1.00800000E+00  1.60000000E+01  1.00800000E+00  1.00800000E+00  1.60000000E+01
  1.00800000E+00  1.00800000E+00  1.60000000E+01  1.00800000E+00  1.00800000E+00
  1.60000000E+01  1.00800000E+00  1.00800000E+00  1.60000000E+01  1.00800000E+00
  1.00800000E+00  1.60000000E+01  1.00800000E+00  1.00800000E+00  1.60000000E+01
  1.00800000E+00  1.00800000E+00  1.60000000E+01  1.00800000E+00  1.00800000E+00
  1.60000000E+01  1.00800000E+00  1.00800000E+00  1.60000000E+01  1.00800000E+00
  1.00800000E+00  1.60000000E+01  1.00800000E+00  1.00800000E+00  1.60000000E+01
  1.00800000E+00  1.00800000E+00  1.60000000E+01  1.00800000E+00  1.00800000E+00
  1.60000000E+01  1.00800000E+00  1.00800000E+00  1.60000000E+01  1.00800000E+00
  1.00800000E+00  1.60000000E+01  1.00800000E+00  1.00800000E+00  1.60000000E+01
  1.00800000E+00  1.00800000E+00  1.60000000E+01  1.00800000E+00  1.00800000E+00
  1.60000000E+01  1.00800000E+00  1.00800000E+00  1.60000000E+01  1.00800000E+00
  1.00800000E+00  1.60000000E+01  1.00800000E+00  1.00800000E+00  1.60000000E+01
  1.00800000E+00  1.00800000E+00  1.60000000E+01  1.00800000E+00  1.00800000E+00
  1.60000000E+01  1.00800000E+00  1.00800000E+00  1.60000000E+01  1.00800000E+00
  1.00800000E+00  1.60000000E+01  1.00800000E+00  1.00800000E+00  1.60000000E+01
  1.00800000E+00  1.00800000E+00  1.60000000E+01  1.00800000E+00  1.00800000E+00
  1.60000000E+01  1.00800000E+00  1.00800000E+00  1.60000000E+01  1.00800000E+00
  1.00800000E+00  1.60000000E+01  1.00800000E+00  1.00800000E+00  1.60000000E+01
  1.00800000E+00  1.00800000E+00  1.60000000E+01  1.00800000E+00  1.00800000E+00
  1.60000000E+01  1.00800000E+00  1.00800000E+00  1.60000000E+01  1.00800000E+00
  1.00800000E+00  1.60000000E+01  1.00800000E+00  1.00800000E+00  1.60000000E+01
  1.00800000E+00  1.00800000E+00  1.60000000E+01  1.00800000E+00  1.00800000E+00
  1.60000000E+01  1.00800000E+00  1.00800000E+00  1.60000000E+01  1.00800000E+00
  1.00800000E+00  1.60000000E+01  1.00800000E+00  1.00800000E+00  1.60000000E+01
  1.00800000E+00  1.00800000E+00  1.60000000E+01  1.00800000E+00  1.00800000E+00
  1.60000000E+01  1.00800000E+00  1.00800000E+00  1.60000000E+01  1.00800000E+00
  1.00800000E+00  1.60000000E+01  1.00800000E+00  1.00800000E+00  1.60000000E+01
  1.00800000E+00  1.00800000E+00  1.60000000E+01  1.00800000E+00  1.00800000E+00
  1.60000000E+01  1.00800000E+00  1.00800000E+00  1.60000000E+01  1.00800000E+00
  1.00800000E+00  1.60000000E+01  1.00800000E+00  1.00800000E+00  1.60000000E+01
  1.00800000E+00  1.00800000E+00  1.60000000E+01  1.00800000E+00  1.00800000E+00
  1.60000000E+01  1.00800000E+00  1.00800000E+00  1.60000000E+01  1.00800000E+00
  1.00800000E+00  1.60000000E+01  1.00800000E+00  1.00800000E+00  1.60000000E+01
  1.00800000E+00  1.00800000E+00  1.60000000E+01  1.00800000E+00  1.00800000E+00
  1.60000000E+01  1.00800000E+00  1.00800000E+00  1.60000000E+01  1.00800000E+00
  1.00800000E+00  1.60000000E+01  1.00800000E+00  1.00800000E+00  1.60000000E+01
  1.00800000E+00  1.00800000E+00  1.60000000E+01  1.00800000E+00  1.00800000E+00
  1.60000000E+01  1.00800000E+00  1.00800000E+00  1.60000000E+01  1.00800000E+00
  1.00800000E+00  1.60000000E+01  1.00800000E+00  1.00800000E+00  1.60000000E+01
  1.00800000E+00  1.00800000E+00  1.60000000E+01  1.00800000E+00  1.00800000E+00
  1.60000000E+01  1.00800000E+00  1.00800000E+00  1.60000000E+01  1.00800000E+00
  1.00800000E+00  1.60000000E+01  1.00800000E+00  1.00800000E+00  1.60000000E+01
  1.00800000E+00  1.00800000E+00  1.60000000E+01  1.00800000E+00  1.00800000E+00
  1.60000000E+01  1.00800000E+00  1.00800000E+00  1.60000000E+01  1.00800000E+00
  1.00800000E+00  1.60000000E+01  1.00800000E+00  1.00800000E+00  1.60000000E+01
  1.00800000E+00  1.00800000E+00  1.60000000E+01  1.00800000E+00  1.00800000E+00
  1.60000000E+01  1.00800000E+00  1.00800000E+00  1.60000000E+01  1.00800000E+00
  1.00800000E+00  1.60000000E+01  1.00800000E+00  1.00800000E+00  1.60000000E+01
  1.00800000E+00  1.00800000E+00  1.60000000E+01  1.00800000E+00  1.00800000E+00
  1.60000000E+01  1.00800000E+00  1.00800000E+00  1.60000000E+01  1.00800000E+00
  1.00800000E+00  1.60000000E+01  1.00800000E+00  1.00800000E+00  1.60000000E+01
  1.00800000E+00  1.00800000E+00  1.60000000E+01  1.00800000E+00  1.00800000E+00
  1.60000000E+01  1.00800000E+00  1.00800000E+00  1.60000000E+01  1.00800000E+00
  1.00800000E+00  1.60000000E+01  1.00800000E+00  1.00800000E+00  1.60000000E+01
  1.00800000E+00  1.00800000E+00  1.60000000E+01  1.00800000E+00  1.00800000E+00
  1.60000000E+01  1.00800000E+00  1.00800000E+00  1.60000000E+01  1.00800000E+00
  1.00800000E+00  1.60000000E+01  1.00800000E+00  1.00800000E+00  1.60000000E+01
  1.00800000E+00  1.00800000E+00  1.60000000E+01  1.00800000E+00  1.00800000E+00
  1.60000000E+01  1.00800000E+00  1.00800000E+00  1.60000000E+01  1.00800000E+00
  1.00800000E+00  1.60000000E+01  1.00800000E+00  1.00800000E+00  1.60000000E+01
  1.00800000E+00  1.00800000E+00  1.60000000E+01  1.00800000E+00  1.00800000E+00
  1.60000000E+01  1.00800000E+00  1.00800000E+00  1.60000000E+01  1.00800000E+00
  1.00800000E+00  1.60000000E+01  1.00800000E+00  1.00800000E+00  1.60000000E+01
  1.00800000E+00  1.00800000E+00  1.60000000E+01  1.00800000E+00  1.00800000E+00
  1.60000000E+01  1.00800000E+00  1.00800000E+00  1.60000000E+01  1.00800000E+00
  1.00800000E+00  1.60000000E+01  1.00800000E+00  1.00800000E+00  1.60000000E+01
  1.00800000E+00  1.00800000E+00  1.60000000E+01  1.00800000E+00  1.00800000E+00
  1.60000000E+01  1.00800000E+00  1.00800000E+00  1.60000000E+01  1.00800000E+00
  1.00800000E+00  1.60000000E+01  1.00800000E+00  1.00800000E+00  1.60000000E+01
  1.00800000E+00  1.00800000E+00  1.60000000E+01  1.00800000E+00  1.00800000E+00
  1.60000000E+01  1.00800000E+00  1.00800000E+00  1.60000000E+01  1.00800000E+00
  1.00800000E+00  1.60000000E+01  1.00800000E+00  1.00800000E+00  1.60000000E+01
  1.00800000E+00  1.00800000E+00  1.60000000E+01  1.00800000E+00  1.00800000E+00
  1.60000000E+01  1.00800000E+00  1.00800000E+00  1.60000000E+01  1.00800000E+00
  1.00800000E+00  1.60000000E+01  1.00800000E+00  1.00800000E+00  1.60000000E+01
  1.00800000E+00  1.00800000E+00  1.60000000E+01  1.00800000E+00  1.00800000E+00
  1.60000000E+01  1.00800000E+00  1.00800000E+00  1.60000000E+01  1.00800000E+00
  1.00800000E+00  1.60000000E+01  1.00800000E+00  1.00800000E+00  1.60000000E+01
  1.00800000E+00  1.00800000E+00  1.60000000E+01  1.00800000E+00  1.00800000E+00
  1.60000000E+01  1.00800000E+00  1.00800000E+00  1.60000000E+01  1.00800000E+00
  1.00800000E+00  1.60000000E+01  1.00800000E+00  1.00800000E+00  1.60000000E+01
  1.00800000E+00  1.00800000E+00  1.60000000E+01  1.00800000E+00  1.00800000E+00
  1.60000000E+01  1.00800000E+00  1.00800000E+00  1.60000000E+01  1.00800000E+00
  1.00800000E+00  1.60000000E+01  1.00800000E+00  1.00800000E+00  1.60000000E+01
  1.00800000E+00  1.00800000E+00  1.60000000E+01  1.00800000E+00  1.00800000E+00
  1.60000000E+01  1.00800000E+00  1.00800000E+00  1.60000000E+01  1.00800000E+00
  1.00800000E+00  1.60000000E+01  1.00800000E+00  1.00800000E+00  1.60000000E+01
  1.00800000E+00  1.00800000E+00  1.60000000E+01  1.00800000E+00  1.00800000E+00
  1.60000000E+01  1.00800000E+00  1.00800000E+00  1.60000000E+01  1.00800000E+00
  1.00800000E+00  1.60000000E+01  1.00800000E+00  1.00800000E+00  1.60000000E+01
  1.00800000E+00  1.00800000E+00  1.60000000E+01  1.00800000E+00  1.00800000E+00
  1.60000000E+01  1.00800000E+00  1.00800000E+00  1.60000000E+01  1.00800000E+00
  1.00800000E+00  1.60000000E+01  1.00800000E+00  1.00800000E+00  1.60000000E+01
  1.00800000E+00  1.00800000E+00  1.60000000E+01  1.00800000E+00  1.00800000E+00
  1.60000000E+01  1.00800000E+00  1.00800000E+00  1.60000000E+01  1.00800000E+00
  1.00800000E+00  1.60000000E+01  1.00800000E+00  1.00800000E+00  1.60000000E+01
  1.00800000E+00  1.00800000E+00  1.60000000E+01  1.00800000E+00  1.00800000E+00
  1.60000000E+01  1.00800000E+00  1.00800000E+00  1.60000000E+01  1.00800000E+00
  1.00800000E+00  1.60000000E+01  1.00800000E+00  1.00800000E+00  1.60000000E+01
  1.00800000E+00  1.00800000E+00  1.60000000E+01  1.00800000E+00  1.00800000E+00
  1.60000000E+01  1.00800000E+00  1.00800000E+00  1.60000000E+01  1.00800000E+00
  1.00800000E+00  1.60000000E+01  1.00800000E+00  1.00800000E+00  1.60000000E+01
  1.00800000E+00  1.00800000E+00  1.60000000E+01  1.00800000E+00  1.00800000E+00
  1.60000000E+01  1.00800000E+00  1.00800000E+00  1.60000000E+01  1.00800000E+00
  1.00800000E+00  1.60000000E+01  1.00800000E+00  1.00800000E+00  1.60000000E+01
  1.00800000E+00  1.00800000E+00  1.60000000E+01  1.00800000E+00  1.00800000E+00
  1.60000000E+01  1.00800000E+00  1.00800000E+00  1.60000000E+01  1.00800000E+00
  1.00800000E+00  1.60000000E+01  1.00800000E+00  1.00800000E+00  1.60000000E+01
  1.00800000E+00  1.00800000E+00  1.60000000E+01  1.00800000E+00  1.00800000E+00
  1.60000000E+01  1.00800000E+00  1.00800000E+00  1.60000000E+01  1.00800000E+00
  1.00800000E+00  1.60000000E+01  1.00800000E+00  1.00800000E+00  1.60000000E+01
  1.00800000E+00  1.00800000E+00  1.60000000E+01  1.00800000E+00  1.00800000E+00
  1.60000000E+01  1.00800000E+00  1.00800000E+00  1.60000000E+01  1.00800000E+00
  1.00800000E+00  1.60000000E+01  1.00800000E+00  1.00800000E+00  1.60000000E+01
  1.00800000E+00  1.00800000E+00  1.60000000E+01  1.00800000E+00  1.00800000E+00
  1.60000000E+01  1.00800000E+00  1.00800000E+00  1.60000000E+01  1.00800000E+00
  1.00800000E+00  1.60000000E+01  1.00800000E+00  1.00800000E+00  1.60000000E+01
  1.00800000E+00  1.00800000E+00  1.60000000E+01  1.00800000E+00  1.00800000E+00
  1.60000000E+01  1.00800000E+00  1.00800000E+00  1.60000000E+01  1.00800000E+00
  1.00800000E+00  1.60000000E+01  1.00800000E+00  1.00800000E+00  1.60000000E+01
  1.00800000E+00  1.00800000E+00  1.60000000E+01  1.00800000E+00  1.00800000E+00
  1.60000000E+01  1.00800000E+00  1.00800000E+00  1.60000000E+01  1.00800000E+00
  1.00800000E+00  1.60000000E+01  1.00800000E+00  1.00800000E+00  1.60000000E+01
  1.00800000E+00  1.00800000E+00  1.60000000E+01  1.00800000E+00  1.00800000E+00
  1.60000000E+01  1.00800000E+00  1.00800000E+00  1.60000000E+01  1.00800000E+00
  1.00800000E+00  1.60000000E+01  1.00800000E+00  1.00800000E+00  1.60000000E+01
  1.00800000E+00  1.00800000E+00  1.60000000E+01  1.00800000E+00  1.00800000E+00
  1.60000000E+01  1.00800000E+00  1.00800000E+00  1.60000000E+01  1.00800000E+00
  1.00800000E+00  1.60000000E+01  1.00800000E+00  1.00800000E+00  1.60000000E+01
  1.00800000E+00  1.00800000E+00  1.60000000E+01  1.00800000E+00  1.00800000E+00
  1.60000000E+01  1.00800000E+00  1.00800000E+00  1.60000000E+01  1.00800000E+00
  1.00800000E+00  1.60000000E+01  1.00800000E+00  1.00800000E+00  1.60000000E+01
  1.00800000E+00  1.00800000E+00  1.60000000E+01  1.00800000E+00  1.00800000E+00
  1.60000000E+01  1.00800000E+00  1.00800000E+00  1.60000000E+01  1.00800000E+00
  1.00800000E+00  1.60000000E+01  1.00800000E+00  1.00800000E+00  1.60000000E+01
  1.00800000E+00  1.00800000E+00  1.60000000E+01  1.00800000E+00  1.00800000E+00
  1.60000000E+01  1.00800000E+00  1.00800000E+00  1.60000000E+01  1.00800000E+00
  1.00800000E+00  1.60000000E+01  1.00800000E+00  1.00800000E+00  1.60000000E+01
  1.00800000E+00  1.00800000E+00  1.60000000E+01  1.00800000E+00  1.00800000E+00
  1.60000000E+01  1.00800000E+00  1.00800000E+00  1.60000000E+01  1.00800000E+00
  1.00800000E+00  1.60000000E+01  1.00800000E+00  1.00800000E+00  1.60000000E+01
  1.00800000E+00  1.00800000E+00  1.60000000E+01  1.00800000E+00  1.00800000E+00
  1.60000000E+01  1.00800000E+00  1.00800000E+00  1.60000000E+01  1.00800000E+00
  1.00800000E+00  1.60000000E+01  1.00800000E+00  1.00800000E+00  1.60000000E+01
  1.00800000E+00  1.00800000E+00  1.60000000E+01  1.00800000E+00  1.00800000E+00
  1.60000000E+01  1.00800000E+00  1.00800000E+00  1.60000000E+01  1.00800000E+00
  1.00800000E+00  1.60000000E+01  1.00800000E+00  1.00800000E+00  1.60000000E+01
  1.00800000E+00  1.00800000E+00  1.60000000E+01  1.00800000E+00  1.00800000E+00
  1.60000000E+01  1.00800000E+00  1.00800000E+00  1.60000000E+01  1.00800000E+00
  1.00800000E+00  1.60000000E+01  1.00800000E+00  1.00800000E+00  1.60000000E+01
  1.00800000E+00  1.00800000E+00  1.60000000E+01  1.00800000E+00  1.00800000E+00
  1.60000000E+01  1.00800000E+00  1.00800000E+00  1.60000000E+01  1.00800000E+00
  1.00800000E+00  1.60000000E+01  1.00800000E+00  1.00800000E+00  1.60000000E+01
  1.00800000E+00  1.00800000E+00  1.60000000E+01  1.00800000E+00  1.00800000E+00
  1.60000000E+01  1.00800000E+00  1.00800000E+00  1.60000000E+01  1.00800000E+00
  1.00800000E+00  1.60000000E+01  1.00800000E+00  1.00800000E+00  1.60000000E+01
  1.00800000E+00  1.00800000E+00  1.60000000E+01  1.00800000E+00  1.00800000E+00
  1.60000000E+01  1.00800000E+00  1.00800000E+00  1.60000000E+01  1.00800000E+00
  1.00800000E+00  1.60000000E+01  1.00800000E+00  1.00800000E+00  1.60000000E+01
  1.00800000E+00  1.00800000E+00  1.60000000E+01  1.00800000E+00  1.00800000E+00
  1.60000000E+01  1.00800000E+00  1.00800000E+00  1.60000000E+01  1.00800000E+00
  1.00800000E+00  1.60000000E+01  1.00800000E+00  1.00800000E+00  1.60000000E+01
  1.00800000E+00  1.00800000E+00  1.60000000E+01  1.00800000E+00  1.00800000E+00
  1.60000000E+01  1.00800000E+00  1.00800000E+00  1.60000000E+01  1.00800000E+00
  1.00800000E+00  1.60000000E+01  1.00800000E+00  1.00800000E+00  1.60000000E+01
  1.00800000E+00  1.00800000E+00  1.60000000E+01  1.00800000E+00  1.00800000E+00
  1.60000000E+01  1.00800000E+00  1.00800000E+00  1.60000000E+01  1.00800000E+00
  1.00800000E+00  1.60000000E+01  1.00800000E+00  1.00800000E+00  1.60000000E+01
  1.00800000E+00  1.00800000E+00  1.60000000E+01  1.00800000E+00  1.00800000E+00
  1.60000000E+01  1.00800000E+00  1.00800000E+00  1.60000000E+01  1.00800000E+00
  1.00800000E+00  1.60000000E+01  1.00800000E+00  1.00800000E+00  1.60000000E+01
  1.00800000E+00  1.00800000E+00  1.60000000E+01  1.00800000E+00  1.00800000E+00
  1.60000000E+01  1.00800000E+00  1.00800000E+00  1.60000000E+01  1.00800000E+00
  1.00800000E+00  1.60000000E+01  1.00800000E+00  1.00800000E+00  1.60000000E+01
  1.00800000E+00  1.00800000E+00  1.60000000E+01  1.00800000E+00  1.00800000E+00
  1.60000000E+01  1.00800000E+00  1.00800000E+00  1.60000000E+01  1.00800000E+00
  1.00800000E+00  1.60000000E+01  1.00800000E+00  1.00800000E+00  1.60000000E+01
  1.00800000E+00  1.00800000E+00  1.60000000E+01  1.00800000E+00  1.00800000E+00
  1.60000000E+01  1.00800000E+00  1.00800000E+00  1.60000000E+01  1.00800000E+00
  1.00800000E+00  1.60000000E+01  1.00800000E+00  1.00800000E+00  1.60000000E+01
  1.00800000E+00  1.00800000E+00  1.60000000E+01  1.00800000E+00  1.00800000E+00
  1.60000000E+01  1.00800000E+00  1.00800000E+00  1.60000000E+01  1.00800000E+00
  1.00800000E+00  1.60000000E+01  1.00800000E+00  1.00800000E+00  1.60000000E+01
  1.00800000E+00  1.00800000E+00  1.60000000E+01  1.00800000E+00  1.00800000E+00
  1.60000000E+01  1.00800000E+00  1.00800000E+00  1.60000000E+01  1.00800000E+00
  1.00800000E+00  1.60000000E+01  1.00800000E+00  1.00800000E+00  1.60000000E+01
  1.00800000E+00  1.00800000E+00  1.60000000E+01  1.00800000E+00  1.00800000E+00
  1.60000000E+01  1.00800000E+00  1.00800000E+00  1.60000000E+01  1.00800000E+00
  1.00800000E+00  1.60000000E+01  1.00800000E+00  1.00800000E+00  1.60000000E+01
  1.00800000E+00  1.00800000E+00  1.60000000E+01  1.00800000E+00  1.00800000E+00
  1.60000000E+01  1.00800000E+00  1.00800000E+00  1.60000000E+01  1.00800000E+00
  1.00800000E+00  1.60000000E+01  1.00800000E+00  1.00800000E+00  1.60000000E+01
  1.00800000E+00  1.00800000E+00  1.60000000E+01  1.00800000E+00  1.00800000E+00
  1.60000000E+01  1.00800000E+00  1.00800000E+00  1.60000000E+01  1.00800000E+00
  1.00800000E+00  1.60000000E+01  1.00800000E+00  1.00800000E+00  1.60000000E+01
  1.00800000E+00  1.00800000E+00  1.60000000E+01  1.00800000E+00  1.00800000E+00
  1.60000000E+01  1.00800000E+00  1.00800000E+00  1.60000000E+01  1.00800000E+00
  1.00800000E+00  1.60000000E+01  1.00800000E+00  1.00800000E+00  1.60000000E+01
  1.00800000E+00  1.00800000E+00  1.60000000E+01  1.00800000E+00  1.00800000E+00
  1.60000000E+01  1.00800000E+00  1.00800000E+00  1.60000000E+01  1.00800000E+00
  1.00800000E+00  1.60000000E+01  1.00800000E+00  1.00800000E+00  1.60000000E+01
  1.00800000E+00  1.00800000E+00  1.60000000E+01  1.00800000E+00  1.00800000E+00
  1.60000000E+01  1.00800000E+00  1.00800000E+00  1.60000000E+01  1.00800000E+00
  1.00800000E+00  1.60000000E+01  1.00800000E+00  1.00800000E+00  1.60000000E+01
  1.00800000E+00  1.00800000E+00  1.60000000E+01  1.00800000E+00  1.00800000E+00
  1.60000000E+01  1.00800000E+00  1.00800000E+00  1.60000000E+01  1.00800000E+00
  1.00800000E+00  1.60000000E+01  1.00800000E+00  1.00800000E+00  1.60000000E+01
  1.00800000E+00  1.00800000E+00  1.60000000E+01  1.00800000E+00  1.00800000E+00
  1.60000000E+01  1.00800000E+00  1.00800000E+00  1.60000000E+01  1.00800000E+00
  1.00800000E+00  1.60000000E+01  1.00800000E+00  1.00800000E+00  1.60000000E+01
  1.00800000E+00  1.00800000E+00  1.60000000E+01  1.00800000E+00  1.00800000E+00
  1.60000000E+01  1.00800000E+00  1.00800000E+00  1.60000000E+01  1.00800000E+00
  1.00800000E+00  1.60000000E+01  1.00800000E+00  1.00800000E+00  1.60000000E+01
  1.00800000E+00  1.00800000E+00  1.60000000E+01  1.00800000E+00  1.00800000E+00
  1.60000000E+01  1.00800000E+00  1.00800000E+00  1.60000000E+01  1.00800000E+00
  1.00800000E+00  1.60000000E+01  1.00800000E+00  1.00800000E+00  1.60000000E+01
  1.00800000E+00  1.00800000E+00  1.60000000E+01  1.00800000E+00  1.00800000E+00
  1.60000000E+01  1.00800000E+00  1.00800000E+00  1.60000000E+01  1.00800000E+00
  1.00800000E+00  1.60000000E+01  1.00800000E+00  1.00800000E+00  1.60000000E+01
  1.00800000E+00  1.00800000E+00  1.60000000E+01  1.00800000E+00  1.00800000E+00
  1.60000000E+01  1.00800000E+00  1.00800000E+00  1.60000000E+01  1.00800000E+00
  1.00800000E+00  1.60000000E+01  1.00800000E+00  1.00800000E+00  1.60000000E+01
  1.00800000E+00  1.00800000E+00  1.60000000E+01  1.00800000E+00  1.00800000E+00
  1.60000000E+01  1.00800000E+00  1.00800000E+00  1.60000000E+01  1.00800000E+00
  1.00800000E+00  1.60000000E+01  1.00800000E+00  1.00800000E+00  1.60000000E+01
  1.00800000E+00  1.00800000E+00  1.60000000E+01  1.00800000E+00  1.00800000E+00
  1.60000000E+01  1.00800000E+00  1.00800000E+00  1.60000000E+01  1.00800000E+00
  1.00800000E+00  1.60000000E+01  1.00800000E+00  1.00800000E+00  1.60000000E+01
  1.00800000E+00  1.00800000E+00  1.60000000E+01  1.00800000E+00  1.00800000E+00
  1.60000000E+01  1.00800000E+00  1.00800000E+00  1.60000000E+01  1.00800000E+00
  1.00800000E+00  1.60000000E+01  1.00800000E+00  1.00800000E+00  1.60000000E+01
  1.00800000E+00  1.00800000E+00  1.60000000E+01  1.00800000E+00  1.00800000E+00
  1.60000000E+01  1.00800000E+00  1.00800000E+00  1.60000000E+01  1.00800000E+00
  1.00800000E+00  1.60000000E+01  1.00800000E+00  1.00800000E+00  1.60000000E+01
  1.00800000E+00  1.00800000E+00  1.60000000E+01  1.00800000E+00  1.00800000E+00
  1.60000000E+01  1.00800000E+00  1.00800000E+00  1.60000000E+01  1.00800000E+00
  1.00800000E+00  1.60000000E+01  1.00800000E+00  1.00800000E+00  1.60000000E+01
  1.00800000E+00  1.00800000E+00  1.60000000E+01  1.00800000E+00  1.00800000E+00
  1.60000000E+01  1.00800000E+00  1.00800000E+00  1.60000000E+01  1.00800000E+00
  1.00800000E+00  1.60000000E+01  1.00800000E+00  1.00800000E+00  1.60000000E+01
  1.00800000E+00  1.00800000E+00  1.60000000E+01  1.00800000E+00  1.00800000E+00
  1.60000000E+01  1.00800000E+00  1.00800000E+00  1.60000000E+01  1.00800000E+00
  1.00800000E+00  1.60000000E+01  1.00800000E+00  1.00800000E+00  1.60000000E+01
  1.00800000E+00  1.00800000E+00  1.60000000E+01  1.00800000E+00  1.00800000E+00
  1.60000000E+01  1.00800000E+00  1.00800000E+00  1.60000000E+01  1.00800000E+00
  1.00800000E+00  1.60000000E+01  1.00800000E+00  1.00800000E+00  1.60000000E+01
  1.00800000E+00  1.00800000E+00  1.60000000E+01  1.00800000E+00  1.00800000E+00
  1.60000000E+01  1.00800000E+00  1.00800000E+00  1.60000000E+01  1.00800000E+00
  1.00800000E+00  1.60000000E+01  1.00800000E+00  1.00800000E+00  1.60000000E+01
  1.00800000E+00  1.00800000E+00  1.60000000E+01  1.00800000E+00  1.00800000E+00
  1.60000000E+01  1.00800000E+00  1.00800000E+00  1.60000000E+01  1.00800000E+00
  1.00800000E+00  1.60000000E+01  1.00800000E+00  1.00800000E+00  1.60000000E+01
  1.00800000E+00  1.00800000E+00  1.60000000E+01  1.00800000E+00  1.00800000E+00
  1.60000000E+01  1.00800000E+00  1.00800000E+00  1.60000000E+01  1.00800000E+00
  1.00800000E+00  1.60000000E+01  1.00800000E+00  1.00800000E+00  1.60000000E+01
  1.00800000E+00  1.00800000E+00  1.60000000E+01  1.00800000E+00  1.00800000E+00
  1.60000000E+01  1.00800000E+00  1.00800000E+00  1.60000000E+01  1.00800000E+00
  1.00800000E+00  1.60000000E+01  1.00800000E+00  1.00800000E+00  1.60000000E+01
  1.00800000E+00  1.00800000E+00  1.60000000E+01  1.00800000E+00  1.00800000E+00
  1.60000000E+01  1.00800000E+00  1.00800000E+00  1.60000000E+01  1.00800000E+00
  1.00800000E+00  1.60000000E+01  1.00800000E+00  1.00800000E+00  1.60000000E+01
  1.00800000E+00  1.00800000E+00  1.60000000E+01  1.00800000E+00  1.00800000E+00
  1.60000000E+01  1.00800000E+00  1.00800000E+00  1.60000000E+01  1.00800000E+00
  1.00800000E+00  1.60000000E+01  1.00800000E+00  1.00800000E+00  1.60000000E+01
  1.00800000E+00  1.00800000E+00  1.60000000E+01  1.00800000E+00  1.00800000E+00
  1.60000000E+01  1.00800000E+00  1.00800000E+00  1.60000000E+01  1.00800000E+00
  1.00800000E+00  1.60000000E+01  1.00800000E+00  1.00800000E+00  1.60000000E+01
  1.00800000E+00  1.00800000E+00  1.60000000E+01  1.00800000E+00  1.00800000E+00
  1.60000000E+01  1.00800000E+00  1.00800000E+00  1.60000000E+01  1.00800000E+00
  1.00800000E+00  1.60000000E+01  1.00800000E+00  1.00800000E+00  1.60000000E+01
  1.00800000E+00  1.00800000E+00  1.60000000E+01  1.00800000E+00  1.00800000E+00
  1.60000000E+01  1.00800000E+00  1.00800000E+00  1.60000000E+01  1.00800000E+00
  1.00800000E+00  1.60000000E+01  1.00800000E+00  1.00800000E+00  1.60000000E+01
  1.00800000E+00  1.00800000E+00  1.60000000E+01  1.00800000E+00  1.00800000E+00
  1.60000000E+01  1.00800000E+00  1.00800000E+00  1.60000000E+01  1.00800000E+00
  1.00800000E+00  1.60000000E+01  1.00800000E+00  1.00800000E+00  1.60000000E+01
  1.00800000E+00  1.00800000E+00  1.60000000E+01  1.00800000E+00  1.00800000E+00
  1.60000000E+01  1.00800000E+00  1.00800000E+00  1.60000000E+01  1.00800000E+00
  1.00800000E+00  1.60000000E+01  1.00800000E+00  1.00800000E+00  1.60000000E+01
  1.00800000E+00  1.00800000E+00  1.60000000E+01  1.00800000E+00  1.00800000E+00
  1.60000000E+01  1.00800000E+00  1.00800000E+00  1.60000000E+01  1.00800000E+00
  1.00800000E+00  1.60000000E+01  1.00800000E+00  1.00800000E+00  1.60000000E+01
  1.00800000E+00  1.00800000E+00  1.60000000E+01  1.00800000E+00  1.00800000E+00
  1.60000000E+01  1.00800000E+00  1.00800000E+00  1.60000000E+01  1.00800000E+00
  1.00800000E+00  1.60000000E+01  1.00800000E+00  1.00800000E+00  1.60000000E+01
  1.00800000E+00  1.00800000E+00  1.60000000E+01  1.00800000E+00  1.00800000E+00
  1.60000000E+01  1.00800000E+00  1.00800000E+00  1.60000000E+01  1.00800000E+00
  1.00800000E+00  1.60000000E+01  1.00800000E+00  1.00800000E+00  1.60000000E+01
  1.00800000E+00  1.00800000E+00  1.60000000E+01  1.00800000E+00  1.00800000E+00
  1.60000000E+01  1.00800000E+00  1.00800000E+00  1.60000000E+01  1.00800000E+00
  1.00800000E+00  1.60000000E+01  1.00800000E+00  1.00800000E+00  1.60000000E+01
  1.00800000E+00  1.00800000E+00  1.60000000E+01  1.00800000E+00  1.00800000E+00
  1.60000000E+01  1.00800000E+00  1.00800000E+00  1.60000000E+01  1.00800000E+00
  1.00800000E+00  1.60000000E+01  1.00800000E+00  1.00800000E+00  1.60000000E+01
  1.00800000E+00  1.00800000E+00  1.60000000E+01  1.00800000E+00  1.00800000E+00
  1.60000000E+01  1.00800000E+00  1.00800000E+00  1.60000000E+01  1.00800000E+00
  1.00800000E+00  1.60000000E+01  1.00800000E+00  1.00800000E+00  1.60000000E+01
  1.00800000E+00  1.00800000E+00  1.60000000E+01  1.00800000E+00  1.00800000E+00
  1.60000000E+01  1.00800000E+00  1.00800000E+00  1.60000000E+01  1.00800000E+00
  1.00800000E+00  1.60000000E+01  1.00800000E+00  1.00800000E+00  1.60000000E+01
  1.00800000E+00  1.00800000E+00  1.60000000E+01  1.00800000E+00  1.00800000E+00
  1.60000000E+01  1.00800000E+00  1.00800000E+00  1.60000000E+01  1.00800000E+00
  1.00800000E+00  1.60000000E+01  1.00800000E+00  1.00800000E+00  1.60000000E+01
  1.00800000E+00  1.00800000E+00  1.60000000E+01  1.00800000E+00  1.00800000E+00
  1.60000000E+01  1.00800000E+00  1.00800000E+00  1.60000000E+01  1.00800000E+00
  1.00800000E+00  1.60000000E+01  1.00800000E+00  1.00800000E+00  1.60000000E+01
  1.00800000E+00  1.00800000E+00  1.60000000E+01  1.00800000E+00  1.00800000E+00
  1.60000000E+01  1.00800000E+00  1.00800000E+00  1.60000000E+01  1.00800000E+00
  1.00800000E+00  1.60000000E+01  1.00800000E+00  1.00800000E+00  1.60000000E+01
  1.00800000E+00  1.00800000E+00  1.60000000E+01  1.00800000E+00  1.00800000E+00
  1.60000000E+01  1.00800000E+00  1.00800000E+00  1.60000000E+01  1.00800000E+00
  1.00800000E+00  1.60000000E+01  1.00800000E+00  1.00800000E+00  1.60000000E+01
  1.00800000E+00  1.00800000E+00  1.60000000E+01  1.00800000E+00  1.00800000E+00
  1.60000000E+01  1.00800000E+00  1.00800000E+00  1.60000000E+01  1.00800000E+00
  1.00800000E+00  1.60000000E+01  1.00800000E+00  1.00800000E+00  1.60000000E+01
  1.00800000E+00  1.00800000E+00  1.60000000E+01  1.00800000E+00  1.00800000E+00
  1.60000000E+01  1.00800000E+00  1.00800000E+00  1.60000000E+01  1.00800000E+00
  1.00800000E+00  1.60000000E+01  1.00800000E+00  1.00800000E+00  1.60000000E+01
  1.00800000E+00  1.00800000E+00  1.60000000E+01  1.00800000E+00  1.00800000E+00
  1.60000000E+01  1.00800000E+00  1.00800000E+00  1.60000000E+01  1.00800000E+00
  1.00800000E+00  1.60000000E+01  1.00800000E+00  1.00800000E+00  1.60000000E+01
  1.00800000E+00  1.00800000E+00  1.60000000E+01  1.00800000E+00  1.00800000E+00
  1.60000000E+01  1.00800000E+00  1.00800000E+00  1.60000000E+01  1.00800000E+00
  1.00800000E+00  1.60000000E+01  1.00800000E+00  1.00800000E+00  1.60000000E+01
  1.00800000E+00  1.00800000E+00  1.60000000E+01  1.00800000E+00  1.00800000E+00
  1.60000000E+01  1.00800000E+00  1.00800000E+00  1.60000000E+01  1.00800000E+00
  1.00800000E+00  1.60000000E+01  1.00800000E+00  1.00800000E+00  1.60000000E+01
  1.00800000E+00  1.00800000E+00  1.60000000E+01  1.00800000E+00  1.00800000E+00
  1.60000000E+01  1.00800000E+00  1.00800000E+00  1.60000000E+01  1.00800000E+00
  1.00800000E+00  1.60000000E+01  1.00800000E+00  1.00800000E+00  1.60000000E+01
  1.00800000E+00  1.00800000E+00  1.60000000E+01  1.00800000E+00  1.00800000E+00
  1.60000000E+01  1.00800000E+00  1.00800000E+00  1.60000000E+01  1.00800000E+00
  1.00800000E+00  1.60000000E+01  1.00800000E+00  1.00800000E+00  1.60000000E+01
  1.00800000E+00  1.00800000E+00  1.60000000E+01  1.00800000E+00  1.00800000E+00
  1.60000000E+01  1.00800000E+00  1.00800000E+00  1.60000000E+01  1.00800000E+00
  1.00800000E+00  1.60000000E+01  1.00800000E+00  1.00800000E+00  1.60000000E+01
  1.00800000E+00  1.00800000E+00  1.60000000E+01  1.00800000E+00  1.00800000E+00
  1.60000000E+01  1.00800000E+00  1.00800000E+00  1.60000000E+01  1.00800000E+00
  1.00800000E+00  1.60000000E+01  1.00800000E+00  1.00800000E+00  1.60000000E+01
  1.00800000E+00  1.00800000E+00  1.60000000E+01  1.00800000E+00  1.00800000E+00
  1.60000000E+01  1.00800000E+00  1.00800000E+00  1.60000000E+01  1.00800000E+00
  1.00800000E+00  1.60000000E+01  1.00800000E+00  1.00800000E+00  1.60000000E+01
  1.00800000E+00  1.00800000E+00  1.60000000E+01  1.00800000E+00  1.00800000E+00
  1.60000000E+01  1.00800000E+00  1.00800000E+00  1.60000000E+01  1.00800000E+00
  1.00800000E+00  1.60000000E+01  1.00800000E+00  1.00800000E+00  1.60000000E+01
  1.00800000E+00  1.00800000E+00  1.60000000E+01  1.00800000E+00  1.00800000E+00
  1.60000000E+01  1.00800000E+00  1.00800000E+00  1.60000000E+01  1.00800000E+00
  1.00800000E+00  1.60000000E+01  1.00800000E+00  1.00800000E+00  1.60000000E+01
  1.00800000E+00  1.00800000E+00  1.60000000E+01  1.00800000E+00  1.00800000E+00
  1.60000000E+01  1.00800000E+00  1.00800000E+00  1.60000000E+01  1.00800000E+00
  1.00800000E+00  1.60000000E+01  1.00800000E+00  1.00800000E+00  1.60000000E+01
  1.00800000E+00  1.00800000E+00  1.60000000E+01  1.00800000E+00  1.00800000E+00
  1.60000000E+01  1.00800000E+00  1.00800000E+00  1.60000000E+01  1.00800000E+00
  1.00800000E+00  1.60000000E+01  1.00800000E+00  1.00800000E+00  1.60000000E+01
  1.00800000E+00  1.00800000E+00  1.60000000E+01  1.00800000E+00  1.00800000E+00
  1.60000000E+01  1.00800000E+00  1.00800000E+00  1.60000000E+01  1.00800000E+00
  1.00800000E+00  1.60000000E+01  1.00800000E+00  1.00800000E+00  1.60000000E+01
  1.00800000E+00  1.00800000E+00  1.60000000E+01  1.00800000E+00  1.00800000E+00
  1.60000000E+01  1.00800000E+00  1.00800000E+00  1.60000000E+01  1.00800000E+00
  1.00800000E+00  1.60000000E+01  1.00800000E+00  1.00800000E+00  1.60000000E+01
  1.00800000E+00  1.00800000E+00  1.60000000E+01  1.00800000E+00  1.00800000E+00
  1.60000000E+01  1.00800000E+00  1.00800000E+00  1.60000000E+01  1.00800000E+00
  1.00800000E+00  1.60000000E+01  1.00800000E+00  1.00800000E+00  1.60000000E+01
  1.00800000E+00  1.00800000E+00  1.60000000E+01  1.00800000E+00  1.00800000E+00
  1.60000000E+01  1.00800000E+00  1.00800000E+00  1.60000000E+01  1.00800000E+00
  1.00800000E+00  1.60000000E+01  1.00800000E+00  1.00800000E+00  1.60000000E+01
  1.00800000E+00  1.00800000E+00  1.60000000E+01  1.00800000E+00  1.00800000E+00
  1.60000000E+01  1.00800000E+00  1.00800000E+00  1.60000000E+01  1.00800000E+00
  1.00800000E+00  1.60000000E+01  1.00800000E+00  1.00800000E+00  1.60000000E+01
  1.00800000E+00  1.00800000E+00  1.60000000E+01  1.00800000E+00  1.00800000E+00
  1.60000000E+01  1.00800000E+00  1.00800000E+00  1.60000000E+01  1.00800000E+00
  1.00800000E+00  1.60000000E+01  1.00800000E+00  1.00800000E+00  1.60000000E+01
  1.00800000E+00  1.00800000E+00  1.60000000E+01  1.00800000E+00  1.00800000E+00
  1.60000000E+01  1.00800000E+00  1.00800000E+00  1.60000000E+01  1.00800000E+00
  1.00800000E+00  1.60000000E+01  1.00800000E+00  1.00800000E+00  1.60000000E+01
  1.00800000E+00  1.00800000E+00  1.60000000E+01  1.00800000E+00  1.00800000E+00
  1.60000000E+01  1.00800000E+00  1.00800000E+00  1.60000000E+01  1.00800000E+00
  1.00800000E+00  1.60000000E+01  1.00800000E+00  1.00800000E+00  1.60000000E+01
  1.00800000E+00  1.00800000E+00  1.60000000E+01  1.00800000E+00  1.00800000E+00
  1.60000000E+01  1.00800000E+00  1.00800000E+00  1.60000000E+01  1.00800000E+00
  1.00800000E+00  1.60000000E+01  1.00800000E+00  1.00800000E+00  1.60000000E+01
  1.00800000E+00  1.00800000E+00  1.60000000E+01  1.00800000E+00  1.00800000E+00
  1.60000000E+01  1.00800000E+00  1.00800000E+00  1.60000000E+01  1.00800000E+00
  1.00800000E+00  1.60000000E+01  1.00800000E+00  1.00800000E+00  1.60000000E+01
  1.00800000E+00  1.00800000E+00  1.60000000E+01  1.00800000E+00  1.00800000E+00
  1.60000000E+01  1.00800000E+00  1.00800000E+00  1.60000000E+01  1.00800000E+00
  1.00800000E+00  1.60000000E+01  1.00800000E+00  1.00800000E+00  1.60000000E+01
  1.00800000E+00  1.00800000E+00  1.60000000E+01  1.00800000E+00  1.00800000E+00
  1.60000000E+01  1.00800000E+00  1.00800000E+00  1.60000000E+01  1.00800000E+00
  1.00800000E+00  1.60000000E+01  1.00800000E+00  1.00800000E+00  1.60000000E+01
  1.00800000E+00  1.00800000E+00  1.60000000E+01  1.00800000E+00  1.00800000E+00
  1.60000000E+01  1.00800000E+00  1.00800000E+00  1.60000000E+01  1.00800000E+00
  1.00800000E+00  1.60000000E+01  1.00800000E+00  1.00800000E+00  1.60000000E+01
  1.00800000E+00  1.00800000E+00  1.60000000E+01  1.00800000E+00  1.00800000E+00
  1.60000000E+01  1.00800000E+00  1.00800000E+00  1.60000000E+01  1.00800000E+00
  1.00800000E+00  1.60000000E+01  1.00800000E+00  1.00800000E+00  1.60000000E+01
  1.00800000E+00  1.00800000E+00  1.60000000E+01  1.00800000E+00  1.00800000E+00
  1.60000000E+01  1.00800000E+00  1.00800000E+00  1.60000000E+01  1.00800000E+00
  1.00800000E+00  1.60000000E+01  1.00800000E+00  1.00800000E+00  1.60000000E+01
  1.00800000E+00  1.00800000E+00  1.60000000E+01  1.00800000E+00  1.00800000E+00
  1.60000000E+01  1.00800000E+00  1.00800000E+00  1.60000000E+01  1.00800000E+00
  1.00800000E+00  1.60000000E+01  1.00800000E+00  1.00800000E+00  1.60000000E+01
  1.00800000E+00  1.00800000E+00  1.60000000E+01  1.00800000E+00  1.00800000E+00
  1.60000000E+01  1.00800000E+00  1.00800000E+00  1.60000000E+01  1.00800000E+00
  1.00800000E+00  1.60000000E+01  1.00800000E+00  1.00800000E+00  1.60000000E+01
  1.00800000E+00  1.00800000E+00  1.60000000E+01  1.00800000E+00  1.00800000E+00
  1.60000000E+01  1.00800000E+00  1.00800000E+00  1.60000000E+01  1.00800000E+00
  1.00800000E+00  1.60000000E+01  1.00800000E+00  1.00800000E+00  1.60000000E+01
  1.00800000E+00  1.00800000E+00  1.60000000E+01  1.00800000E+00  1.00800000E+00
  1.60000000E+01  1.00800000E+00  1.00800000E+00  1.60000000E+01  1.00800000E+00
  1.00800000E+00  1.60000000E+01  1.00800000E+00  1.00800000E+00  1.60000000E+01
  1.00800000E+00  1.00800000E+00  1.60000000E+01  1.00800000E+00  1.00800000E+00
  1.60000000E+01  1.00800000E+00  1.00800000E+00  1.60000000E+01  1.00800000E+00
  1.00800000E+00  1.60000000E+01  1.00800000E+00  1.00800000E+00  1.60000000E+01
  1.00800000E+00  1.00800000E+00  1.60000000E+01  1.00800000E+00  1.00800000E+00
  1.60000000E+01  1.00800000E+00  1.00800000E+00  1.60000000E+01  1.00800000E+00
  1.00800000E+00  1.60000000E+01  1.00800000E+00  1.00800000E+00  1.60000000E+01
  1.00800000E+00  1.00800000E+00  1.60000000E+01  1.00800000E+00  1.00800000E+00
  1.60000000E+01  1.00800000E+00  1.00800000E+00  1.60000000E+01  1.00800000E+00
  1.00800000E+00  1.60000000E+01  1.00800000E+00  1.00800000E+00  1.60000000E+01
  1.00800000E+00  1.00800000E+00  1.60000000E+01  1.00800000E+00  1.00800000E+00
  1.60000000E+01  1.00800000E+00  1.00800000E+00  1.60000000E+01  1.00800000E+00
  1.00800000E+00  1.60000000E+01  1.00800000E+00  1.00800000E+00  1.60000000E+01
  1.00800000E+00  1.00800000E+00  1.60000000E+01  1.00800000E+00  1.00800000E+00
  1.60000000E+01  1.00800000E+00  1.00800000E+00  1.60000000E+01  1.00800000E+00
  1.00800000E+00  1.60000000E+01  1.00800000E+00  1.00800000E+00  1.60000000E+01
  1.00800000E+00  1.00800000E+00  1.60000000E+01  1.00800000E+00  1.00800000E+00
  1.60000000E+01  1.00800000E+00  1.00800000E+00  1.60000000E+01  1.00800000E+00
  1.00800000E+00  1.60000000E+01  1.00800000E+00  1.00800000E+00  1.60000000E+01
  1.00800000E+00  1.00800000E+00  1.60000000E+01  1.00800000E+00  1.00800000E+00
  1.60000000E+01  1.00800000E+00  1.00800000E+00  1.60000000E+01  1.00800000E+00
  1.00800000E+00  1.60000000E+01  1.00800000E+00  1.00800000E+00  1.60000000E+01
  1.00800000E+00  1.00800000E+00  1.60000000E+01  1.00800000E+00  1.00800000E+00
  1.60000000E+01  1.00800000E+00  1.00800000E+00  1.60000000E+01  1.00800000E+00
  1.00800000E+00  1.60000000E+01  1.00800000E+00  1.00800000E+00  1.60000000E+01
  1.00800000E+00  1.00800000E+00  1.60000000E+01  1.00800000E+00  1.00800000E+00
  1.60000000E+01  1.00800000E+00  1.00800000E+00  1.60000000E+01  1.00800000E+00
  1.00800000E+00  1.60000000E+01  1.00800000E+00  1.00800000E+00  1.60000000E+01
  1.00800000E+00  1.00800000E+00  1.60000000E+01  1.00800000E+00  1.00800000E+00
  1.60000000E+01  1.00800000E+00  1.00800000E+00  1.60000000E+01  1.00800000E+00
  1.00800000E+00  1.60000000E+01  1.00800000E+00  1.00800000E+00  1.60000000E+01
  1.00800000E+00  1.00800000E+00  1.60000000E+01  1.00800000E+00  1.00800000E+00
  1.60000000E+01  1.00800000E+00  1.00800000E+00  1.60000000E+01  1.00800000E+00
  1.00800000E+00  1.60000000E+01  1.00800000E+00  1.00800000E+00  1.60000000E+01
  1.00800000E+00  1.00800000E+00  1.60000000E+01  1.00800000E+00  1.00800000E+00
  1.60000000E+01  1.00800000E+00  1.00800000E+00  1.60000000E+01  1.00800000E+00
  1.00800000E+00  1.60000000E+01  1.00800000E+00  1.00800000E+00  1.60000000E+01
  1.00800000E+00  1.00800000E+00  1.60000000E+01  1.00800000E+00  1.00800000E+00
  1.60000000E+01  1.00800000E+00  1.00800000E+00  1.60000000E+01  1.00800000E+00
  1.00800000E+00  1.60000000E+01  1.00800000E+00  1.00800000E+00  1.60000000E+01
  1.00800000E+00  1.00800000E+00  1.60000000E+01  1.00800000E+00  1.00800000E+00
  1.60000000E+01  1.00800000E+00  1.00800000E+00  1.60000000E+01  1.00800000E+00
  1.00800000E+00  1.60000000E+01  1.00800000E+00  1.00800000E+00  1.60000000E+01
  1.00800000E+00  1.00800000E+00  1.60000000E+01  1.00800000E+00  1.00800000E+00
  1.60000000E+01  1.00800000E+00  1.00800000E+00  1.60000000E+01  1.00800000E+00
  1.00800000E+00  1.60000000E+01  1.00800000E+00  1.00800000E+00  1.60000000E+01
  1.00800000E+00  1.00800000E+00  1.60000000E+01  1.00800000E+00  1.00800000E+00
  1.60000000E+01  1.00800000E+00  1.00800000E+00  1.60000000E+01  1.00800000E+00
  1.00800000E+00  1.60000000E+01  1.00800000E+00  1.00800000E+00  1.60000000E+01
  1.00800000E+00  1.00800000E+00  1.60000000E+01  1.00800000E+00  1.00800000E+00
  1.60000000E+01  1.00800000E+00  1.00800000E+00  1.60000000E+01  1.00800000E+00
  1.00800000E+00  1.60000000E+01  1.00800000E+00  1.00800000E+00  1.60000000E+01
  1.00800000E+00  1.00800000E+00  1.60000000E+01  1.00800000E+00  1.00800000E+00
  1.60000000E+01  1.00800000E+00  1.00800000E+00  1.60000000E+01  1.00800000E+00
  1.00800000E+00  1.60000000E+01  1.00800000E+00  1.00800000E+00  1.60000000E+01
  1.00800000E+00  1.00800000E+00  1.60000000E+01  1.00800000E+00  1.00800000E+00
  1.60000000E+01  1.00800000E+00  1.00800000E+00  1.60000000E+01  1.00800000E+00
  1.00800000E+00  1.60000000E+01  1.00800000E+00  1.00800000E+00  1.60000000E+01
  1.00800000E+00  1.00800000E+00  1.60000000E+01  1.00800000E+00  1.00800000E+00
  1.60000000E+01  1.00800000E+00  1.00800000E+00  1.60000000E+01  1.00800000E+00
  1.00800000E+00  1.60000000E+01  1.00800000E+00  1.00800000E+00  1.60000000E+01
  1.00800000E+00  1.00800000E+00  1.60000000E+01  1.00800000E+00  1.00800000E+00
  1.60000000E+01  1.00800000E+00  1.00800000E+00  1.60000000E+01  1.00800000E+00
  1.00800000E+00  1.60000000E+01  1.00800000E+00  1.00800000E+00  1.60000000E+01
  1.00800000E+00  1.00800000E+00  1.60000000E+01  1.00800000E+00  1.00800000E+00
  1.60000000E+01  1.00800000E+00  1.00800000E+00  1.60000000E+01  1.00800000E+00
  1.00800000E+00  1.60000000E+01  1.00800000E+00  1.00800000E+00  1.60000000E+01
  1.00800000E+00  1.00800000E+00  1.60000000E+01  1.00800000E+00  1.00800000E+00
  1.60000000E+01  1.00800000E+00  1.00800000E+00  1.60000000E+01  1.00800000E+00
  1.00800000E+00  1.60000000E+01  1.00800000E+00  1.00800000E+00  1.60000000E+01
  1.00800000E+00  1.00800000E+00  1.60000000E+01  1.00800000E+00  1.00800000E+00
  1.60000000E+01  1.00800000E+00  1.00800000E+00  1.60000000E+01  1.00800000E+00
  1.00800000E+00  1.60000000E+01  1.00800000E+00  1.00800000E+00  1.60000000E+01
  1.00800000E+00  1.00800000E+00  1.60000000E+01  1.00800000E+00  1.00800000E+00
  1.60000000E+01  1.00800000E+00  1.00800000E+00  1.60000000E+01  1.00800000E+00
  1.00800000E+00  1.60000000E+01  1.00800000E+00  1.00800000E+00  1.60000000E+01
  1.00800000E+00  1.00800000E+00  1.60000000E+01  1.00800000E+00  1.00800000E+00
  1.60000000E+01  1.00800000E+00  1.00800000E+00  1.60000000E+01  1.00800000E+00
  1.00800000E+00  1.60000000E+01  1.00800000E+00  1.00800000E+00  1.60000000E+01
  1.00800000E+00  1.00800000E+00  1.60000000E+01  1.00800000E+00  1.00800000E+00
  1.60000000E+01  1.00800000E+00  1.00800000E+00  1.60000000E+01  1.00800000E+00
  1.00800000E+00  1.60000000E+01  1.00800000E+00  1.00800000E+00  1.60000000E+01
  1.00800000E+00  1.00800000E+00  1.60000000E+01  1.00800000E+00  1.00800000E+00
  1.60000000E+01  1.00800000E+00  1.00800000E+00  1.60000000E+01  1.00800000E+00
  1.00800000E+00  1.60000000E+01  1.00800000E+00  1.00800000E+00  1.60000000E+01
  1.00800000E+00  1.00800000E+00  1.60000000E+01  1.00800000E+00  1.00800000E+00
  1.60000000E+01  1.00800000E+00  1.00800000E+00  1.60000000E+01  1.00800000E+00
  1.00800000E+00  1.60000000E+01  1.00800000E+00  1.00800000E+00  1.60000000E+01
  1.00800000E+00  1.00800000E+00  1.60000000E+01  1.00800000E+00  1.00800000E+00
  1.60000000E+01  1.00800000E+00  1.00800000E+00  1.60000000E+01  1.00800000E+00
  1.00800000E+00  1.60000000E+01  1.00800000E+00  1.00800000E+00  1.60000000E+01
  1.00800000E+00  1.00800000E+00  1.60000000E+01  1.00800000E+00  1.00800000E+00
  1.60000000E+01  1.00800000E+00  1.00800000E+00  1.60000000E+01  1.00800000E+00
  1.00800000E+00  1.60000000E+01  1.00800000E+00  1.00800000E+00  1.60000000E+01
  1.00800000E+00  1.00800000E+00  1.60000000E+01  1.00800000E+00  1.00800000E+00
  1.60000000E+01  1.00800000E+00  1.00800000E+00  1.60000000E+01  1.00800000E+00
  1.00800000E+00  1.60000000E+01  1.00800000E+00  1.00800000E+00  1.60000000E+01
  1.00800000E+00  1.00800000E+00  1.60000000E+01  1.00800000E+00  1.00800000E+00
  1.60000000E+01  1.00800000E+00  1.00800000E+00  1.60000000E+01  1.00800000E+00
  1.00800000E+00  1.60000000E+01  1.00800000E+00  1.00800000E+00  1.60000000E+01
  1.00800000E+00  1.00800000E+00  1.60000000E+01  1.00800000E+00  1.00800000E+00
  1.60000000E+01  1.00800000E+00  1.00800000E+00  1.60000000E+01  1.00800000E+00
  1.00800000E+00  1.60000000E+01  1.00800000E+00  1.00800000E+00  1.60000000E+01
  1.00800000E+00  1.00800000E+00  1.60000000E+01  1.00800000E+00  1.00800000E+00
  1.60000000E+01  1.00800000E+00  1.00800000E+00  1.60000000E+01  1.00800000E+00
  1.00800000E+00  1.60000000E+01  1.00800000E+00  1.00800000E+00  1.60000000E+01
  1.00800000E+00  1.00800000E+00  1.60000000E+01  1.00800000E+00  1.00800000E+00
  1.60000000E+01  1.00800000E+00  1.00800000E+00  1.60000000E+01  1.00800000E+00
  1.00800000E+00  1.60000000E+01  1.00800000E+00  1.00800000E+00  1.60000000E+01
  1.00800000E+00  1.00800000E+00  1.60000000E+01  1.00800000E+00  1.00800000E+00
  1.60000000E+01  1.00800000E+00  1.00800000E+00  1.60000000E+01  1.00800000E+00
  1.00800000E+00  1.60000000E+01  1.00800000E+00  1.00800000E+00  1.60000000E+01
  1.00800000E+00  1.00800000E+00  1.60000000E+01  1.00800000E+00  1.00800000E+00
  1.60000000E+01  1.00800000E+00  1.00800000E+00  1.60000000E+01  1.00800000E+00
  1.00800000E+00  1.60000000E+01  1.00800000E+00  1.00800000E+00  1.60000000E+01
  1.00800000E+00  1.00800000E+00  1.60000000E+01  1.00800000E+00  1.00800000E+00
  1.60000000E+01  1.00800000E+00  1.00800000E+00  1.60000000E+01  1.00800000E+00
  1.00800000E+00  1.60000000E+01  1.00800000E+00  1.00800000E+00  1.60000000E+01
  1.00800000E+00  1.00800000E+00  1.60000000E+01  1.00800000E+00  1.00800000E+00
  1.60000000E+01  1.00800000E+00  1.00800000E+00  1.60000000E+01  1.00800000E+00
  1.00800000E+00  1.60000000E+01  1.00800000E+00  1.00800000E+00  1.60000000E+01
  1.00800000E+00  1.00800000E+00  1.60000000E+01  1.00800000E+00  1.00800000E+00
  1.60000000E+01  1.00800000E+00  1.00800000E+00  1.60000000E+01  1.00800000E+00
  1.00800000E+00  1.60000000E+01  1.00800000E+00  1.00800000E+00  1.60000000E+01
  1.00800000E+00  1.00800000E+00  1.60000000E+01  1.00800000E+00  1.00800000E+00
  1.60000000E+01  1.00800000E+00  1.00800000E+00  1.60000000E+01  1.00800000E+00
  1.00800000E+00  1.60000000E+01  1.00800000E+00  1.00800000E+00  1.60000000E+01
  1.00800000E+00  1.00800000E+00  1.60000000E+01  1.00800000E+00  1.00800000E+00
  1.60000000E+01  1.00800000E+00  1.00800000E+00  1.60000000E+01  1.00800000E+00
  1.00800000E+00  1.60000000E+01  1.00800000E+00  1.00800000E+00  1.60000000E+01
  1.00800000E+00  1.00800000E+00  1.60000000E+01  1.00800000E+00  1.00800000E+00
  1.60000000E+01  1.00800000E+00  1.00800000E+00  1.60000000E+01  1.00800000E+00
  1.00800000E+00  1.60000000E+01  1.00800000E+00  1.00800000E+00  1.60000000E+01
  1.00800000E+00  1.00800000E+00  1.60000000E+01  1.00800000E+00  1.00800000E+00
  1.60000000E+01  1.00800000E+00  1.00800000E+00  1.60000000E+01  1.00800000E+00
  1.00800000E+00  1.60000000E+01  1.00800000E+00  1.00800000E+00  1.60000000E+01
  1.00800000E+00  1.00800000E+00  1.60000000E+01  1.00800000E+00  1.00800000E+00
  1.60000000E+01  1.00800000E+00  1.00800000E+00  1.60000000E+01  1.00800000E+00
  1.00800000E+00  1.60000000E+01  1.00800000E+00  1.00800000E+00  1.60000000E+01
  1.00800000E+00  1.00800000E+00  1.60000000E+01  1.00800000E+00  1.00800000E+00
  1.60000000E+01  1.00800000E+00  1.00800000E+00  1.60000000E+01  1.00800000E+00
  1.00800000E+00  1.60000000E+01  1.00800000E+00  1.00800000E+00  1.60000000E+01
  1.00800000E+00  1.00800000E+00  1.60000000E+01  1.00800000E+00  1.00800000E+00
  1.60000000E+01  1.00800000E+00  1.00800000E+00  1.60000000E+01  1.00800000E+00
  1.00800000E+00  1.60000000E+01  1.00800000E+00  1.00800000E+00  1.60000000E+01
  1.00800000E+00  1.00800000E+00  1.60000000E+01  1.00800000E+00  1.00800000E+00
  1.60000000E+01  1.00800000E+00  1.00800000E+00  1.60000000E+01  1.00800000E+00
  1.00800000E+00  1.60000000E+01  1.00800000E+00  1.00800000E+00  1.60000000E+01
  1.00800000E+00  1.00800000E+00  1.60000000E+01  1.00800000E+00  1.00800000E+00
  1.60000000E+01  1.00800000E+00  1.00800000E+00  1.60000000E+01  1.00800000E+00
  1.00800000E+00  1.60000000E+01  1.00800000E+00  1.00800000E+00  1.60000000E+01
  1.00800000E+00  1.00800000E+00  1.60000000E+01  1.00800000E+00  1.00800000E+00
  1.60000000E+01  1.00800000E+00  1.00800000E+00  1.60000000E+01  1.00800000E+00
  1.00800000E+00  1.60000000E+01  1.00800000E+00  1.00800000E+00  1.60000000E+01
  1.00800000E+00  1.00800000E+00  1.60000000E+01  1.00800000E+00  1.00800000E+00
  1.60000000E+01  1.00800000E+00  1.00800000E+00  1.60000000E+01  1.00800000E+00
  1.00800000E+00  1.60000000E+01  1.00800000E+00  1.00800000E+00  1.60000000E+01
  1.00800000E+00  1.00800000E+00  1.60000000E+01  1.00800000E+00  1.00800000E+00
  1.60000000E+01  1.00800000E+00  1.00800000E+00  1.60000000E+01  1.00800000E+00
  1.00800000E+00  1.60000000E+01  1.00800000E+00  1.00800000E+00  1.60000000E+01
  1.00800000E+00  1.00800000E+00  1.60000000E+01  1.00800000E+00  1.00800000E+00
  1.60000000E+01  1.00800000E+00  1.00800000E+00  1.60000000E+01  1.00800000E+00
  1.00800000E+00  1.60000000E+01  1.00800000E+00  1.00800000E+00  1.60000000E+01
  1.00800000E+00  1.00800000E+00  1.60000000E+01  1.00800000E+00  1.00800000E+00
  1.60000000E+01  1.00800000E+00  1.00800000E+00  1.60000000E+01  1.00800000E+00
  1.00800000E+00  1.60000000E+01  1.00800000E+00  1.00800000E+00  1.60000000E+01
  1.00800000E+00  1.00800000E+00  1.60000000E+01  1.00800000E+00  1.00800000E+00
  1.60000000E+01  1.00800000E+00  1.00800000E+00  1.60000000E+01  1.00800000E+00
  1.00800000E+00  1.60000000E+01  1.00800000E+00  1.00800000E+00  1.60000000E+01
  1.00800000E+00  1.00800000E+00  1.60000000E+01  1.00800000E+00  1.00800000E+00
  1.60000000E+01  1.00800000E+00  1.00800000E+00  1.60000000E+01  1.00800000E+00
  1.00800000E+00  1.60000000E+01  1.00800000E+00  1.00800000E+00  1.60000000E+01
  1.00800000E+00  1.00800000E+00  1.60000000E+01  1.00800000E+00  1.00800000E+00
  1.60000000E+01  1.00800000E+00  1.00800000E+00  1.60000000E+01  1.00800000E+00
  1.00800000E+00  1.60000000E+01  1.00800000E+00  1.00800000E+00  1.60000000E+01
  1.00800000E+00  1.00800000E+00  1.60000000E+01  1.00800000E+00  1.00800000E+00
  1.60000000E+01  1.00800000E+00  1.00800000E+00  1.60000000E+01  1.00800000E+00
  1.00800000E+00  1.60000000E+01  1.00800000E+00  1.00800000E+00  1.60000000E+01
  1.00800000E+00  1.00800000E+00  1.60000000E+01  1.00800000E+00  1.00800000E+00
  1.60000000E+01  1.00800000E+00  1.00800000E+00  1.60000000E+01  1.00800000E+00
  1.00800000E+00  1.60000000E+01  1.00800000E+00  1.00800000E+00  1.60000000E+01
  1.00800000E+00  1.00800000E+00  1.60000000E+01  1.00800000E+00  1.00800000E+00
  1.60000000E+01  1.00800000E+00  1.00800000E+00  1.60000000E+01  1.00800000E+00
  1.00800000E+00  1.60000000E+01  1.00800000E+00  1.00800000E+00  1.60000000E+01
  1.00800000E+00  1.00800000E+00  1.60000000E+01  1.00800000E+00  1.00800000E+00
  1.60000000E+01  1.00800000E+00  1.00800000E+00  1.60000000E+01  1.00800000E+00
  1.00800000E+00  1.60000000E+01  1.00800000E+00  1.00800000E+00  1.60000000E+01
  1.00800000E+00  1.00800000E+00  1.60000000E+01  1.00800000E+00  1.00800000E+00
  1.60000000E+01  1.00800000E+00  1.00800000E+00  1.60000000E+01  1.00800000E+00
  1.00800000E+00  1.60000000E+01  1.00800000E+00  1.00800000E+00  1.60000000E+01
  1.00800000E+00  1.00800000E+00  1.60000000E+01  1.00800000E+00  1.00800000E+00
  1.60000000E+01  1.00800000E+00  1.00800000E+00  1.60000000E+01  1.00800000E+00
  1.00800000E+00  1.60000000E+01  1.00800000E+00  1.00800000E+00  1.60000000E+01
  1.00800000E+00  1.00800000E+00  1.60000000E+01  1.00800000E+00  1.00800000E+00
  1.60000000E+01  1.00800000E+00  1.00800000E+00  1.60000000E+01  1.00800000E+00
  1.00800000E+00  1.60000000E+01  1.00800000E+00  1.00800000E+00  1.60000000E+01
  1.00800000E+00  1.00800000E+00  1.60000000E+01  1.00800000E+00  1.00800000E+00
  1.60000000E+01  1.00800000E+00  1.00800000E+00  1.60000000E+01  1.00800000E+00
  1.00800000E+00  1.60000000E+01  1.00800000E+00  1.00800000E+00  1.60000000E+01
  1.00800000E+00  1.00800000E+00  1.60000000E+01  1.00800000E+00  1.00800000E+00
  1.60000000E+01  1.00800000E+00  1.00800000E+00  1.60000000E+01  1.00800000E+00
  1.00800000E+00  1.60000000E+01  1.00800000E+00  1.00800000E+00  1.60000000E+01
  1.00800000E+00  1.00800000E+00  1.60000000E+01  1.00800000E+00  1.00800000E+00
  1.60000000E+01  1.00800000E+00  1.00800000E+00  1.60000000E+01  1.00800000E+00
  1.00800000E+00  1.60000000E+01  1.00800000E+00  1.00800000E+00  1.60000000E+01
  1.00800000E+00  1.00800000E+00  1.60000000E+01  1.00800000E+00  1.00800000E+00
  1.60000000E+01  1.00800000E+00  1.00800000E+00  1.60000000E+01  1.00800000E+00
  1.00800000E+00  1.60000000E+01  1.00800000E+00  1.00800000E+00  1.60000000E+01
  1.00800000E+00  1.00800000E+00  1.60000000E+01  1.00800000E+00  1.00800000E+00
  1.60000000E+01  1.00800000E+00  1.00800000E+00  1.60000000E+01  1.00800000E+00
  1.00800000E+00  1.60000000E+01  1.00800000E+00  1.00800000E+00  1.60000000E+01
  1.00800000E+00  1.00800000E+00  1.60000000E+01  1.00800000E+00  1.00800000E+00
  1.60000000E+01  1.00800000E+00  1.00800000E+00  1.60000000E+01  1.00800000E+00
  1.00800000E+00  1.60000000E+01  1.00800000E+00  1.00800000E+00  1.60000000E+01
  1.00800000E+00  1.00800000E+00  1.60000000E+01  1.00800000E+00  1.00800000E+00
  1.60000000E+01  1.00800000E+00  1.00800000E+00  1.60000000E+01  1.00800000E+00
  1.00800000E+00  1.60000000E+01  1.00800000E+00  1.00800000E+00  1.60000000E+01
  1.00800000E+00  1.00800000E+00  1.60000000E+01  1.00800000E+00  1.00800000E+00
  1.60000000E+01  1.00800000E+00  1.00800000E+00  1.60000000E+01  1.00800000E+00
  1.00800000E+00  1.60000000E+01  1.00800000E+00  1.00800000E+00  1.60000000E+01
  1.00800000E+00  1.00800000E+00  1.60000000E+01  1.00800000E+00  1.00800000E+00
  1.60000000E+01  1.00800000E+00  1.00800000E+00  1.60000000E+01  1.00800000E+00
  1.00800000E+00  1.60000000E+01  1.00800000E+00  1.00800000E+00  1.60000000E+01
  1.00800000E+00  1.00800000E+00  1.60000000E+01  1.00800000E+00  1.00800000E+00
  1.60000000E+01  1.00800000E+00  1.00800000E+00  1.60000000E+01  1.00800000E+00
  1.00800000E+00  1.60000000E+01  1.00800000E+00  1.00800000E+00  1.60000000E+01
  1.00800000E+00  1.00800000E+00  1.60000000E+01  1.00800000E+00  1.00800000E+00
  1.60000000E+01  1.00800000E+00  1.00800000E+00  1.60000000E+01  1.00800000E+00
  1.00800000E+00  1.60000000E+01  1.00800000E+00  1.00800000E+00  1.60000000E+01
  1.00800000E+00  1.00800000E+00  1.60000000E+01  1.00800000E+00  1.00800000E+00
  1.60000000E+01  1.00800000E+00  1.00800000E+00  1.60000000E+01  1.00800000E+00
  1.00800000E+00  1.60000000E+01  1.00800000E+00  1.00800000E+00  1.60000000E+01
  1.00800000E+00  1.00800000E+00  1.60000000E+01  1.00800000E+00  1.00800000E+00
  1.60000000E+01  1.00800000E+00  1.00800000E+00  1.60000000E+01  1.00800000E+00
  1.00800000E+00  1.60000000E+01  1.00800000E+00  1.00800000E+00  1.60000000E+01
  1.00800000E+00  1.00800000E+00  1.60000000E+01  1.00800000E+00  1.00800000E+00
  1.60000000E+01  1.00800000E+00  1.00800000E+00  1.60000000E+01  1.00800000E+00
  1.00800000E+00  1.60000000E+01  1.00800000E+00  1.00800000E+00  1.60000000E+01
  1.00800000E+00  1.00800000E+00  1.60000000E+01  1.00800000E+00  1.00800000E+00
  1.60000000E+01  1.00800000E+00  1.00800000E+00  1.60000000E+01  1.00800000E+00
  1.00800000E+00  1.60000000E+01  1.00800000E+00  1.00800000E+00  1.60000000E+01
  1.00800000E+00  1.00800000E+00  1.60000000E+01  1.00800000E+00  1.00800000E+00
  1.60000000E+01  1.00800000E+00  1.00800000E+00  1.60000000E+01  1.00800000E+00
  1.00800000E+00  1.60000000E+01  1.00800000E+00  1.00800000E+00  1.60000000E+01
  1.00800000E+00  1.00800000E+00  1.60000000E+01  1.00800000E+00  1.00800000E+00
  1.60000000E+01  1.00800000E+00  1.00800000E+00  1.60000000E+01  1.00800000E+00
  1.00800000E+00  1.60000000E+01  1.00800000E+00  1.00800000E+00  1.60000000E+01
  1.00800000E+00  1.00800000E+00  1.60000000E+01  1.00800000E+00  1.00800000E+00
  1.60000000E+01  1.00800000E+00  1.00800000E+00  1.60000000E+01  1.00800000E+00
  1.00800000E+00  1.60000000E+01  1.00800000E+00  1.00800000E+00  1.60000000E+01
  1.00800000E+00  1.00800000E+00  1.60000000E+01  1.00800000E+00  1.00800000E+00
  1.60000000E+01  1.00800000E+00  1.00800000E+00  1.60000000E+01  1.00800000E+00
  1.00800000E+00  1.60000000E+01  1.00800000E+00  1.00800000E+00  1.60000000E+01
  1.00800000E+00  1.00800000E+00  1.60000000E+01  1.00800000E+00  1.00800000E+00
  1.60000000E+01  1.00800000E+00  1.00800000E+00  1.60000000E+01  1.00800000E+00
  1.00800000E+00  1.60000000E+01  1.00800000E+00  1.00800000E+00  1.60000000E+01
  1.00800000E+00  1.00800000E+00  1.60000000E+01  1.00800000E+00  1.00800000E+00
  1.60000000E+01  1.00800000E+00  1.00800000E+00  1.60000000E+01  1.00800000E+00
  1.00800000E+00  1.60000000E+01  1.00800000E+00  1.00800000E+00  1.60000000E+01
  1.00800000E+00  1.00800000E+00  1.60000000E+01  1.00800000E+00  1.00800000E+00
  1.60000000E+01  1.00800000E+00  1.00800000E+00  1.60000000E+01  1.00800000E+00
  1.00800000E+00  1.60000000E+01  1.00800000E+00  1.00800000E+00  1.60000000E+01
  1.00800000E+00  1.00800000E+00  1.60000000E+01  1.00800000E+00  1.00800000E+00
  1.60000000E+01  1.00800000E+00  1.00800000E+00  1.60000000E+01  1.00800000E+00
  1.00800000E+00  1.60000000E+01  1.00800000E+00  1.00800000E+00  1.60000000E+01
  1.00800000E+00  1.00800000E+00  1.60000000E+01  1.00800000E+00  1.00800000E+00
  1.60000000E+01  1.00800000E+00  1.00800000E+00  1.60000000E+01  1.00800000E+00
  1.00800000E+00  1.60000000E+01  1.00800000E+00  1.00800000E+00  1.60000000E+01
  1.00800000E+00  1.00800000E+00  1.60000000E+01  1.00800000E+00  1.00800000E+00
  1.60000000E+01  1.00800000E+00  1.00800000E+00  1.60000000E+01  1.00800000E+00
  1.00800000E+00  1.60000000E+01  1.00800000E+00  1.00800000E+00  1.60000000E+01
  1.00800000E+00  1.00800000E+00  1.60000000E+01  1.00800000E+00  1.00800000E+00
  1.60000000E+01  1.00800000E+00  1.00800000E+00  1.60000000E+01  1.00800000E+00
  1.00800000E+00  1.60000000E+01  1.00800000E+00  1.00800000E+00  1.60000000E+01
  1.00800000E+00  1.00800000E+00  1.60000000E+01  1.00800000E+00  1.00800000E+00
  1.60000000E+01  1.00800000E+00  1.00800000E+00  1.60000000E+01  1.00800000E+00
  1.00800000E+00  1.60000000E+01  1.00800000E+00  1.00800000E+00  1.60000000E+01
  1.00800000E+00  1.00800000E+00  1.60000000E+01  1.00800000E+00  1.00800000E+00
  1.60000000E+01  1.00800000E+00  1.00800000E+00  1.60000000E+01  1.00800000E+00
  1.00800000E+00  1.60000000E+01  1.00800000E+00  1.00800000E+00  1.60000000E+01
  1.00800000E+00  1.00800000E+00  1.60000000E+01  1.00800000E+00  1.00800000E+00
  1.60000000E+01  1.00800000E+00  1.00800000E+00  1.60000000E+01  1.00800000E+00
  1.00800000E+00  1.60000000E+01  1.00800000E+00  1.00800000E+00  1.60000000E+01
  1.00800000E+00  1.00800000E+00  1.60000000E+01  1.00800000E+00  1.00800000E+00
  1.60000000E+01  1.00800000E+00  1.00800000E+00  1.60000000E+01  1.00800000E+00
  1.00800000E+00  1.60000000E+01  1.00800000E+00  1.00800000E+00  1.60000000E+01
  1.00800000E+00  1.00800000E+00  1.60000000E+01  1.00800000E+00  1.00800000E+00
  1.60000000E+01  1.00800000E+00  1.00800000E+00  1.60000000E+01  1.00800000E+00
  1.00800000E+00  1.60000000E+01  1.00800000E+00  1.00800000E+00  1.60000000E+01
  1.00800000E+00  1.00800000E+00  1.60000000E+01  1.00800000E+00  1.00800000E+00
  1.60000000E+01  1.00800000E+00  1.00800000E+00  1.60000000E+01  1.00800000E+00
  1.00800000E+00  1.60000000E+01  1.00800000E+00  1.00800000E+00  1.60000000E+01
  1.00800000E+00  1.00800000E+00  1.60000000E+01  1.00800000E+00  1.00800000E+00
  1.60000000E+01  1.00800000E+00  1.00800000E+00  1.60000000E+01  1.00800000E+00
  1.00800000E+00  1.60000000E+01  1.00800000E+00  1.00800000E+00  1.60000000E+01
  1.00800000E+00  1.00800000E+00  1.60000000E+01  1.00800000E+00  1.00800000E+00
  1.60000000E+01  1.00800000E+00  1.00800000E+00  1.60000000E+01  1.00800000E+00
  1.00800000E+00  1.60000000E+01  1.00800000E+00  1.00800000E+00  1.60000000E+01
  1.00800000E+00  1.00800000E+00  1.60000000E+01  1.00800000E+00  1.00800000E+00
  1.60000000E+01  1.00800000E+00  1.00800000E+00  1.60000000E+01  1.00800000E+00
  1.00800000E+00  1.60000000E+01  1.00800000E+00  1.00800000E+00  1.60000000E+01
  1.00800000E+00  1.00800000E+00  1.60000000E+01  1.00800000E+00  1.00800000E+00
  1.60000000E+01  1.00800000E+00  1.00800000E+00  1.60000000E+01  1.00800000E+00
  1.00800000E+00  1.60000000E+01  1.00800000E+00  1.00800000E+00  1.60000000E+01
  1.00800000E+00  1.00800000E+00  1.60000000E+01  1.00800000E+00  1.00800000E+00
  1.60000000E+01  1.00800000E+00  1.00800000E+00  1.60000000E+01  1.00800000E+00
  1.00800000E+00  1.60000000E+01  1.00800000E+00  1.00800000E+00  1.60000000E+01
  1.00800000E+00  1.00800000E+00  1.60000000E+01  1.00800000E+00  1.00800000E+00
  1.60000000E+01  1.00800000E+00  1.00800000E+00  1.60000000E+01  1.00800000E+00
  1.00800000E+00  1.60000000E+01  1.00800000E+00  1.00800000E+00  1.60000000E+01
  1.00800000E+00  1.00800000E+00  1.60000000E+01  1.00800000E+00  1.00800000E+00
  1.60000000E+01  1.00800000E+00  1.00800000E+00  1.60000000E+01  1.00800000E+00
  1.00800000E+00  1.60000000E+01  1.00800000E+00  1.00800000E+00  1.60000000E+01
  1.00800000E+00  1.00800000E+00  1.60000000E+01  1.00800000E+00  1.00800000E+00
  1.60000000E+01  1.00800000E+00  1.00800000E+00  1.60000000E+01  1.00800000E+00
  1.00800000E+00  1.60000000E+01  1.00800000E+00  1.00800000E+00  1.60000000E+01
  1.00800000E+00  1.00800000E+00  1.60000000E+01  1.00800000E+00  1.00800000E+00
  1.60000000E+01  1.00800000E+00  1.00800000E+00  1.60000000E+01  1.00800000E+00
  1.00800000E+00  1.60000000E+01  1.00800000E+00  1.00800000E+00  1.60000000E+01
  1.00800000E+00  1.00800000E+00  1.60000000E+01  1.00800000E+00  1.00800000E+00
  1.60000000E+01  1.00800000E+00  1.00800000E+00  1.60000000E+01  1.00800000E+00
  1.00800000E+00  1.60000000E+01  1.00800000E+00  1.00800000E+00  1.60000000E+01
  1.00800000E+00  1.00800000E+00  1.60000000E+01  1.00800000E+00  1.00800000E+00
  1.60000000E+01  1.00800000E+00  1.00800000E+00  1.60000000E+01  1.00800000E+00
  1.00800000E+00  1.60000000E+01  1.00800000E+00  1.00800000E+00  1.60000000E+01
  1.00800000E+00  1.00800000E+00  1.60000000E+01  1.00800000E+00  1.00800000E+00
  1.60000000E+01  1.00800000E+00  1.00800000E+00  1.60000000E+01  1.00800000E+00
  1.00800000E+00  1.60000000E+01  1.00800000E+00  1.00800000E+00  1.60000000E+01
  1.00800000E+00  1.00800000E+00  1.60000000E+01  1.00800000E+00  1.00800000E+00
  1.60000000E+01  1.00800000E+00  1.00800000E+00  1.60000000E+01  1.00800000E+00
  1.00800000E+00  1.60000000E+01  1.00800000E+00  1.00800000E+00  1.60000000E+01
  1.00800000E+00  1.00800000E+00  1.60000000E+01  1.00800000E+00  1.00800000E+00
  1.60000000E+01  1.00800000E+00  1.00800000E+00  1.60000000E+01  1.00800000E+00
  1.00800000E+00  1.60000000E+01  1.00800000E+00  1.00800000E+00  1.60000000E+01
  1.00800000E+00  1.00800000E+00  1.60000000E+01  1.00800000E+00  1.00800000E+00
  1.60000000E+01  1.00800000E+00  1.00800000E+00  1.60000000E+01  1.00800000E+00
  1.00800000E+00  1.60000000E+01  1.00800000E+00  1.00800000E+00  1.60000000E+01
  1.00800000E+00  1.00800000E+00  1.60000000E+01  1.00800000E+00  1.00800000E+00
  1.60000000E+01  1.00800000E+00  1.00800000E+00  1.60000000E+01  1.00800000E+00
  1.00800000E+00  1.60000000E+01  1.00800000E+00  1.00800000E+00  1.60000000E+01
  1.00800000E+00  1.00800000E+00  1.60000000E+01  1.00800000E+00  1.00800000E+00
  1.60000000E+01  1.00800000E+00  1.00800000E+00  1.60000000E+01  1.00800000E+00
  1.00800000E+00  1.60000000E+01  1.00800000E+00  1.00800000E+00  1.60000000E+01
  1.00800000E+00  1.00800000E+00  1.60000000E+01  1.00800000E+00  1.00800000E+00
  1.60000000E+01  1.00800000E+00  1.00800000E+00  1.60000000E+01  1.00800000E+00
  1.00800000E+00  1.60000000E+01  1.00800000E+00  1.00800000E+00  1.60000000E+01
  1.00800000E+00  1.00800000E+00  1.60000000E+01  1.00800000E+00  1.00800000E+00
  1.60000000E+01  1.00800000E+00  1.00800000E+00  1.60000000E+01  1.00800000E+00
  1.00800000E+00  1.60000000E+01  1.00800000E+00  1.00800000E+00  1.60000000E+01
  1.00800000E+00  1.00800000E+00  1.60000000E+01  1.00800000E+00  1.00800000E+00
  1.60000000E+01  1.00800000E+00  1.00800000E+00  1.60000000E+01  1.00800000E+00
  1.00800000E+00  1.60000000E+01  1.00800000E+00  1.00800000E+00  1.60000000E+01
  1.00800000E+00  1.00800000E+00  1.60000000E+01  1.00800000E+00  1.00800000E+00
  1.60000000E+01  1.00800000E+00  1.00800000E+00  1.60000000E+01  1.00800000E+00
  1.00800000E+00  1.60000000E+01  1.00800000E+00  1.00800000E+00  1.60000000E+01
  1.00800000E+00  1.00800000E+00  1.60000000E+01  1.00800000E+00  1.00800000E+00
  1.60000000E+01  1.00800000E+00  1.00800000E+00  1.60000000E+01  1.00800000E+00
  1.00800000E+00  1.60000000E+01  1.00800000E+00  1.00800000E+00  1.60000000E+01
  1.00800000E+00  1.00800000E+00  1.60000000E+01  1.00800000E+00  1.00800000E+00
  1.60000000E+01  1.00800000E+00  1.00800000E+00  1.60000000E+01  1.00800000E+00
  1.00800000E+00  1.60000000E+01  1.00800000E+00  1.00800000E+00  1.60000000E+01
  1.00800000E+00  1.00800000E+00  1.60000000E+01  1.00800000E+00  1.00800000E+00
  1.60000000E+01  1.00800000E+00  1.00800000E+00  1.60000000E+01  1.00800000E+00
  1.00800000E+00  1.60000000E+01  1.00800000E+00  1.00800000E+00  1.60000000E+01
  1.00800000E+00  1.00800000E+00  1.60000000E+01  1.00800000E+00  1.00800000E+00
  1.60000000E+01  1.00800000E+00  1.00800000E+00  1.60000000E+01  1.00800000E+00
  1.00800000E+00  1.60000000E+01  1.00800000E+00  1.00800000E+00  1.60000000E+01
  1.00800000E+00  1.00800000E+00  1.60000000E+01  1.00800000E+00  1.00800000E+00
  1.60000000E+01  1.00800000E+00  1.00800000E+00  1.60000000E+01  1.00800000E+00
  1.00800000E+00  1.60000000E+01  1.00800000E+00  1.00800000E+00  1.60000000E+01
  1.00800000E+00  1.00800000E+00  1.60000000E+01  1.00800000E+00  1.00800000E+00
  1.60000000E+01  1.00800000E+00  1.00800000E+00  1.60000000E+01  1.00800000E+00
  1.00800000E+00  1.60000000E+01  1.00800000E+00  1.00800000E+00  1.60000000E+01
  1.00800000E+00  1.00800000E+00  1.60000000E+01  1.00800000E+00  1.00800000E+00
  1.60000000E+01  1.00800000E+00  1.00800000E+00  1.60000000E+01  1.00800000E+00
  1.00800000E+00  1.60000000E+01  1.00800000E+00  1.00800000E+00  1.60000000E+01
  1.00800000E+00  1.00800000E+00  1.60000000E+01  1.00800000E+00  1.00800000E+00
  1.60000000E+01  1.00800000E+00  1.00800000E+00  1.60000000E+01  1.00800000E+00
  1.00800000E+00  1.60000000E+01  1.00800000E+00  1.00800000E+00  1.60000000E+01
  1.00800000E+00  1.00800000E+00  1.60000000E+01  1.00800000E+00  1.00800000E+00
  1.60000000E+01  1.00800000E+00  1.00800000E+00  1.60000000E+01  1.00800000E+00
  1.00800000E+00  1.60000000E+01  1.00800000E+00  1.00800000E+00  1.60000000E+01
  1.00800000E+00  1.00800000E+00  1.60000000E+01  1.00800000E+00  1.00800000E+00
  1.60000000E+01  1.00800000E+00  1.00800000E+00  1.60000000E+01  1.00800000E+00
  1.00800000E+00  1.60000000E+01  1.00800000E+00  1.00800000E+00  1.60000000E+01
  1.00800000E+00  1.00800000E+00  1.60000000E+01  1.00800000E+00  1.00800000E+00
  1.60000000E+01  1.00800000E+00  1.00800000E+00  1.60000000E+01  1.00800000E+00
  1.00800000E+00  1.60000000E+01  1.00800000E+00  1.00800000E+00  1.60000000E+01
  1.00800000E+00  1.00800000E+00  1.60000000E+01  1.00800000E+00  1.00800000E+00
  1.60000000E+01  1.00800000E+00  1.00800000E+00  1.60000000E+01  1.00800000E+00
  1.00800000E+00  1.60000000E+01  1.00800000E+00  1.00800000E+00  1.60000000E+01
  1.00800000E+00  1.00800000E+00  1.60000000E+01  1.00800000E+00  1.00800000E+00
  1.60000000E+01  1.00800000E+00  1.00800000E+00  1.60000000E+01  1.00800000E+00
  1.00800000E+00  1.60000000E+01  1.00800000E+00  1.00800000E+00  1.60000000E+01
  1.00800000E+00  1.00800000E+00  1.60000000E+01  1.00800000E+00  1.00800000E+00
  1.60000000E+01  1.00800000E+00  1.00800000E+00  1.60000000E+01  1.00800000E+00
  1.00800000E+00  1.60000000E+01  1.00800000E+00  1.00800000E+00  1.60000000E+01
  1.00800000E+00  1.00800000E+00  1.60000000E+01  1.00800000E+00  1.00800000E+00
  1.60000000E+01  1.00800000E+00  1.00800000E+00  1.60000000E+01  1.00800000E+00
  1.00800000E+00  1.60000000E+01  1.00800000E+00  1.00800000E+00  1.60000000E+01
  1.00800000E+00  1.00800000E+00  1.60000000E+01  1.00800000E+00  1.00800000E+00
  1.60000000E+01  1.00800000E+00  1.00800000E+00  1.60000000E+01  1.00800000E+00
  1.00800000E+00  1.60000000E+01  1.00800000E+00  1.00800000E+00  1.60000000E+01
  1.00800000E+00  1.00800000E+00  1.60000000E+01  1.00800000E+00  1.00800000E+00
  1.60000000E+01  1.00800000E+00  1.00800000E+00  1.60000000E+01  1.00800000E+00
  1.00800000E+00  1.60000000E+01  1.00800000E+00  1.00800000E+00  1.60000000E+01
  1.00800000E+00  1.00800000E+00  1.60000000E+01  1.00800000E+00  1.00800000E+00
  1.60000000E+01  1.00800000E+00  1.00800000E+00  1.60000000E+01  1.00800000E+00
  1.00800000E+00  1.60000000E+01  1.00800000E+00  1.00800000E+00  1.60000000E+01
  1.00800000E+00  1.00800000E+00  1.60000000E+01  1.00800000E+00  1.00800000E+00
  1.60000000E+01  1.00800000E+00  1.00800000E+00  1.60000000E+01  1.00800000E+00
  1.00800000E+00  1.60000000E+01  1.00800000E+00  1.00800000E+00  1.60000000E+01
  1.00800000E+00  1.00800000E+00  1.60000000E+01  1.00800000E+00  1.00800000E+00
  1.60000000E+01  1.00800000E+00  1.00800000E+00  1.60000000E+01  1.00800000E+00
  1.00800000E+00  1.60000000E+01  1.00800000E+00  1.00800000E+00  1.60000000E+01
  1.00800000E+00  1.00800000E+00  1.60000000E+01  1.00800000E+00  1.00800000E+00
  1.60000000E+01  1.00800000E+00  1.00800000E+00  1.60000000E+01  1.00800000E+00
  1.00800000E+00  1.60000000E+01  1.00800000E+00  1.00800000E+00  1.60000000E+01
  1.00800000E+00  1.00800000E+00  1.60000000E+01  1.00800000E+00  1.00800000E+00
  1.60000000E+01  1.00800000E+00  1.00800000E+00  1.60000000E+01  1.00800000E+00
  1.00800000E+00  1.60000000E+01  1.00800000E+00  1.00800000E+00  1.60000000E+01
  1.00800000E+00  1.00800000E+00  1.60000000E+01  1.00800000E+00  1.00800000E+00
  1.60000000E+01  1.00800000E+00  1.00800000E+00  1.60000000E+01  1.00800000E+00
  1.00800000E+00  1.60000000E+01  1.00800000E+00  1.00800000E+00  1.60000000E+01
  1.00800000E+00  1.00800000E+00  1.60000000E+01  1.00800000E+00  1.00800000E+00
  1.60000000E+01  1.00800000E+00  1.00800000E+00  1.60000000E+01  1.00800000E+00
  1.00800000E+00  1.60000000E+01  1.00800000E+00  1.00800000E+00  1.60000000E+01
  1.00800000E+00  1.00800000E+00  1.60000000E+01  1.00800000E+00  1.00800000E+00
  1.60000000E+01  1.00800000E+00  1.00800000E+00  1.60000000E+01  1.00800000E+00
  1.00800000E+00  1.60000000E+01  1.00800000E+00  1.00800000E+00  1.60000000E+01
  1.00800000E+00  1.00800000E+00  1.60000000E+01  1.00800000E+00  1.00800000E+00
  1.60000000E+01  1.00800000E+00  1.00800000E+00  1.60000000E+01  1.00800000E+00
  1.00800000E+00  1.60000000E+01  1.00800000E+00  1.00800000E+00  1.60000000E+01
  1.00800000E+00  1.00800000E+00  1.60000000E+01  1.00800000E+00  1.00800000E+00
  1.60000000E+01  1.00800000E+00  1.00800000E+00  1.60000000E+01  1.00800000E+00
  1.00800000E+00  1.60000000E+01  1.00800000E+00  1.00800000E+00  1.60000000E+01
  1.00800000E+00  1.00800000E+00  1.60000000E+01  1.00800000E+00  1.00800000E+00
  1.60000000E+01  1.00800000E+00  1.00800000E+00  1.60000000E+01  1.00800000E+00
  1.00800000E+00  1.60000000E+01  1.00800000E+00  1.00800000E+00  1.60000000E+01
  1.00800000E+00  1.00800000E+00  1.60000000E+01  1.00800000E+00  1.00800000E+00
  1.60000000E+01  1.00800000E+00  1.00800000E+00  1.60000000E+01  1.00800000E+00
  1.00800000E+00  1.60000000E+01  1.00800000E+00  1.00800000E+00  1.60000000E+01
  1.00800000E+00  1.00800000E+00  1.60000000E+01  1.00800000E+00  1.00800000E+00
  1.60000000E+01  1.00800000E+00  1.00800000E+00  1.60000000E+01  1.00800000E+00
  1.00800000E+00  1.60000000E+01  1.00800000E+00  1.00800000E+00  1.60000000E+01
  1.00800000E+00  1.00800000E+00  1.60000000E+01  1.00800000E+00  1.00800000E+00
  1.60000000E+01  1.00800000E+00  1.00800000E+00  1.60000000E+01  1.00800000E+00
  1.00800000E+00  1.60000000E+01  1.00800000E+00  1.00800000E+00  1.60000000E+01
  1.00800000E+00  1.00800000E+00  1.60000000E+01  1.00800000E+00  1.00800000E+00
  1.60000000E+01  1.00800000E+00  1.00800000E+00  1.60000000E+01  1.00800000E+00
  1.00800000E+00  1.60000000E+01  1.00800000E+00  1.00800000E+00  1.60000000E+01
  1.00800000E+00  1.00800000E+00  1.60000000E+01  1.00800000E+00  1.00800000E+00
  1.60000000E+01  1.00800000E+00  1.00800000E+00  1.60000000E+01  1.00800000E+00
  1.00800000E+00  1.60000000E+01  1.00800000E+00  1.00800000E+00  1.60000000E+01
  1.00800000E+00  1.00800000E+00  1.60000000E+01  1.00800000E+00  1.00800000E+00
  1.60000000E+01  1.00800000E+00  1.00800000E+00  1.60000000E+01  1.00800000E+00
  1.00800000E+00  1.60000000E+01  1.00800000E+00  1.00800000E+00  1.60000000E+01
  1.00800000E+00  1.00800000E+00  1.60000000E+01  1.00800000E+00  1.00800000E+00
  1.60000000E+01  1.00800000E+00  1.00800000E+00  1.60000000E+01  1.00800000E+00
  1.00800000E+00  1.60000000E+01  1.00800000E+00  1.00800000E+00  1.60000000E+01
  1.00800000E+00  1.00800000E+00  1.60000000E+01  1.00800000E+00  1.00800000E+00
  1.60000000E+01  1.00800000E+00  1.00800000E+00  1.60000000E+01  1.00800000E+00
  1.00800000E+00  1.60000000E+01  1.00800000E+00  1.00800000E+00  1.60000000E+01
  1.00800000E+00  1.00800000E+00  1.60000000E+01  1.00800000E+00  1.00800000E+00
  1.60000000E+01  1.00800000E+00  1.00800000E+00  1.60000000E+01  1.00800000E+00
  1.00800000E+00  1.60000000E+01  1.00800000E+00  1.00800000E+00  1.60000000E+01
  1.00800000E+00  1.00800000E+00  1.60000000E+01  1.00800000E+00  1.00800000E+00
  1.60000000E+01  1.00800000E+00  1.00800000E+00  1.60000000E+01  1.00800000E+00
  1.00800000E+00  1.60000000E+01  1.00800000E+00  1.00800000E+00  1.60000000E+01
  1.00800000E+00  1.00800000E+00  1.60000000E+01  1.00800000E+00  1.00800000E+00
  1.60000000E+01  1.00800000E+00  1.00800000E+00  1.60000000E+01  1.00800000E+00
  1.00800000E+00  1.60000000E+01  1.00800000E+00  1.00800000E+00  1.60000000E+01
  1.00800000E+00  1.00800000E+00  1.60000000E+01  1.00800000E+00  1.00800000E+00
  1.60000000E+01  1.00800000E+00  1.00800000E+00  1.60000000E+01  1.00800000E+00
  1.00800000E+00  1.60000000E+01  1.00800000E+00  1.00800000E+00  1.60000000E+01
  1.00800000E+00  1.00800000E+00  1.60000000E+01  1.00800000E+00  1.00800000E+00
  1.60000000E+01  1.00800000E+00  1.00800000E+00  1.60000000E+01  1.00800000E+00
  1.00800000E+00  1.60000000E+01  1.00800000E+00  1.00800000E+00  1.60000000E+01
  1.00800000E+00  1.00800000E+00  1.60000000E+01  1.00800000E+00  1.00800000E+00
  1.60000000E+01  1.00800000E+00  1.00800000E+00  1.60000000E+01  1.00800000E+00
  1.00800000E+00  1.60000000E+01  1.00800000E+00  1.00800000E+00  1.60000000E+01
  1.00800000E+00  1.00800000E+00  1.60000000E+01  1.00800000E+00  1.00800000E+00
  1.60000000E+01  1.00800000E+00  1.00800000E+00  1.60000000E+01  1.00800000E+00
  1.00800000E+00  1.60000000E+01  1.00800000E+00  1.00800000E+00  1.60000000E+01
  1.00800000E+00  1.00800000E+00  1.60000000E+01  1.00800000E+00  1.00800000E+00
  1.60000000E+01  1.00800000E+00  1.00800000E+00  1.60000000E+01  1.00800000E+00
  1.00800000E+00  1.60000000E+01  1.00800000E+00  1.00800000E+00  1.60000000E+01
  1.00800000E+00  1.00800000E+00  1.60000000E+01  1.00800000E+00  1.00800000E+00
  1.60000000E+01  1.00800000E+00  1.00800000E+00  1.60000000E+01  1.00800000E+00
  1.00800000E+00  1.60000000E+01  1.00800000E+00  1.00800000E+00  1.60000000E+01
  1.00800000E+00  1.00800000E+00  1.60000000E+01  1.00800000E+00  1.00800000E+00
  1.60000000E+01  1.00800000E+00  1.00800000E+00  1.60000000E+01  1.00800000E+00
  1.00800000E+00  1.60000000E+01  1.00800000E+00  1.00800000E+00  1.60000000E+01
  1.00800000E+00  1.00800000E+00  1.60000000E+01  1.00800000E+00  1.00800000E+00
  1.60000000E+01  1.00800000E+00  1.00800000E+00  1.60000000E+01  1.00800000E+00
  1.00800000E+00  1.60000000E+01  1.00800000E+00  1.00800000E+00  1.60000000E+01
  1.00800000E+00  1.00800000E+00  1.60000000E+01  1.00800000E+00  1.00800000E+00
  1.60000000E+01  1.00800000E+00  1.00800000E+00  1.60000000E+01  1.00800000E+00
  1.00800000E+00  1.60000000E+01  1.00800000E+00  1.00800000E+00  1.60000000E+01
  1.00800000E+00  1.00800000E+00  1.60000000E+01  1.00800000E+00  1.00800000E+00
  1.60000000E+01  1.00800000E+00  1.00800000E+00  1.60000000E+01  1.00800000E+00
  1.00800000E+00  1.60000000E+01  1.00800000E+00  1.00800000E+00  1.60000000E+01
  1.00800000E+00  1.00800000E+00  1.60000000E+01  1.00800000E+00  1.00800000E+00
  1.60000000E+01  1.00800000E+00  1.00800000E+00  1.60000000E+01  1.00800000E+00
  1.00800000E+00  1.60000000E+01  1.00800000E+00  1.00800000E+00  1.60000000E+01
  1.00800000E+00  1.00800000E+00  1.60000000E+01  1.00800000E+00  1.00800000E+00
  1.60000000E+01  1.00800000E+00  1.00800000E+00  1.60000000E+01  1.00800000E+00
  1.00800000E+00  1.60000000E+01  1.00800000E+00  1.00800000E+00  1.60000000E+01
  1.00800000E+00  1.00800000E+00  1.60000000E+01  1.00800000E+00  1.00800000E+00
  1.60000000E+01  1.00800000E+00  1.00800000E+00  1.60000000E+01  1.00800000E+00
  1.00800000E+00  1.60000000E+01  1.00800000E+00  1.00800000E+00  1.60000000E+01
  1.00800000E+00  1.00800000E+00  1.60000000E+01  1.00800000E+00  1.00800000E+00
  1.60000000E+01  1.00800000E+00  1.00800000E+00  1.60000000E+01  1.00800000E+00
  1.00800000E+00  1.60000000E+01  1.00800000E+00  1.00800000E+00  1.60000000E+01
  1.00800000E+00  1.00800000E+00  1.60000000E+01  1.00800000E+00  1.00800000E+00
  1.60000000E+01  1.00800000E+00  1.00800000E+00  1.60000000E+01  1.00800000E+00
  1.00800000E+00  1.60000000E+01  1.00800000E+00  1.00800000E+00  1.60000000E+01
  1.00800000E+00  1.00800000E+00  1.60000000E+01  1.00800000E+00  1.00800000E+00
  1.60000000E+01  1.00800000E+00  1.00800000E+00  1.60000000E+01  1.00800000E+00
  1.00800000E+00  1.60000000E+01  1.00800000E+00  1.00800000E+00  1.60000000E+01
  1.00800000E+00  1.00800000E+00  1.60000000E+01  1.00800000E+00  1.00800000E+00
  1.60000000E+01  1.00800000E+00  1.00800000E+00  1.60000000E+01  1.00800000E+00
  1.00800000E+00  1.60000000E+01  1.00800000E+00  1.00800000E+00  1.60000000E+01
  1.00800000E+00  1.00800000E+00  1.60000000E+01  1.00800000E+00  1.00800000E+00
  1.60000000E+01  1.00800000E+00  1.00800000E+00  1.60000000E+01  1.00800000E+00
  1.00800000E+00  1.60000000E+01  1.00800000E+00  1.00800000E+00  1.60000000E+01
  1.00800000E+00  1.00800000E+00  1.60000000E+01  1.00800000E+00  1.00800000E+00
  1.60000000E+01  1.00800000E+00  1.00800000E+00  1.60000000E+01  1.00800000E+00
  1.00800000E+00  1.60000000E+01  1.00800000E+00  1.00800000E+00  1.60000000E+01
  1.00800000E+00  1.00800000E+00  1.60000000E+01  1.00800000E+00  1.00800000E+00
  1.60000000E+01  1.00800000E+00  1.00800000E+00  1.60000000E+01  1.00800000E+00
  1.00800000E+00  1.60000000E+01  1.00800000E+00  1.00800000E+00  1.60000000E+01
  1.00800000E+00  1.00800000E+00  1.60000000E+01  1.00800000E+00  1.00800000E+00
  1.60000000E+01  1.00800000E+00  1.00800000E+00  1.60000000E+01  1.00800000E+00
  1.00800000E+00  1.60000000E+01  1.00800000E+00  1.00800000E+00  1.60000000E+01
  1.00800000E+00  1.00800000E+00  1.60000000E+01  1.00800000E+00  1.00800000E+00
  1.60000000E+01  1.00800000E+00  1.00800000E+00  1.60000000E+01  1.00800000E+00
  1.00800000E+00  1.60000000E+01  1.00800000E+00  1.00800000E+00  1.60000000E+01
  1.00800000E+00  1.00800000E+00  1.60000000E+01  1.00800000E+00  1.00800000E+00
  1.60000000E+01  1.00800000E+00  1.00800000E+00  1.60000000E+01  1.00800000E+00
  1.00800000E+00  1.60000000E+01  1.00800000E+00  1.00800000E+00  1.60000000E+01
  1.00800000E+00  1.00800000E+00  1.60000000E+01  1.00800000E+00  1.00800000E+00
  1.60000000E+01  1.00800000E+00  1.00800000E+00  1.60000000E+01  1.00800000E+00
  1.00800000E+00  1.60000000E+01  1.00800000E+00  1.00800000E+00  1.60000000E+01
  1.00800000E+00  1.00800000E+00  1.60000000E+01  1.00800000E+00  1.00800000E+00
  1.60000000E+01  1.00800000E+00  1.00800000E+00  1.60000000E+01  1.00800000E+00
  1.00800000E+00  1.60000000E+01  1.00800000E+00  1.00800000E+00  1.60000000E+01
  1.00800000E+00  1.00800000E+00  1.60000000E+01  1.00800000E+00  1.00800000E+00
  1.60000000E+01  1.00800000E+00  1.00800000E+00  1.60000000E+01  1.00800000E+00
  1.00800000E+00  1.60000000E+01  1.00800000E+00  1.00800000E+00  1.60000000E+01
  1.00800000E+00  1.00800000E+00  1.60000000E+01  1.00800000E+00  1.00800000E+00
  1.60000000E+01  1.00800000E+00  1.00800000E+00  1.60000000E+01  1.00800000E+00
  1.00800000E+00  1.60000000E+01  1.00800000E+00  1.00800000E+00  1.60000000E+01
  1.00800000E+00  1.00800000E+00  1.60000000E+01  1.00800000E+00  1.00800000E+00
  1.60000000E+01  1.00800000E+00  1.00800000E+00  1.60000000E+01  1.00800000E+00
  1.00800000E+00  1.60000000E+01  1.00800000E+00  1.00800000E+00  1.60000000E+01
  1.00800000E+00  1.00800000E+00  1.60000000E+01  1.00800000E+00  1.00800000E+00
  1.60000000E+01  1.00800000E+00  1.00800000E+00  1.60000000E+01  1.00800000E+00
  1.00800000E+00  1.60000000E+01  1.00800000E+00  1.00800000E+00  1.60000000E+01
  1.00800000E+00  1.00800000E+00  1.60000000E+01  1.00800000E+00  1.00800000E+00
  1.60000000E+01  1.00800000E+00  1.00800000E+00  1.60000000E+01  1.00800000E+00
  1.00800000E+00  1.60000000E+01  1.00800000E+00  1.00800000E+00  1.60000000E+01
  1.00800000E+00  1.00800000E+00  1.60000000E+01  1.00800000E+00  1.00800000E+00
  1.60000000E+01  1.00800000E+00  1.00800000E+00  1.60000000E+01  1.00800000E+00
  1.00800000E+00  1.60000000E+01  1.00800000E+00  1.00800000E+00  1.60000000E+01
  1.00800000E+00  1.00800000E+00  1.60000000E+01  1.00800000E+00  1.00800000E+00
  1.60000000E+01  1.00800000E+00  1.00800000E+00  1.60000000E+01  1.00800000E+00
  1.00800000E+00  1.60000000E+01  1.00800000E+00  1.00800000E+00  1.60000000E+01
  1.00800000E+00  1.00800000E+00  1.60000000E+01  1.00800000E+00  1.00800000E+00
  1.60000000E+01  1.00800000E+00  1.00800000E+00  1.60000000E+01  1.00800000E+00
  1.00800000E+00  1.60000000E+01  1.00800000E+00  1.00800000E+00  1.60000000E+01
  1.00800000E+00  1.00800000E+00  1.60000000E+01  1.00800000E+00  1.00800000E+00
  1.60000000E+01  1.00800000E+00  1.00800000E+00  1.60000000E+01  1.00800000E+00
  1.00800000E+00  1.60000000E+01  1.00800000E+00  1.00800000E+00  1.60000000E+01
  1.00800000E+00  1.00800000E+00  1.60000000E+01  1.00800000E+00  1.00800000E+00
  1.60000000E+01  1.00800000E+00  1.00800000E+00  1.60000000E+01  1.00800000E+00
  1.00800000E+00  1.60000000E+01  1.00800000E+00  1.00800000E+00  1.60000000E+01
  1.00800000E+00  1.00800000E+00  1.60000000E+01  1.00800000E+00  1.00800000E+00
  1.60000000E+01  1.00800000E+00  1.00800000E+00  1.60000000E+01  1.00800000E+00
  1.00800000E+00  1.60000000E+01  1.00800000E+00  1.00800000E+00  1.60000000E+01
  1.00800000E+00  1.00800000E+00  1.60000000E+01  1.00800000E+00  1.00800000E+00
  1.60000000E+01  1.00800000E+00  1.00800000E+00  1.60000000E+01  1.00800000E+00
  1.00800000E+00  1.60000000E+01  1.00800000E+00  1.00800000E+00  1.60000000E+01
  1.00800000E+00  1.00800000E+00  1.60000000E+01  1.00800000E+00  1.00800000E+00
  1.60000000E+01  1.00800000E+00  1.00800000E+00  1.60000000E+01  1.00800000E+00
  1.00800000E+00  1.60000000E+01  1.00800000E+00  1.00800000E+00  1.60000000E+01
  1.00800000E+00  1.00800000E+00  1.60000000E+01  1.00800000E+00  1.00800000E+00
  1.60000000E+01  1.00800000E+00  1.00800000E+00  1.60000000E+01  1.00800000E+00
  1.00800000E+00  1.60000000E+01  1.00800000E+00  1.00800000E+00  1.60000000E+01
  1.00800000E+00  1.00800000E+00  1.60000000E+01  1.00800000E+00  1.00800000E+00
  1.60000000E+01  1.00800000E+00  1.00800000E+00  1.60000000E+01  1.00800000E+00
  1.00800000E+00  1.60000000E+01  1.00800000E+00  1.00800000E+00  1.60000000E+01
  1.00800000E+00  1.00800000E+00  1.60000000E+01  1.00800000E+00  1.00800000E+00
  1.60000000E+01  1.00800000E+00  1.00800000E+00  1.60000000E+01  1.00800000E+00
  1.00800000E+00  1.60000000E+01  1.00800000E+00  1.00800000E+00  1.60000000E+01
  1.00800000E+00  1.00800000E+00  1.60000000E+01  1.00800000E+00  1.00800000E+00
  1.60000000E+01  1.00800000E+00  1.00800000E+00  1.60000000E+01  1.00800000E+00
  1.00800000E+00  1.60000000E+01  1.00800000E+00  1.00800000E+00  1.60000000E+01
  1.00800000E+00  1.00800000E+00  1.60000000E+01  1.00800000E+00  1.00800000E+00
  1.60000000E+01  1.00800000E+00  1.00800000E+00  1.60000000E+01  1.00800000E+00
  1.00800000E+00  1.60000000E+01  1.00800000E+00  1.00800000E+00  1.60000000E+01
  1.00800000E+00  1.00800000E+00  1.60000000E+01  1.00800000E+00  1.00800000E+00
  1.60000000E+01  1.00800000E+00  1.00800000E+00  1.60000000E+01  1.00800000E+00
  1.00800000E+00  1.60000000E+01  1.00800000E+00  1.00800000E+00  1.60000000E+01
  1.00800000E+00  1.00800000E+00  1.60000000E+01  1.00800000E+00  1.00800000E+00
  1.60000000E+01  1.00800000E+00  1.00800000E+00  1.60000000E+01  1.00800000E+00
  1.00800000E+00  1.60000000E+01  1.00800000E+00  1.00800000E+00  1.60000000E+01
  1.00800000E+00  1.00800000E+00  1.60000000E+01  1.00800000E+00  1.00800000E+00
  1.60000000E+01  1.00800000E+00  1.00800000E+00  1.60000000E+01  1.00800000E+00
  1.00800000E+00  1.60000000E+01  1.00800000E+00  1.00800000E+00  1.60000000E+01
  1.00800000E+00  1.00800000E+00  1.60000000E+01  1.00800000E+00  1.00800000E+00
  1.60000000E+01  1.00800000E+00  1.00800000E+00  1.60000000E+01  1.00800000E+00
  1.00800000E+00  1.60000000E+01  1.00800000E+00  1.00800000E+00  1.60000000E+01
  1.00800000E+00  1.00800000E+00  1.60000000E+01  1.00800000E+00  1.00800000E+00
  1.60000000E+01  1.00800000E+00  1.00800000E+00  1.60000000E+01  1.00800000E+00
  1.00800000E+00  1.60000000E+01  1.00800000E+00  1.00800000E+00  1.60000000E+01
  1.00800000E+00  1.00800000E+00  1.60000000E+01  1.00800000E+00  1.00800000E+00
  1.60000000E+01  1.00800000E+00  1.00800000E+00  1.60000000E+01  1.00800000E+00
  1.00800000E+00  1.60000000E+01  1.00800000E+00  1.00800000E+00  1.60000000E+01
  1.00800000E+00  1.00800000E+00  1.60000000E+01  1.00800000E+00  1.00800000E+00
  1.60000000E+01  1.00800000E+00  1.00800000E+00  1.60000000E+01  1.00800000E+00
  1.00800000E+00  1.60000000E+01  1.00800000E+00  1.00800000E+00  1.60000000E+01
  1.00800000E+00  1.00800000E+00  1.60000000E+01  1.00800000E+00  1.00800000E+00
  1.60000000E+01  1.00800000E+00  1.00800000E+00  1.60000000E+01  1.00800000E+00
  1.00800000E+00  1.60000000E+01  1.00800000E+00  1.00800000E+00  1.60000000E+01
  1.00800000E+00  1.00800000E+00  1.60000000E+01  1.00800000E+00  1.00800000E+00
  1.60000000E+01  1.00800000E+00  1.00800000E+00  1.60000000E+01  1.00800000E+00
  1.00800000E+00  1.60000000E+01  1.00800000E+00  1.00800000E+00  1.60000000E+01
  1.00800000E+00  1.00800000E+00  1.60000000E+01  1.00800000E+00  1.00800000E+00
  1.60000000E+01  1.00800000E+00  1.00800000E+00  1.60000000E+01  1.00800000E+00
  1.00800000E+00  1.60000000E+01  1.00800000E+00  1.00800000E+00  1.60000000E+01
  1.00800000E+00  1.00800000E+00  1.60000000E+01  1.00800000E+00  1.00800000E+00
  1.60000000E+01  1.00800000E+00  1.00800000E+00  1.60000000E+01  1.00800000E+00
  1.00800000E+00  1.60000000E+01  1.00800000E+00  1.00800000E+00  1.60000000E+01
  1.00800000E+00  1.00800000E+00  1.60000000E+01  1.00800000E+00  1.00800000E+00
  1.60000000E+01  1.00800000E+00  1.00800000E+00  1.60000000E+01  1.00800000E+00
  1.00800000E+00  1.60000000E+01  1.00800000E+00  1.00800000E+00  1.60000000E+01
  1.00800000E+00  1.00800000E+00  1.60000000E+01  1.00800000E+00  1.00800000E+00
  1.60000000E+01  1.00800000E+00  1.00800000E+00  1.60000000E+01  1.00800000E+00
  1.00800000E+00  1.60000000E+01  1.00800000E+00  1.00800000E+00  1.60000000E+01
  1.00800000E+00  1.00800000E+00  1.60000000E+01  1.00800000E+00  1.00800000E+00
  1.60000000E+01  1.00800000E+00  1.00800000E+00  1.60000000E+01  1.00800000E+00
  1.00800000E+00  1.60000000E+01  1.00800000E+00  1.00800000E+00  1.60000000E+01
  1.00800000E+00  1.00800000E+00  1.60000000E+01  1.00800000E+00  1.00800000E+00
  1.60000000E+01  1.00800000E+00  1.00800000E+00  1.60000000E+01  1.00800000E+00
  1.00800000E+00  1.60000000E+01  1.00800000E+00  1.00800000E+00  1.60000000E+01
  1.00800000E+00  1.00800000E+00  1.60000000E+01  1.00800000E+00  1.00800000E+00
  1.60000000E+01  1.00800000E+00  1.00800000E+00  1.60000000E+01  1.00800000E+00
  1.00800000E+00  1.60000000E+01  1.00800000E+00  1.00800000E+00  1.60000000E+01
  1.00800000E+00  1.00800000E+00  1.60000000E+01  1.00800000E+00  1.00800000E+00
  1.60000000E+01  1.00800000E+00  1.00800000E+00  1.60000000E+01  1.00800000E+00
  1.00800000E+00  1.60000000E+01  1.00800000E+00  1.00800000E+00  1.60000000E+01
  1.00800000E+00  1.00800000E+00  1.60000000E+01  1.00800000E+00  1.00800000E+00
  1.60000000E+01  1.00800000E+00  1.00800000E+00  1.60000000E+01  1.00800000E+00
  1.00800000E+00  1.60000000E+01  1.00800000E+00  1.00800000E+00  1.60000000E+01
  1.00800000E+00  1.00800000E+00  1.60000000E+01  1.00800000E+00  1.00800000E+00
  1.60000000E+01  1.00800000E+00  1.00800000E+00  1.60000000E+01  1.00800000E+00
  1.00800000E+00  1.60000000E+01  1.00800000E+00  1.00800000E+00  1.60000000E+01
  1.00800000E+00  1.00800000E+00  1.60000000E+01  1.00800000E+00  1.00800000E+00
  1.60000000E+01  1.00800000E+00  1.00800000E+00  1.60000000E+01  1.00800000E+00
  1.00800000E+00  1.60000000E+01  1.00800000E+00  1.00800000E+00  1.60000000E+01
  1.00800000E+00  1.00800000E+00  1.60000000E+01  1.00800000E+00  1.00800000E+00
  1.60000000E+01  1.00800000E+00  1.00800000E+00  1.60000000E+01  1.00800000E+00
  1.00800000E+00  1.60000000E+01  1.00800000E+00  1.00800000E+00  1.60000000E+01
  1.00800000E+00  1.00800000E+00  1.60000000E+01  1.00800000E+00  1.00800000E+00
  1.60000000E+01  1.00800000E+00  1.00800000E+00  1.60000000E+01  1.00800000E+00
  1.00800000E+00  1.60000000E+01  1.00800000E+00  1.00800000E+00  1.60000000E+01
  1.00800000E+00  1.00800000E+00  1.60000000E+01  1.00800000E+00  1.00800000E+00
  1.60000000E+01  1.00800000E+00  1.00800000E+00  1.60000000E+01  1.00800000E+00
  1.00800000E+00  1.60000000E+01  1.00800000E+00  1.00800000E+00  1.60000000E+01
  1.00800000E+00  1.00800000E+00  1.60000000E+01  1.00800000E+00  1.00800000E+00
  1.60000000E+01  1.00800000E+00  1.00800000E+00  1.60000000E+01  1.00800000E+00
  1.00800000E+00  1.60000000E+01  1.00800000E+00  1.00800000E+00  1.60000000E+01
  1.00800000E+00  1.00800000E+00  1.60000000E+01  1.00800000E+00  1.00800000E+00
  1.60000000E+01  1.00800000E+00  1.00800000E+00  1.60000000E+01  1.00800000E+00
  1.00800000E+00  1.60000000E+01  1.00800000E+00  1.00800000E+00  1.60000000E+01
  1.00800000E+00  1.00800000E+00  1.60000000E+01  1.00800000E+00  1.00800000E+00
  1.60000000E+01  1.00800000E+00  1.00800000E+00  1.60000000E+01  1.00800000E+00
  1.00800000E+00  1.60000000E+01  1.00800000E+00  1.00800000E+00  1.60000000E+01
  1.00800000E+00  1.00800000E+00  1.60000000E+01  1.00800000E+00  1.00800000E+00
  1.60000000E+01  1.00800000E+00  1.00800000E+00  1.60000000E+01  1.00800000E+00
  1.00800000E+00  1.60000000E+01  1.00800000E+00  1.00800000E+00  1.60000000E+01
  1.00800000E+00  1.00800000E+00  1.60000000E+01  1.00800000E+00  1.00800000E+00
  1.60000000E+01  1.00800000E+00  1.00800000E+00  1.60000000E+01  1.00800000E+00
  1.00800000E+00  1.60000000E+01  1.00800000E+00  1.00800000E+00  1.60000000E+01
  1.00800000E+00  1.00800000E+00  1.60000000E+01  1.00800000E+00  1.00800000E+00
  1.60000000E+01  1.00800000E+00  1.00800000E+00  1.60000000E+01  1.00800000E+00
  1.00800000E+00  1.60000000E+01  1.00800000E+00  1.00800000E+00  1.60000000E+01
  1.00800000E+00  1.00800000E+00  1.60000000E+01  1.00800000E+00  1.00800000E+00
  1.60000000E+01  1.00800000E+00  1.00800000E+00  1.60000000E+01  1.00800000E+00
  1.00800000E+00  1.60000000E+01  1.00800000E+00  1.00800000E+00  1.60000000E+01
  1.00800000E+00  1.00800000E+00  1.60000000E+01  1.00800000E+00  1.00800000E+00
  1.60000000E+01  1.00800000E+00  1.00800000E+00  1.60000000E+01  1.00800000E+00
  1.00800000E+00  1.60000000E+01  1.00800000E+00  1.00800000E+00  1.60000000E+01
  1.00800000E+00  1.00800000E+00  1.60000000E+01  1.00800000E+00  1.00800000E+00
  1.60000000E+01  1.00800000E+00  1.00800000E+00  1.60000000E+01  1.00800000E+00
  1.00800000E+00  1.60000000E+01  1.00800000E+00  1.00800000E+00  1.60000000E+01
  1.00800000E+00  1.00800000E+00  1.60000000E+01  1.00800000E+00  1.00800000E+00
  1.60000000E+01  1.00800000E+00  1.00800000E+00  1.60000000E+01  1.00800000E+00
  1.00800000E+00  1.60000000E+01  1.00800000E+00  1.00800000E+00  1.60000000E+01
  1.00800000E+00  1.00800000E+00  1.60000000E+01  1.00800000E+00  1.00800000E+00
  1.60000000E+01  1.00800000E+00  1.00800000E+00  1.60000000E+01  1.00800000E+00
  1.00800000E+00  1.60000000E+01  1.00800000E+00  1.00800000E+00  1.60000000E+01
  1.00800000E+00  1.00800000E+00  1.60000000E+01  1.00800000E+00  1.00800000E+00
  1.60000000E+01  1.00800000E+00  1.00800000E+00  1.60000000E+01  1.00800000E+00
  1.00800000E+00  1.60000000E+01  1.00800000E+00  1.00800000E+00  1.60000000E+01
  1.00800000E+00  1.00800000E+00  1.60000000E+01  1.00800000E+00  1.00800000E+00
  1.60000000E+01  1.00800000E+00  1.00800000E+00  1.60000000E+01  1.00800000E+00
  1.00800000E+00  1.60000000E+01  1.00800000E+00  1.00800000E+00  1.60000000E+01
  1.00800000E+00  1.00800000E+00  1.60000000E+01  1.00800000E+00  1.00800000E+00
  1.60000000E+01  1.00800000E+00  1.00800000E+00  1.60000000E+01  1.00800000E+00
  1.00800000E+00  1.60000000E+01  1.00800000E+00  1.00800000E+00  1.60000000E+01
  1.00800000E+00  1.00800000E+00  1.60000000E+01  1.00800000E+00  1.00800000E+00
  1.60000000E+01  1.00800000E+00  1.00800000E+00  1.60000000E+01  1.00800000E+00
  1.00800000E+00  1.60000000E+01  1.00800000E+00  1.00800000E+00  1.60000000E+01
  1.00800000E+00  1.00800000E+00  1.60000000E+01  1.00800000E+00  1.00800000E+00
  1.60000000E+01  1.00800000E+00  1.00800000E+00  1.60000000E+01  1.00800000E+00
  1.00800000E+00  1.60000000E+01  1.00800000E+00  1.00800000E+00  1.60000000E+01
  1.00800000E+00  1.00800000E+00  1.60000000E+01  1.00800000E+00  1.00800000E+00
  1.60000000E+01  1.00800000E+00  1.00800000E+00  1.60000000E+01  1.00800000E+00
  1.00800000E+00  1.60000000E+01  1.00800000E+00  1.00800000E+00  1.60000000E+01
  1.00800000E+00  1.00800000E+00  1.60000000E+01  1.00800000E+00  1.00800000E+00
  1.60000000E+01  1.00800000E+00  1.00800000E+00  1.60000000E+01  1.00800000E+00
  1.00800000E+00  1.60000000E+01  1.00800000E+00  1.00800000E+00  1.60000000E+01
  1.00800000E+00  1.00800000E+00  1.60000000E+01  1.00800000E+00  1.00800000E+00
  1.60000000E+01  1.00800000E+00  1.00800000E+00  1.60000000E+01  1.00800000E+00
  1.00800000E+00  1.60000000E+01  1.00800000E+00  1.00800000E+00  1.60000000E+01
  1.00800000E+00  1.00800000E+00  1.60000000E+01  1.00800000E+00  1.00800000E+00
  1.60000000E+01  1.00800000E+00  1.00800000E+00  1.60000000E+01  1.00800000E+00
  1.00800000E+00  1.60000000E+01  1.00800000E+00  1.00800000E+00  1.60000000E+01
  1.00800000E+00  1.00800000E+00  1.60000000E+01  1.00800000E+00  1.00800000E+00
  1.60000000E+01  1.00800000E+00  1.00800000E+00  1.60000000E+01  1.00800000E+00
  1.00800000E+00  1.60000000E+01  1.00800000E+00  1.00800000E+00  1.60000000E+01
  1.00800000E+00  1.00800000E+00  1.60000000E+01  1.00800000E+00  1.00800000E+00
  1.60000000E+01  1.00800000E+00  1.00800000E+00  1.60000000E+01  1.00800000E+00
  1.00800000E+00  1.60000000E+01  1.00800000E+00  1.00800000E+00  1.60000000E+01
  1.00800000E+00  1.00800000E+00  1.60000000E+01  1.00800000E+00  1.00800000E+00
  1.60000000E+01  1.00800000E+00  1.00800000E+00  1.60000000E+01  1.00800000E+00
  1.00800000E+00  1.60000000E+01  1.00800000E+00  1.00800000E+00  1.60000000E+01
  1.00800000E+00  1.00800000E+00  1.60000000E+01  1.00800000E+00  1.00800000E+00
  1.60000000E+01  1.00800000E+00  1.00800000E+00  1.60000000E+01  1.00800000E+00
  1.00800000E+00  1.60000000E+01  1.00800000E+00  1.00800000E+00  1.60000000E+01
  1.00800000E+00  1.00800000E+00  1.60000000E+01  1.00800000E+00  1.00800000E+00
  1.60000000E+01  1.00800000E+00  1.00800000E+00  1.60000000E+01  1.00800000E+00
  1.00800000E+00  1.60000000E+01  1.00800000E+00  1.00800000E+00  1.60000000E+01
  1.00800000E+00  1.00800000E+00  1.60000000E+01  1.00800000E+00  1.00800000E+00
  1.60000000E+01  1.00800000E+00  1.00800000E+00  1.60000000E+01  1.00800000E+00
  1.00800000E+00  1.60000000E+01  1.00800000E+00  1.00800000E+00  1.60000000E+01
  1.00800000E+00  1.00800000E+00  1.60000000E+01  1.00800000E+00  1.00800000E+00
  1.60000000E+01  1.00800000E+00  1.00800000E+00  1.60000000E+01  1.00800000E+00
  1.00800000E+00  1.60000000E+01  1.00800000E+00  1.00800000E+00  1.60000000E+01
  1.00800000E+00  1.00800000E+00  1.60000000E+01  1.00800000E+00  1.00800000E+00
  1.60000000E+01  1.00800000E+00  1.00800000E+00  1.60000000E+01  1.00800000E+00
  1.00800000E+00  1.60000000E+01  1.00800000E+00  1.00800000E+00  1.60000000E+01
  1.00800000E+00  1.00800000E+00  1.60000000E+01  1.00800000E+00  1.00800000E+00
  1.60000000E+01  1.00800000E+00  1.00800000E+00  1.60000000E+01  1.00800000E+00
  1.00800000E+00  1.60000000E+01  1.00800000E+00  1.00800000E+00  1.60000000E+01
  1.00800000E+00  1.00800000E+00  1.60000000E+01  1.00800000E+00  1.00800000E+00
  1.60000000E+01  1.00800000E+00  1.00800000E+00  1.60000000E+01  1.00800000E+00
  1.00800000E+00  1.60000000E+01  1.00800000E+00  1.00800000E+00  1.60000000E+01
  1.00800000E+00  1.00800000E+00  1.60000000E+01  1.00800000E+00  1.00800000E+00
  1.60000000E+01  1.00800000E+00  1.00800000E+00  1.60000000E+01  1.00800000E+00
  1.00800000E+00  1.60000000E+01  1.00800000E+00  1.00800000E+00  1.60000000E+01
  1.00800000E+00  1.00800000E+00  1.60000000E+01  1.00800000E+00  1.00800000E+00
  1.60000000E+01  1.00800000E+00  1.00800000E+00  1.60000000E+01  1.00800000E+00
  1.00800000E+00  1.60000000E+01  1.00800000E+00  1.00800000E+00  1.60000000E+01
  1.00800000E+00  1.00800000E+00  1.60000000E+01  1.00800000E+00  1.00800000E+00
  1.60000000E+01  1.00800000E+00  1.00800000E+00  1.60000000E+01  1.00800000E+00
  1.00800000E+00  1.60000000E+01  1.00800000E+00  1.00800000E+00  1.60000000E+01
  1.00800000E+00  1.00800000E+00  1.60000000E+01  1.00800000E+00  1.00800000E+00
  1.60000000E+01  1.00800000E+00  1.00800000E+00  1.60000000E+01  1.00800000E+00
  1.00800000E+00  1.60000000E+01  1.00800000E+00  1.00800000E+00  1.60000000E+01
  1.00800000E+00  1.00800000E+00  1.60000000E+01  1.00800000E+00  1.00800000E+00
  1.60000000E+01  1.00800000E+00  1.00800000E+00  1.60000000E+01  1.00800000E+00
  1.00800000E+00  1.60000000E+01  1.00800000E+00  1.00800000E+00  1.60000000E+01
  1.00800000E+00  1.00800000E+00  1.60000000E+01  1.00800000E+00  1.00800000E+00
  1.60000000E+01  1.00800000E+00  1.00800000E+00  1.60000000E+01  1.00800000E+00
  1.00800000E+00  1.60000000E+01  1.00800000E+00  1.00800000E+00  1.60000000E+01
  1.00800000E+00  1.00800000E+00  1.60000000E+01  1.00800000E+00  1.00800000E+00
  1.60000000E+01  1.00800000E+00  1.00800000E+00  1.60000000E+01  1.00800000E+00
  1.00800000E+00  1.60000000E+01  1.00800000E+00  1.00800000E+00  1.60000000E+01
  1.00800000E+00  1.00800000E+00  1.60000000E+01  1.00800000E+00  1.00800000E+00
  1.60000000E+01  1.00800000E+00  1.00800000E+00  1.60000000E+01  1.00800000E+00
  1.00800000E+00  1.60000000E+01  1.00800000E+00  1.00800000E+00  1.60000000E+01
  1.00800000E+00  1.00800000E+00  1.60000000E+01  1.00800000E+00  1.00800000E+00
  1.60000000E+01  1.00800000E+00  1.00800000E+00  1.60000000E+01  1.00800000E+00
  1.00800000E+00  1.60000000E+01  1.00800000E+00  1.00800000E+00  1.60000000E+01
  1.00800000E+00  1.00800000E+00  1.60000000E+01  1.00800000E+00  1.00800000E+00
  1.60000000E+01  1.00800000E+00  1.00800000E+00  1.60000000E+01  1.00800000E+00
  1.00800000E+00  1.60000000E+01  1.00800000E+00  1.00800000E+00  1.60000000E+01
  1.00800000E+00  1.00800000E+00  1.60000000E+01  1.00800000E+00  1.00800000E+00
  1.60000000E+01  1.00800000E+00  1.00800000E+00  1.60000000E+01  1.00800000E+00
  1.00800000E+00  1.60000000E+01  1.00800000E+00  1.00800000E+00  1.60000000E+01
  1.00800000E+00  1.00800000E+00  1.60000000E+01  1.00800000E+00  1.00800000E+00
  1.60000000E+01  1.00800000E+00  1.00800000E+00  1.60000000E+01  1.00800000E+00
  1.00800000E+00  1.60000000E+01  1.00800000E+00  1.00800000E+00  1.60000000E+01
  1.00800000E+00  1.00800000E+00  1.60000000E+01  1.00800000E+00  1.00800000E+00
  1.60000000E+01  1.00800000E+00  1.00800000E+00  1.60000000E+01  1.00800000E+00
  1.00800000E+00  1.60000000E+01  1.00800000E+00  1.00800000E+00  1.60000000E+01
  1.00800000E+00  1.00800000E+00  1.60000000E+01  1.00800000E+00  1.00800000E+00
  1.60000000E+01  1.00800000E+00  1.00800000E+00  1.60000000E+01  1.00800000E+00
  1.00800000E+00  1.60000000E+01  1.00800000E+00  1.00800000E+00  1.60000000E+01
  1.00800000E+00  1.00800000E+00  1.60000000E+01  1.00800000E+00  1.00800000E+00
  1.60000000E+01  1.00800000E+00  1.00800000E+00  1.60000000E+01  1.00800000E+00
  1.00800000E+00  1.60000000E+01  1.00800000E+00  1.00800000E+00  1.60000000E+01
  1.00800000E+00  1.00800000E+00  1.60000000E+01  1.00800000E+00  1.00800000E+00
  1.60000000E+01  1.00800000E+00  1.00800000E+00  1.60000000E+01  1.00800000E+00
  1.00800000E+00  1.60000000E+01  1.00800000E+00  1.00800000E+00  1.60000000E+01
  1.00800000E+00  1.00800000E+00  1.60000000E+01  1.00800000E+00  1.00800000E+00
  1.60000000E+01  1.00800000E+00  1.00800000E+00  1.60000000E+01  1.00800000E+00
  1.00800000E+00  1.60000000E+01  1.00800000E+00  1.00800000E+00  1.60000000E+01
  1.00800000E+00  1.00800000E+00  1.60000000E+01  1.00800000E+00  1.00800000E+00
  1.60000000E+01  1.00800000E+00  1.00800000E+00  1.60000000E+01  1.00800000E+00
  1.00800000E+00  1.60000000E+01  1.00800000E+00  1.00800000E+00  1.60000000E+01
  1.00800000E+00  1.00800000E+00  1.60000000E+01  1.00800000E+00  1.00800000E+00
  1.60000000E+01  1.00800000E+00  1.00800000E+00  1.60000000E+01  1.00800000E+00
  1.00800000E+00  1.60000000E+01  1.00800000E+00  1.00800000E+00  1.60000000E+01
  1.00800000E+00  1.00800000E+00  1.60000000E+01  1.00800000E+00  1.00800000E+00
  1.60000000E+01  1.00800000E+00  1.00800000E+00  1.60000000E+01  1.00800000E+00
  1.00800000E+00  1.60000000E+01  1.00800000E+00  1.00800000E+00  1.60000000E+01
  1.00800000E+00  1.00800000E+00  1.60000000E+01  1.00800000E+00  1.00800000E+00
  1.60000000E+01  1.00800000E+00  1.00800000E+00  1.60000000E+01  1.00800000E+00
  1.00800000E+00  1.60000000E+01  1.00800000E+00  1.00800000E+00  1.60000000E+01
  1.00800000E+00  1.00800000E+00  1.60000000E+01  1.00800000E+00  1.00800000E+00
  1.60000000E+01  1.00800000E+00  1.00800000E+00  1.60000000E+01  1.00800000E+00
  1.00800000E+00  1.60000000E+01  1.00800000E+00  1.00800000E+00  1.60000000E+01
  1.00800000E+00  1.00800000E+00  1.60000000E+01  1.00800000E+00  1.00800000E+00
  1.60000000E+01  1.00800000E+00  1.00800000E+00  1.60000000E+01  1.00800000E+00
  1.00800000E+00  1.60000000E+01  1.00800000E+00  1.00800000E+00  1.60000000E+01
  1.00800000E+00  1.00800000E+00  1.60000000E+01  1.00800000E+00  1.00800000E+00
  1.60000000E+01  1.00800000E+00  1.00800000E+00  1.60000000E+01  1.00800000E+00
  1.00800000E+00  1.60000000E+01  1.00800000E+00  1.00800000E+00  1.60000000E+01
  1.00800000E+00  1.00800000E+00  1.60000000E+01  1.00800000E+00  1.00800000E+00
  1.60000000E+01  1.00800000E+00  1.00800000E+00  1.60000000E+01  1.00800000E+00
  1.00800000E+00  1.60000000E+01  1.00800000E+00  1.00800000E+00  1.60000000E+01
  1.00800000E+00  1.00800000E+00  1.60000000E+01  1.00800000E+00  1.00800000E+00
  1.60000000E+01  1.00800000E+00  1.00800000E+00  1.60000000E+01  1.00800000E+00
  1.00800000E+00  1.60000000E+01  1.00800000E+00  1.00800000E+00  1.60000000E+01
  1.00800000E+00  1.00800000E+00  1.60000000E+01  1.00800000E+00  1.00800000E+00
  1.60000000E+01  1.00800000E+00  1.00800000E+00  1.60000000E+01  1.00800000E+00
  1.00800000E+00  1.60000000E+01  1.00800000E+00  1.00800000E+00  1.60000000E+01
  1.00800000E+00  1.00800000E+00  1.60000000E+01  1.00800000E+00  1.00800000E+00
  1.60000000E+01  1.00800000E+00  1.00800000E+00  1.60000000E+01  1.00800000E+00
  1.00800000E+00  1.60000000E+01  1.00800000E+00  1.00800000E+00  1.60000000E+01
  1.00800000E+00  1.00800000E+00  1.60000000E+01  1.00800000E+00  1.00800000E+00
  1.60000000E+01  1.00800000E+00  1.00800000E+00  1.60000000E+01  1.00800000E+00
  1.00800000E+00  1.60000000E+01  1.00800000E+00  1.00800000E+00  1.60000000E+01
  1.00800000E+00  1.00800000E+00  1.60000000E+01  1.00800000E+00  1.00800000E+00
  1.60000000E+01  1.00800000E+00  1.00800000E+00  1.60000000E+01  1.00800000E+00
  1.00800000E+00  1.60000000E+01  1.00800000E+00  1.00800000E+00  1.60000000E+01
  1.00800000E+00  1.00800000E+00  1.60000000E+01  1.00800000E+00  1.00800000E+00
  1.60000000E+01  1.00800000E+00  1.00800000E+00  1.60000000E+01  1.00800000E+00
  1.00800000E+00  1.60000000E+01  1.00800000E+00  1.00800000E+00  1.60000000E+01
  1.00800000E+00  1.00800000E+00  1.60000000E+01  1.00800000E+00  1.00800000E+00
  1.60000000E+01  1.00800000E+00  1.00800000E+00  1.60000000E+01  1.00800000E+00
  1.00800000E+00  1.60000000E+01  1.00800000E+00  1.00800000E+00  1.60000000E+01
  1.00800000E+00  1.00800000E+00  1.60000000E+01  1.00800000E+00  1.00800000E+00
  1.60000000E+01  1.00800000E+00  1.00800000E+00  1.60000000E+01  1.00800000E+00
  1.00800000E+00  1.60000000E+01  1.00800000E+00  1.00800000E+00  1.60000000E+01
  1.00800000E+00  1.00800000E+00  1.60000000E+01  1.00800000E+00  1.00800000E+00
  1.60000000E+01  1.00800000E+00  1.00800000E+00  1.60000000E+01  1.00800000E+00
  1.00800000E+00  1.60000000E+01  1.00800000E+00  1.00800000E+00  1.60000000E+01
  1.00800000E+00  1.00800000E+00  1.60000000E+01  1.00800000E+00  1.00800000E+00
  1.60000000E+01  1.00800000E+00  1.00800000E+00  1.60000000E+01  1.00800000E+00
  1.00800000E+00  1.60000000E+01  1.00800000E+00  1.00800000E+00  1.60000000E+01
  1.00800000E+00  1.00800000E+00  1.60000000E+01  1.00800000E+00  1.00800000E+00
  1.60000000E+01  1.00800000E+00  1.00800000E+00  1.60000000E+01  1.00800000E+00
  1.00800000E+00  1.60000000E+01  1.00800000E+00  1.00800000E+00  1.60000000E+01
  1.00800000E+00  1.00800000E+00  1.60000000E+01  1.00800000E+00  1.00800000E+00
  1.60000000E+01  1.00800000E+00  1.00800000E+00  1.60000000E+01  1.00800000E+00
  1.00800000E+00  1.60000000E+01  1.00800000E+00  1.00800000E+00  1.60000000E+01
  1.00800000E+00  1.00800000E+00  1.60000000E+01  1.00800000E+00  1.00800000E+00
  1.60000000E+01  1.00800000E+00  1.00800000E+00  1.60000000E+01  1.00800000E+00
  1.00800000E+00  1.60000000E+01  1.00800000E+00  1.00800000E+00  1.60000000E+01
  1.00800000E+00  1.00800000E+00  1.60000000E+01  1.00800000E+00  1.00800000E+00
  1.60000000E+01  1.00800000E+00  1.00800000E+00  1.60000000E+01  1.00800000E+00
  1.00800000E+00  1.60000000E+01  1.00800000E+00  1.00800000E+00  1.60000000E+01
  1.00800000E+00  1.00800000E+00  1.60000000E+01  1.00800000E+00  1.00800000E+00
  1.60000000E+01  1.00800000E+00  1.00800000E+00  1.60000000E+01  1.00800000E+00
  1.00800000E+00  1.60000000E+01  1.00800000E+00  1.00800000E+00  1.60000000E+01
  1.00800000E+00  1.00800000E+00  1.60000000E+01  1.00800000E+00  1.00800000E+00
  1.60000000E+01  1.00800000E+00  1.00800000E+00  1.60000000E+01  1.00800000E+00
  1.00800000E+00  1.60000000E+01  1.00800000E+00  1.00800000E+00  1.60000000E+01
  1.00800000E+00  1.00800000E+00  1.60000000E+01  1.00800000E+00  1.00800000E+00
  1.60000000E+01  1.00800000E+00  1.00800000E+00  1.60000000E+01  1.00800000E+00
  1.00800000E+00  1.60000000E+01  1.00800000E+00  1.00800000E+00  1.60000000E+01
  1.00800000E+00  1.00800000E+00  1.60000000E+01  1.00800000E+00  1.00800000E+00
  1.60000000E+01  1.00800000E+00  1.00800000E+00  1.60000000E+01  1.00800000E+00
  1.00800000E+00  1.60000000E+01  1.00800000E+00  1.00800000E+00  1.60000000E+01
  1.00800000E+00  1.00800000E+00  1.60000000E+01  1.00800000E+00  1.00800000E+00
  1.60000000E+01  1.00800000E+00  1.00800000E+00  1.60000000E+01  1.00800000E+00
  1.00800000E+00  1.60000000E+01  1.00800000E+00  1.00800000E+00  1.60000000E+01
  1.00800000E+00  1.00800000E+00  1.60000000E+01  1.00800000E+00  1.00800000E+00
  1.60000000E+01  1.00800000E+00  1.00800000E+00  1.60000000E+01  1.00800000E+00
  1.00800000E+00  1.60000000E+01  1.00800000E+00  1.00800000E+00  1.60000000E+01
  1.00800000E+00  1.00800000E+00  1.60000000E+01  1.00800000E+00  1.00800000E+00
  1.60000000E+01  1.00800000E+00  1.00800000E+00  1.60000000E+01  1.00800000E+00
  1.00800000E+00  1.60000000E+01  1.00800000E+00  1.00800000E+00  1.60000000E+01
  1.00800000E+00  1.00800000E+00  1.60000000E+01  1.00800000E+00  1.00800000E+00
  1.60000000E+01  1.00800000E+00  1.00800000E+00  1.60000000E+01  1.00800000E+00
  1.00800000E+00  1.60000000E+01  1.00800000E+00  1.00800000E+00  1.60000000E+01
  1.00800000E+00  1.00800000E+00  1.60000000E+01  1.00800000E+00  1.00800000E+00
  1.60000000E+01  1.00800000E+00  1.00800000E+00  1.60000000E+01  1.00800000E+00
  1.00800000E+00  1.60000000E+01  1.00800000E+00  1.00800000E+00  1.60000000E+01
  1.00800000E+00  1.00800000E+00  1.60000000E+01  1.00800000E+00  1.00800000E+00
  1.60000000E+01  1.00800000E+00  1.00800000E+00  1.60000000E+01  1.00800000E+00
  1.00800000E+00  1.60000000E+01  1.00800000E+00  1.00800000E+00  1.60000000E+01
  1.00800000E+00  1.00800000E+00  1.60000000E+01  1.00800000E+00  1.00800000E+00
  1.60000000E+01  1.00800000E+00  1.00800000E+00  1.60000000E+01  1.00800000E+00
  1.00800000E+00  1.60000000E+01  1.00800000E+00  1.00800000E+00  1.60000000E+01
  1.00800000E+00  1.00800000E+00  1.60000000E+01  1.00800000E+00  1.00800000E+00
  1.60000000E+01  1.00800000E+00  1.00800000E+00  1.60000000E+01  1.00800000E+00
  1.00800000E+00  1.60000000E+01  1.00800000E+00  1.00800000E+00  1.60000000E+01
  1.00800000E+00  1.00800000E+00  1.60000000E+01  1.00800000E+00  1.00800000E+00
  1.60000000E+01  1.00800000E+00  1.00800000E+00  1.60000000E+01  1.00800000E+00
  1.00800000E+00  1.60000000E+01  1.00800000E+00  1.00800000E+00  1.60000000E+01
  1.00800000E+00  1.00800000E+00  1.60000000E+01  1.00800000E+00  1.00800000E+00
  1.60000000E+01  1.00800000E+00  1.00800000E+00  1.60000000E+01  1.00800000E+00
  1.00800000E+00  1.60000000E+01  1.00800000E+00  1.00800000E+00  1.60000000E+01
  1.00800000E+00  1.00800000E+00  1.60000000E+01  1.00800000E+00  1.00800000E+00
  1.60000000E+01  1.00800000E+00  1.00800000E+00  1.60000000E+01  1.00800000E+00
  1.00800000E+00  1.60000000E+01  1.00800000E+00  1.00800000E+00  1.60000000E+01
  1.00800000E+00  1.00800000E+00  1.60000000E+01  1.00800000E+00  1.00800000E+00
  1.60000000E+01  1.00800000E+00  1.00800000E+00  1.60000000E+01  1.00800000E+00
  1.00800000E+00  1.60000000E+01  1.00800000E+00  1.00800000E+00  1.60000000E+01
  1.00800000E+00  1.00800000E+00  1.60000000E+01  1.00800000E+00  1.00800000E+00
  1.60000000E+01  1.00800000E+00  1.00800000E+00  1.60000000E+01  1.00800000E+00
  1.00800000E+00  1.60000000E+01  1.00800000E+00  1.00800000E+00  1.60000000E+01
  1.00800000E+00  1.00800000E+00  1.60000000E+01  1.00800000E+00  1.00800000E+00
  1.60000000E+01  1.00800000E+00  1.00800000E+00  1.60000000E+01  1.00800000E+00
  1.00800000E+00  1.60000000E+01  1.00800000E+00  1.00800000E+00  1.60000000E+01
  1.00800000E+00  1.00800000E+00  1.60000000E+01  1.00800000E+00  1.00800000E+00
  1.60000000E+01  1.00800000E+00  1.00800000E+00  1.60000000E+01  1.00800000E+00
  1.00800000E+00  1.60000000E+01  1.00800000E+00  1.00800000E+00  1.60000000E+01
  1.00800000E+00  1.00800000E+00  1.60000000E+01  1.00800000E+00  1.00800000E+00
  1.60000000E+01  1.00800000E+00  1.00800000E+00  1.60000000E+01  1.00800000E+00
  1.00800000E+00  1.60000000E+01  1.00800000E+00  1.00800000E+00  1.60000000E+01
  1.00800000E+00  1.00800000E+00  1.60000000E+01  1.00800000E+00  1.00800000E+00
  1.60000000E+01  1.00800000E+00  1.00800000E+00  1.60000000E+01  1.00800000E+00
  1.00800000E+00  1.60000000E+01  1.00800000E+00  1.00800000E+00  1.60000000E+01
  1.00800000E+00  1.00800000E+00  1.60000000E+01  1.00800000E+00  1.00800000E+00
  1.60000000E+01  1.00800000E+00  1.00800000E+00  1.60000000E+01  1.00800000E+00
  1.00800000E+00  1.60000000E+01  1.00800000E+00  1.00800000E+00  1.60000000E+01
  1.00800000E+00  1.00800000E+00  1.60000000E+01  1.00800000E+00  1.00800000E+00
  1.60000000E+01  1.00800000E+00  1.00800000E+00  1.60000000E+01  1.00800000E+00
  1.00800000E+00  1.60000000E+01  1.00800000E+00  1.00800000E+00  1.60000000E+01
  1.00800000E+00  1.00800000E+00  1.60000000E+01  1.00800000E+00  1.00800000E+00
  1.60000000E+01  1.00800000E+00  1.00800000E+00  1.60000000E+01  1.00800000E+00
  1.00800000E+00  1.60000000E+01  1.00800000E+00  1.00800000E+00  1.60000000E+01
  1.00800000E+00  1.00800000E+00  1.60000000E+01  1.00800000E+00  1.00800000E+00
  1.60000000E+01  1.00800000E+00  1.00800000E+00  1.60000000E+01  1.00800000E+00
  1.00800000E+00  1.60000000E+01  1.00800000E+00  1.00800000E+00  1.60000000E+01
  1.00800000E+00  1.00800000E+00  1.60000000E+01  1.00800000E+00  1.00800000E+00
  1.60000000E+01  1.00800000E+00  1.00800000E+00  1.60000000E+01  1.00800000E+00
  1.00800000E+00  1.60000000E+01  1.00800000E+00  1.00800000E+00  1.60000000E+01
  1.00800000E+00  1.00800000E+00  1.60000000E+01  1.00800000E+00  1.00800000E+00
  1.60000000E+01  1.00800000E+00  1.00800000E+00  1.60000000E+01  1.00800000E+00
  1.00800000E+00  1.60000000E+01  1.00800000E+00  1.00800000E+00  1.60000000E+01
  1.00800000E+00  1.00800000E+00  1.60000000E+01  1.00800000E+00  1.00800000E+00
  1.60000000E+01  1.00800000E+00  1.00800000E+00  1.60000000E+01  1.00800000E+00
  1.00800000E+00  1.60000000E+01  1.00800000E+00  1.00800000E+00  1.60000000E+01
  1.00800000E+00  1.00800000E+00  1.60000000E+01  1.00800000E+00  1.00800000E+00
  1.60000000E+01  1.00800000E+00  1.00800000E+00  1.60000000E+01  1.00800000E+00
  1.00800000E+00  1.60000000E+01  1.00800000E+00  1.00800000E+00  1.60000000E+01
  1.00800000E+00  1.00800000E+00  1.60000000E+01  1.00800000E+00  1.00800000E+00
  1.60000000E+01  1.00800000E+00  1.00800000E+00  1.60000000E+01  1.00800000E+00
  1.00800000E+00  1.60000000E+01  1.00800000E+00  1.00800000E+00  1.60000000E+01
  1.00800000E+00  1.00800000E+00  1.60000000E+01  1.00800000E+00  1.00800000E+00
  1.60000000E+01  1.00800000E+00  1.00800000E+00  1.60000000E+01  1.00800000E+00
  1.00800000E+00  1.60000000E+01  1.00800000E+00  1.00800000E+00  1.60000000E+01
  1.00800000E+00  1.00800000E+00  1.60000000E+01  1.00800000E+00  1.00800000E+00
  1.60000000E+01  1.00800000E+00  1.00800000E+00  1.60000000E+01  1.00800000E+00
  1.00800000E+00  1.60000000E+01  1.00800000E+00  1.00800000E+00  1.60000000E+01
  1.00800000E+00  1.00800000E+00  1.60000000E+01  1.00800000E+00  1.00800000E+00
  1.60000000E+01  1.00800000E+00  1.00800000E+00  1.60000000E+01  1.00800000E+00
  1.00800000E+00  1.60000000E+01  1.00800000E+00  1.00800000E+00  1.60000000E+01
  1.00800000E+00  1.00800000E+00  1.60000000E+01  1.00800000E+00  1.00800000E+00
  1.60000000E+01  1.00800000E+00  1.00800000E+00  1.60000000E+01  1.00800000E+00
  1.00800000E+00  1.60000000E+01  1.00800000E+00  1.00800000E+00  1.60000000E+01
  1.00800000E+00  1.00800000E+00  1.60000000E+01  1.00800000E+00  1.00800000E+00
  1.60000000E+01  1.00800000E+00  1.00800000E+00  1.60000000E+01  1.00800000E+00
  1.00800000E+00  1.60000000E+01  1.00800000E+00  1.00800000E+00  1.60000000E+01
  1.00800000E+00  1.00800000E+00  1.60000000E+01  1.00800000E+00  1.00800000E+00
  1.60000000E+01  1.00800000E+00  1.00800000E+00  1.60000000E+01  1.00800000E+00
  1.00800000E+00  1.60000000E+01  1.00800000E+00  1.00800000E+00  1.60000000E+01
  1.00800000E+00  1.00800000E+00  1.60000000E+01  1.00800000E+00  1.00800000E+00
  1.60000000E+01  1.00800000E+00  1.00800000E+00  1.60000000E+01  1.00800000E+00
  1.00800000E+00  1.60000000E+01  1.00800000E+00  1.00800000E+00  1.60000000E+01
  1.00800000E+00  1.00800000E+00  1.60000000E+01  1.00800000E+00  1.00800000E+00
  1.60000000E+01  1.00800000E+00  1.00800000E+00  1.60000000E+01  1.00800000E+00
  1.00800000E+00  1.60000000E+01  1.00800000E+00  1.00800000E+00  1.60000000E+01
  1.00800000E+00  1.00800000E+00  1.60000000E+01  1.00800000E+00  1.00800000E+00
  1.60000000E+01  1.00800000E+00  1.00800000E+00  1.60000000E+01  1.00800000E+00
  1.00800000E+00  1.60000000E+01  1.00800000E+00  1.00800000E+00  1.60000000E+01
  1.00800000E+00  1.00800000E+00  1.60000000E+01  1.00800000E+00  1.00800000E+00
  1.60000000E+01  1.00800000E+00  1.00800000E+00  1.60000000E+01  1.00800000E+00
  1.00800000E+00  1.60000000E+01  1.00800000E+00  1.00800000E+00  1.60000000E+01
  1.00800000E+00  1.00800000E+00  1.60000000E+01  1.00800000E+00  1.00800000E+00
  1.60000000E+01  1.00800000E+00  1.00800000E+00  1.60000000E+01  1.00800000E+00
  1.00800000E+00  1.60000000E+01  1.00800000E+00  1.00800000E+00  1.60000000E+01
  1.00800000E+00  1.00800000E+00  1.60000000E+01  1.00800000E+00  1.00800000E+00
  1.60000000E+01  1.00800000E+00  1.00800000E+00  1.60000000E+01  1.00800000E+00
  1.00800000E+00  1.60000000E+01  1.00800000E+00  1.00800000E+00  1.60000000E+01
  1.00800000E+00  1.00800000E+00  1.60000000E+01  1.00800000E+00  1.00800000E+00
  1.60000000E+01  1.00800000E+00  1.00800000E+00  1.60000000E+01  1.00800000E+00
  1.00800000E+00  1.60000000E+01  1.00800000E+00  1.00800000E+00  1.60000000E+01
  1.00800000E+00  1.00800000E+00  1.60000000E+01  1.00800000E+00  1.00800000E+00
  1.60000000E+01  1.00800000E+00  1.00800000E+00  1.60000000E+01  1.00800000E+00
  1.00800000E+00  1.60000000E+01  1.00800000E+00  1.00800000E+00  1.60000000E+01
  1.00800000E+00  1.00800000E+00  1.60000000E+01  1.00800000E+00  1.00800000E+00
  1.60000000E+01  1.00800000E+00  1.00800000E+00  1.60000000E+01  1.00800000E+00
  1.00800000E+00  1.60000000E+01  1.00800000E+00  1.00800000E+00  1.60000000E+01
  1.00800000E+00  1.00800000E+00  1.60000000E+01  1.00800000E+00  1.00800000E+00
  1.60000000E+01  1.00800000E+00  1.00800000E+00  1.60000000E+01  1.00800000E+00
  1.00800000E+00  1.60000000E+01  1.00800000E+00  1.00800000E+00  1.60000000E+01
  1.00800000E+00  1.00800000E+00  1.60000000E+01  1.00800000E+00  1.00800000E+00
  1.60000000E+01  1.00800000E+00  1.00800000E+00  1.60000000E+01  1.00800000E+00
  1.00800000E+00  1.60000000E+01  1.00800000E+00  1.00800000E+00  1.60000000E+01
  1.00800000E+00  1.00800000E+00  1.60000000E+01  1.00800000E+00  1.00800000E+00
  1.60000000E+01  1.00800000E+00  1.00800000E+00  1.60000000E+01  1.00800000E+00
  1.00800000E+00  1.60000000E+01  1.00800000E+00  1.00800000E+00  1.60000000E+01
  1.00800000E+00  1.00800000E+00  1.60000000E+01  1.00800000E+00  1.00800000E+00
  1.60000000E+01  1.00800000E+00  1.00800000E+00  1.60000000E+01  1.00800000E+00
  1.00800000E+00  1.60000000E+01  1.00800000E+00  1.00800000E+00  1.60000000E+01
  1.00800000E+00  1.00800000E+00  1.60000000E+01  1.00800000E+00  1.00800000E+00
  1.60000000E+01  1.00800000E+00  1.00800000E+00  1.60000000E+01  1.00800000E+00
  1.00800000E+00  1.60000000E+01  1.00800000E+00  1.00800000E+00  1.60000000E+01
  1.00800000E+00  1.00800000E+00  1.60000000E+01  1.00800000E+00  1.00800000E+00
  1.60000000E+01  1.00800000E+00  1.00800000E+00  1.60000000E+01  1.00800000E+00
  1.00800000E+00  1.60000000E+01  1.00800000E+00  1.00800000E+00  1.60000000E+01
  1.00800000E+00  1.00800000E+00  1.60000000E+01  1.00800000E+00  1.00800000E+00
  1.60000000E+01  1.00800000E+00  1.00800000E+00  1.60000000E+01  1.00800000E+00
  1.00800000E+00  1.60000000E+01  1.00800000E+00  1.00800000E+00  1.60000000E+01
  1.00800000E+00  1.00800000E+00  1.60000000E+01  1.00800000E+00  1.00800000E+00
  1.60000000E+01  1.00800000E+00  1.00800000E+00  1.60000000E+01  1.00800000E+00
  1.00800000E+00  1.60000000E+01  1.00800000E+00  1.00800000E+00  1.60000000E+01
  1.00800000E+00  1.00800000E+00  1.60000000E+01  1.00800000E+00  1.00800000E+00
  1.60000000E+01  1.00800000E+00  1.00800000E+00  1.60000000E+01  1.00800000E+00
  1.00800000E+00  1.60000000E+01  1.00800000E+00  1.00800000E+00  1.60000000E+01
  1.00800000E+00  1.00800000E+00  1.60000000E+01  1.00800000E+00  1.00800000E+00
  1.60000000E+01  1.00800000E+00  1.00800000E+00  1.60000000E+01  1.00800000E+00
  1.00800000E+00  1.60000000E+01  1.00800000E+00  1.00800000E+00  1.60000000E+01
  1.00800000E+00  1.00800000E+00  1.60000000E+01  1.00800000E+00  1.00800000E+00
  1.60000000E+01  1.00800000E+00  1.00800000E+00  1.60000000E+01  1.00800000E+00
  1.00800000E+00  1.60000000E+01  1.00800000E+00  1.00800000E+00  1.60000000E+01
  1.00800000E+00  1.00800000E+00  1.60000000E+01  1.00800000E+00  1.00800000E+00
  1.60000000E+01  1.00800000E+00  1.00800000E+00  1.60000000E+01  1.00800000E+00
  1.00800000E+00  1.60000000E+01  1.00800000E+00  1.00800000E+00  1.60000000E+01
  1.00800000E+00  1.00800000E+00  1.60000000E+01  1.00800000E+00  1.00800000E+00
  1.60000000E+01  1.00800000E+00  1.00800000E+00  1.60000000E+01  1.00800000E+00
  1.00800000E+00  1.60000000E+01  1.00800000E+00  1.00800000E+00  1.60000000E+01
  1.00800000E+00  1.00800000E+00  1.60000000E+01  1.00800000E+00  1.00800000E+00
  1.60000000E+01  1.00800000E+00  1.00800000E+00  1.60000000E+01  1.00800000E+00
  1.00800000E+00  1.60000000E+01  1.00800000E+00  1.00800000E+00  1.60000000E+01
  1.00800000E+00  1.00800000E+00  1.60000000E+01  1.00800000E+00  1.00800000E+00
  1.60000000E+01  1.00800000E+00  1.00800000E+00  1.60000000E+01  1.00800000E+00
  1.00800000E+00  1.60000000E+01  1.00800000E+00  1.00800000E+00  1.60000000E+01
  1.00800000E+00  1.00800000E+00  1.60000000E+01  1.00800000E+00  1.00800000E+00
  1.60000000E+01  1.00800000E+00  1.00800000E+00  1.60000000E+01  1.00800000E+00
  1.00800000E+00  1.60000000E+01  1.00800000E+00  1.00800000E+00  1.60000000E+01
  1.00800000E+00  1.00800000E+00  1.60000000E+01  1.00800000E+00  1.00800000E+00
  1.60000000E+01  1.00800000E+00  1.00800000E+00  1.60000000E+01  1.00800000E+00
  1.00800000E+00  1.60000000E+01  1.00800000E+00  1.00800000E+00  1.60000000E+01
  1.00800000E+00  1.00800000E+00  1.60000000E+01  1.00800000E+00  1.00800000E+00
  1.60000000E+01  1.00800000E+00  1.00800000E+00  1.60000000E+01  1.00800000E+00
  1.00800000E+00  1.60000000E+01  1.00800000E+00  1.00800000E+00  1.60000000E+01
  1.00800000E+00  1.00800000E+00  1.60000000E+01  1.00800000E+00  1.00800000E+00
  1.60000000E+01  1.00800000E+00  1.00800000E+00  1.60000000E+01  1.00800000E+00
  1.00800000E+00  1.60000000E+01  1.00800000E+00  1.00800000E+00  1.60000000E+01
  1.00800000E+00  1.00800000E+00  1.60000000E+01  1.00800000E+00  1.00800000E+00
  1.60000000E+01  1.00800000E+00  1.00800000E+00  1.60000000E+01  1.00800000E+00
  1.00800000E+00  1.60000000E+01  1.00800000E+00  1.00800000E+00  1.60000000E+01
  1.00800000E+00  1.00800000E+00  1.60000000E+01  1.00800000E+00  1.00800000E+00
  1.60000000E+01  1.00800000E+00  1.00800000E+00  1.60000000E+01  1.00800000E+00
  1.00800000E+00  1.60000000E+01  1.00800000E+00  1.00800000E+00  1.60000000E+01
  1.00800000E+00  1.00800000E+00  1.60000000E+01  1.00800000E+00  1.00800000E+00
  1.60000000E+01  1.00800000E+00  1.00800000E+00  1.60000000E+01  1.00800000E+00
  1.00800000E+00  1.60000000E+01  1.00800000E+00  1.00800000E+00  1.60000000E+01
  1.00800000E+00  1.00800000E+00  1.60000000E+01  1.00800000E+00  1.00800000E+00
  1.60000000E+01  1.00800000E+00  1.00800000E+00  1.60000000E+01  1.00800000E+00
  1.00800000E+00  1.60000000E+01  1.00800000E+00  1.00800000E+00  1.60000000E+01
  1.00800000E+00  1.00800000E+00  1.60000000E+01  1.00800000E+00  1.00800000E+00
  1.60000000E+01  1.00800000E+00  1.00800000E+00  1.60000000E+01  1.00800000E+00
  1.00800000E+00  1.60000000E+01  1.00800000E+00  1.00800000E+00  1.60000000E+01
  1.00800000E+00  1.00800000E+00  1.60000000E+01  1.00800000E+00  1.00800000E+00
  1.60000000E+01  1.00800000E+00  1.00800000E+00  1.60000000E+01  1.00800000E+00
  1.00800000E+00  1.60000000E+01  1.00800000E+00  1.00800000E+00  1.60000000E+01
  1.00800000E+00  1.00800000E+00  1.60000000E+01  1.00800000E+00  1.00800000E+00
  1.60000000E+01  1.00800000E+00  1.00800000E+00  1.60000000E+01  1.00800000E+00
  1.00800000E+00  1.60000000E+01  1.00800000E+00  1.00800000E+00  1.60000000E+01
  1.00800000E+00  1.00800000E+00  1.60000000E+01  1.00800000E+00  1.00800000E+00
  1.60000000E+01  1.00800000E+00  1.00800000E+00  1.60000000E+01  1.00800000E+00
  1.00800000E+00  1.60000000E+01  1.00800000E+00  1.00800000E+00  1.60000000E+01
  1.00800000E+00  1.00800000E+00  1.60000000E+01  1.00800000E+00  1.00800000E+00
  1.60000000E+01  1.00800000E+00  1.00800000E+00  1.60000000E+01  1.00800000E+00
  1.00800000E+00  1.60000000E+01  1.00800000E+00  1.00800000E+00  1.60000000E+01
  1.00800000E+00  1.00800000E+00  1.60000000E+01  1.00800000E+00  1.00800000E+00
  1.60000000E+01  1.00800000E+00  1.00800000E+00  1.60000000E+01  1.00800000E+00
  1.00800000E+00  1.60000000E+01  1.00800000E+00  1.00800000E+00  1.60000000E+01
  1.00800000E+00  1.00800000E+00  1.60000000E+01  1.00800000E+00  1.00800000E+00
  1.60000000E+01  1.00800000E+00  1.00800000E+00  1.60000000E+01  1.00800000E+00
  1.00800000E+00  1.60000000E+01  1.00800000E+00  1.00800000E+00  1.60000000E+01
  1.00800000E+00  1.00800000E+00  1.60000000E+01  1.00800000E+00  1.00800000E+00
  1.60000000E+01  1.00800000E+00  1.00800000E+00  1.60000000E+01  1.00800000E+00
  1.00800000E+00  1.60000000E+01  1.00800000E+00  1.00800000E+00  1.60000000E+01
  1.00800000E+00  1.00800000E+00  1.60000000E+01  1.00800000E+00  1.00800000E+00
  1.60000000E+01  1.00800000E+00  1.00800000E+00  1.60000000E+01  1.00800000E+00
  1.00800000E+00  1.60000000E+01  1.00800000E+00  1.00800000E+00  1.60000000E+01
  1.00800000E+00  1.00800000E+00  1.60000000E+01  1.00800000E+00  1.00800000E+00
  1.60000000E+01  1.00800000E+00  1.00800000E+00  1.60000000E+01  1.00800000E+00
  1.00800000E+00  1.60000000E+01  1.00800000E+00  1.00800000E+00  1.60000000E+01
  1.00800000E+00  1.00800000E+00  1.60000000E+01  1.00800000E+00  1.00800000E+00
  1.60000000E+01  1.00800000E+00  1.00800000E+00  1.60000000E+01  1.00800000E+00
  1.00800000E+00  1.60000000E+01  1.00800000E+00  1.00800000E+00  1.60000000E+01
  1.00800000E+00  1.00800000E+00  1.60000000E+01  1.00800000E+00  1.00800000E+00
  1.60000000E+01  1.00800000E+00  1.00800000E+00  1.60000000E+01  1.00800000E+00
  1.00800000E+00  1.60000000E+01  1.00800000E+00  1.00800000E+00  1.60000000E+01
  1.00800000E+00  1.00800000E+00  1.60000000E+01  1.00800000E+00  1.00800000E+00
  1.60000000E+01  1.00800000E+00  1.00800000E+00  1.60000000E+01  1.00800000E+00
  1.00800000E+00  1.60000000E+01  1.00800000E+00  1.00800000E+00  1.60000000E+01
  1.00800000E+00  1.00800000E+00  1.60000000E+01  1.00800000E+00  1.00800000E+00
  1.60000000E+01  1.00800000E+00  1.00800000E+00  1.60000000E+01  1.00800000E+00
  1.00800000E+00  1.60000000E+01  1.00800000E+00  1.00800000E+00  1.60000000E+01
  1.00800000E+00  1.00800000E+00  1.60000000E+01  1.00800000E+00  1.00800000E+00
  1.60000000E+01  1.00800000E+00  1.00800000E+00  1.60000000E+01  1.00800000E+00
  1.00800000E+00  1.60000000E+01  1.00800000E+00  1.00800000E+00  1.60000000E+01
  1.00800000E+00  1.00800000E+00  1.60000000E+01  1.00800000E+00  1.00800000E+00
  1.60000000E+01  1.00800000E+00  1.00800000E+00  1.60000000E+01  1.00800000E+00
  1.00800000E+00  1.60000000E+01  1.00800000E+00  1.00800000E+00  1.60000000E+01
  1.00800000E+00  1.00800000E+00  1.60000000E+01  1.00800000E+00  1.00800000E+00
  1.60000000E+01  1.00800000E+00  1.00800000E+00  1.60000000E+01  1.00800000E+00
  1.00800000E+00  1.60000000E+01  1.00800000E+00  1.00800000E+00  1.60000000E+01
  1.00800000E+00  1.00800000E+00  1.60000000E+01  1.00800000E+00  1.00800000E+00
  1.60000000E+01  1.00800000E+00  1.00800000E+00  1.60000000E+01  1.00800000E+00
  1.00800000E+00  1.60000000E+01  1.00800000E+00  1.00800000E+00  1.60000000E+01
  1.00800000E+00  1.00800000E+00  1.60000000E+01  1.00800000E+00  1.00800000E+00
  1.60000000E+01  1.00800000E+00  1.00800000E+00  1.60000000E+01  1.00800000E+00
  1.00800000E+00  1.60000000E+01  1.00800000E+00  1.00800000E+00  1.60000000E+01
  1.00800000E+00  1.00800000E+00  1.60000000E+01  1.00800000E+00  1.00800000E+00
  1.60000000E+01  1.00800000E+00  1.00800000E+00  1.60000000E+01  1.00800000E+00
  1.00800000E+00  1.60000000E+01  1.00800000E+00  1.00800000E+00  1.60000000E+01
  1.00800000E+00  1.00800000E+00  1.60000000E+01  1.00800000E+00  1.00800000E+00
  1.60000000E+01  1.00800000E+00  1.00800000E+00  1.60000000E+01  1.00800000E+00
  1.00800000E+00  1.60000000E+01  1.00800000E+00  1.00800000E+00  1.60000000E+01
  1.00800000E+00  1.00800000E+00  1.60000000E+01  1.00800000E+00  1.00800000E+00
  1.60000000E+01  1.00800000E+00  1.00800000E+00  1.60000000E+01  1.00800000E+00
  1.00800000E+00  1.60000000E+01  1.00800000E+00  1.00800000E+00  1.60000000E+01
  1.00800000E+00  1.00800000E+00  1.60000000E+01  1.00800000E+00  1.00800000E+00
  1.60000000E+01  1.00800000E+00  1.00800000E+00  1.60000000E+01  1.00800000E+00
  1.00800000E+00  1.60000000E+01  1.00800000E+00  1.00800000E+00  1.60000000E+01
  1.00800000E+00  1.00800000E+00  1.60000000E+01  1.00800000E+00  1.00800000E+00
  1.60000000E+01  1.00800000E+00  1.00800000E+00  1.60000000E+01  1.00800000E+00
  1.00800000E+00  1.60000000E+01  1.00800000E+00  1.00800000E+00  1.60000000E+01
  1.00800000E+00  1.00800000E+00  1.60000000E+01  1.00800000E+00  1.00800000E+00
  1.60000000E+01  1.00800000E+00  1.00800000E+00  1.60000000E+01  1.00800000E+00
  1.00800000E+00  1.60000000E+01  1.00800000E+00  1.00800000E+00  1.60000000E+01
  1.00800000E+00  1.00800000E+00  1.60000000E+01  1.00800000E+00  1.00800000E+00
  1.60000000E+01  1.00800000E+00  1.00800000E+00  1.60000000E+01  1.00800000E+00
  1.00800000E+00  1.60000000E+01  1.00800000E+00  1.00800000E+00  1.60000000E+01
  1.00800000E+00  1.00800000E+00  1.60000000E+01  1.00800000E+00  1.00800000E+00
  1.60000000E+01  1.00800000E+00  1.00800000E+00  1.60000000E+01  1.00800000E+00
  1.00800000E+00  1.60000000E+01  1.00800000E+00  1.00800000E+00  1.60000000E+01
  1.00800000E+00  1.00800000E+00  1.60000000E+01  1.00800000E+00  1.00800000E+00
  1.60000000E+01  1.00800000E+00  1.00800000E+00  1.60000000E+01  1.00800000E+00
  1.00800000E+00  1.60000000E+01  1.00800000E+00  1.00800000E+00  1.60000000E+01
  1.00800000E+00  1.00800000E+00  1.60000000E+01  1.00800000E+00  1.00800000E+00
  1.60000000E+01  1.00800000E+00  1.00800000E+00  1.60000000E+01  1.00800000E+00
  1.00800000E+00  1.60000000E+01  1.00800000E+00  1.00800000E+00  1.60000000E+01
  1.00800000E+00  1.00800000E+00  1.60000000E+01  1.00800000E+00  1.00800000E+00
  1.60000000E+01  1.00800000E+00  1.00800000E+00  1.60000000E+01  1.00800000E+00
  1.00800000E+00  1.60000000E+01  1.00800000E+00  1.00800000E+00  1.60000000E+01
  1.00800000E+00  1.00800000E+00  1.60000000E+01  1.00800000E+00  1.00800000E+00
  1.60000000E+01  1.00800000E+00  1.00800000E+00  1.60000000E+01  1.00800000E+00
  1.00800000E+00  1.60000000E+01  1.00800000E+00  1.00800000E+00  1.60000000E+01
  1.00800000E+00  1.00800000E+00  1.60000000E+01  1.00800000E+00  1.00800000E+00
  1.60000000E+01  1.00800000E+00  1.00800000E+00  1.60000000E+01  1.00800000E+00
  1.00800000E+00  1.60000000E+01  1.00800000E+00  1.00800000E+00  1.60000000E+01
  1.00800000E+00  1.00800000E+00  1.60000000E+01  1.00800000E+00  1.00800000E+00
  1.60000000E+01  1.00800000E+00  1.00800000E+00  1.60000000E+01  1.00800000E+00
  1.00800000E+00  1.60000000E+01  1.00800000E+00  1.00800000E+00  1.60000000E+01
  1.00800000E+00  1.00800000E+00  1.60000000E+01  1.00800000E+00  1.00800000E+00
  1.60000000E+01  1.00800000E+00  1.00800000E+00  1.60000000E+01  1.00800000E+00
  1.00800000E+00  1.60000000E+01  1.00800000E+00  1.00800000E+00  1.60000000E+01
  1.00800000E+00  1.00800000E+00  1.60000000E+01  1.00800000E+00  1.00800000E+00
  1.60000000E+01  1.00800000E+00  1.00800000E+00  1.60000000E+01  1.00800000E+00
  1.00800000E+00  1.60000000E+01  1.00800000E+00  1.00800000E+00  1.60000000E+01
  1.00800000E+00  1.00800000E+00  1.60000000E+01  1.00800000E+00  1.00800000E+00
  1.60000000E+01  1.00800000E+00  1.00800000E+00  1.60000000E+01  1.00800000E+00
  1.00800000E+00  1.60000000E+01  1.00800000E+00  1.00800000E+00  1.60000000E+01
  1.00800000E+00  1.00800000E+00  1.60000000E+01  1.00800000E+00  1.00800000E+00
  1.60000000E+01  1.00800000E+00  1.00800000E+00  1.60000000E+01  1.00800000E+00
  1.00800000E+00  1.60000000E+01  1.00800000E+00  1.00800000E+00  1.60000000E+01
  1.00800000E+00  1.00800000E+00  1.60000000E+01  1.00800000E+00  1.00800000E+00
  1.60000000E+01  1.00800000E+00  1.00800000E+00  1.60000000E+01  1.00800000E+00
  1.00800000E+00  1.60000000E+01  1.00800000E+00  1.00800000E+00  1.60000000E+01
  1.00800000E+00  1.00800000E+00  1.60000000E+01  1.00800000E+00  1.00800000E+00
  1.60000000E+01  1.00800000E+00  1.00800000E+00  1.60000000E+01  1.00800000E+00
  1.00800000E+00  1.60000000E+01  1.00800000E+00  1.00800000E+00  1.60000000E+01
  1.00800000E+00  1.00800000E+00  1.60000000E+01  1.00800000E+00  1.00800000E+00
  1.60000000E+01  1.00800000E+00  1.00800000E+00  1.60000000E+01  1.00800000E+00
  1.00800000E+00  1.60000000E+01  1.00800000E+00  1.00800000E+00  1.60000000E+01
  1.00800000E+00  1.00800000E+00  1.60000000E+01  1.00800000E+00  1.00800000E+00
  1.60000000E+01  1.00800000E+00  1.00800000E+00  1.60000000E+01  1.00800000E+00
  1.00800000E+00  1.60000000E+01  1.00800000E+00  1.00800000E+00  1.60000000E+01
  1.00800000E+00  1.00800000E+00  1.60000000E+01  1.00800000E+00  1.00800000E+00
  1.60000000E+01  1.00800000E+00  1.00800000E+00  1.60000000E+01  1.00800000E+00
  1.00800000E+00  1.60000000E+01  1.00800000E+00  1.00800000E+00  1.60000000E+01
  1.00800000E+00  1.00800000E+00  1.60000000E+01  1.00800000E+00  1.00800000E+00
  1.60000000E+01  1.00800000E+00  1.00800000E+00  1.60000000E+01  1.00800000E+00
  1.00800000E+00  1.60000000E+01  1.00800000E+00  1.00800000E+00  1.60000000E+01
  1.00800000E+00  1.00800000E+00  1.60000000E+01  1.00800000E+00  1.00800000E+00
  1.60000000E+01  1.00800000E+00  1.00800000E+00  1.60000000E+01  1.00800000E+00
  1.00800000E+00  1.60000000E+01  1.00800000E+00  1.00800000E+00  1.60000000E+01
  1.00800000E+00  1.00800000E+00  1.60000000E+01  1.00800000E+00  1.00800000E+00
  1.60000000E+01  1.00800000E+00  1.00800000E+00  1.60000000E+01  1.00800000E+00
  1.00800000E+00  1.60000000E+01  1.00800000E+00  1.00800000E+00  1.60000000E+01
  1.00800000E+00  1.00800000E+00  1.60000000E+01  1.00800000E+00  1.00800000E+00
  1.60000000E+01  1.00800000E+00  1.00800000E+00  1.60000000E+01  1.00800000E+00
  1.00800000E+00  1.60000000E+01  1.00800000E+00  1.00800000E+00  1.60000000E+01
  1.00800000E+00  1.00800000E+00  1.60000000E+01  1.00800000E+00  1.00800000E+00
  1.60000000E+01  1.00800000E+00  1.00800000E+00  1.60000000E+01  1.00800000E+00
  1.00800000E+00  1.60000000E+01  1.00800000E+00  1.00800000E+00  1.60000000E+01
  1.00800000E+00  1.00800000E+00  1.60000000E+01  1.00800000E+00  1.00800000E+00
  1.60000000E+01  1.00800000E+00  1.00800000E+00  1.60000000E+01  1.00800000E+00
  1.00800000E+00  1.60000000E+01  1.00800000E+00  1.00800000E+00  1.60000000E+01
  1.00800000E+00  1.00800000E+00  1.60000000E+01  1.00800000E+00  1.00800000E+00
  1.60000000E+01  1.00800000E+00  1.00800000E+00  1.60000000E+01  1.00800000E+00
  1.00800000E+00  1.60000000E+01  1.00800000E+00  1.00800000E+00  1.60000000E+01
  1.00800000E+00  1.00800000E+00  1.60000000E+01  1.00800000E+00  1.00800000E+00
  1.60000000E+01  1.00800000E+00  1.00800000E+00  1.60000000E+01  1.00800000E+00
  1.00800000E+00  1.60000000E+01  1.00800000E+00  1.00800000E+00  1.60000000E+01
  1.00800000E+00  1.00800000E+00  1.60000000E+01  1.00800000E+00  1.00800000E+00
  1.60000000E+01  1.00800000E+00  1.00800000E+00  1.60000000E+01  1.00800000E+00
  1.00800000E+00  1.60000000E+01  1.00800000E+00  1.00800000E+00  1.60000000E+01
  1.00800000E+00  1.00800000E+00  1.60000000E+01  1.00800000E+00  1.00800000E+00
  1.60000000E+01  1.00800000E+00  1.00800000E+00  1.60000000E+01  1.00800000E+00
  1.00800000E+00  1.60000000E+01  1.00800000E+00  1.00800000E+00  1.60000000E+01
  1.00800000E+00  1.00800000E+00  1.60000000E+01  1.00800000E+00  1.00800000E+00
  1.60000000E+01  1.00800000E+00  1.00800000E+00  1.60000000E+01  1.00800000E+00
  1.00800000E+00  1.60000000E+01  1.00800000E+00  1.00800000E+00  1.60000000E+01
  1.00800000E+00  1.00800000E+00  1.60000000E+01  1.00800000E+00  1.00800000E+00
  1.60000000E+01  1.00800000E+00  1.00800000E+00  1.60000000E+01  1.00800000E+00
  1.00800000E+00  1.60000000E+01  1.00800000E+00  1.00800000E+00  1.60000000E+01
  1.00800000E+00  1.00800000E+00  1.60000000E+01  1.00800000E+00  1.00800000E+00
  1.60000000E+01  1.00800000E+00  1.00800000E+00  1.60000000E+01  1.00800000E+00
  1.00800000E+00  1.60000000E+01  1.00800000E+00  1.00800000E+00  1.60000000E+01
  1.00800000E+00  1.00800000E+00  1.60000000E+01  1.00800000E+00  1.00800000E+00
  1.60000000E+01  1.00800000E+00  1.00800000E+00  1.60000000E+01  1.00800000E+00
  1.00800000E+00  1.60000000E+01  1.00800000E+00  1.00800000E+00  1.60000000E+01
  1.00800000E+00  1.00800000E+00  1.60000000E+01  1.00800000E+00  1.00800000E+00
  1.60000000E+01  1.00800000E+00  1.00800000E+00  1.60000000E+01  1.00800000E+00
  1.00800000E+00  1.60000000E+01  1.00800000E+00  1.00800000E+00  1.60000000E+01
  1.00800000E+00  1.00800000E+00  1.60000000E+01  1.00800000E+00  1.00800000E+00
  1.60000000E+01  1.00800000E+00  1.00800000E+00  1.60000000E+01  1.00800000E+00
  1.00800000E+00  1.60000000E+01  1.00800000E+00  1.00800000E+00  1.60000000E+01
  1.00800000E+00  1.00800000E+00  1.60000000E+01  1.00800000E+00  1.00800000E+00
  1.60000000E+01  1.00800000E+00  1.00800000E+00  1.60000000E+01  1.00800000E+00
  1.00800000E+00  1.60000000E+01  1.00800000E+00  1.00800000E+00  1.60000000E+01
  1.00800000E+00  1.00800000E+00  1.60000000E+01  1.00800000E+00  1.00800000E+00
  1.60000000E+01  1.00800000E+00  1.00800000E+00  1.60000000E+01  1.00800000E+00
  1.00800000E+00  1.60000000E+01  1.00800000E+00  1.00800000E+00  1.60000000E+01
  1.00800000E+00  1.00800000E+00  1.60000000E+01  1.00800000E+00  1.00800000E+00
  1.60000000E+01  1.00800000E+00  1.00800000E+00  1.60000000E+01  1.00800000E+00
  1.00800000E+00  1.60000000E+01  1.00800000E+00  1.00800000E+00  1.60000000E+01
  1.00800000E+00  1.00800000E+00  1.60000000E+01  1.00800000E+00  1.00800000E+00
  1.60000000E+01  1.00800000E+00  1.00800000E+00  1.60000000E+01  1.00800000E+00
  1.00800000E+00  1.60000000E+01  1.00800000E+00  1.00800000E+00  1.60000000E+01
  1.00800000E+00  1.00800000E+00  1.60000000E+01  1.00800000E+00  1.00800000E+00
  1.60000000E+01  1.00800000E+00  1.00800000E+00  1.60000000E+01  1.00800000E+00
  1.00800000E+00  1.60000000E+01  1.00800000E+00  1.00800000E+00  1.60000000E+01
  1.00800000E+00  1.00800000E+00  1.60000000E+01  1.00800000E+00  1.00800000E+00
  1.60000000E+01  1.00800000E+00  1.00800000E+00  1.60000000E+01  1.00800000E+00
  1.00800000E+00  1.60000000E+01  1.00800000E+00  1.00800000E+00  1.60000000E+01
  1.00800000E+00  1.00800000E+00  1.60000000E+01  1.00800000E+00  1.00800000E+00
  1.60000000E+01  1.00800000E+00  1.00800000E+00  1.60000000E+01  1.00800000E+00
  1.00800000E+00  1.60000000E+01  1.00800000E+00  1.00800000E+00  1.60000000E+01
  1.00800000E+00  1.00800000E+00  1.60000000E+01  1.00800000E+00  1.00800000E+00
  1.60000000E+01  1.00800000E+00  1.00800000E+00  1.60000000E+01  1.00800000E+00
  1.00800000E+00  1.60000000E+01  1.00800000E+00  1.00800000E+00  1.60000000E+01
  1.00800000E+00  1.00800000E+00  1.60000000E+01  1.00800000E+00  1.00800000E+00
  1.60000000E+01  1.00800000E+00  1.00800000E+00  1.60000000E+01  1.00800000E+00
  1.00800000E+00  1.60000000E+01  1.00800000E+00  1.00800000E+00  1.60000000E+01
  1.00800000E+00  1.00800000E+00  1.60000000E+01  1.00800000E+00  1.00800000E+00
  1.60000000E+01  1.00800000E+00  1.00800000E+00  1.60000000E+01  1.00800000E+00
  1.00800000E+00  1.60000000E+01  1.00800000E+00  1.00800000E+00  1.60000000E+01
  1.00800000E+00  1.00800000E+00  1.60000000E+01  1.00800000E+00  1.00800000E+00
  1.60000000E+01  1.00800000E+00  1.00800000E+00  1.60000000E+01  1.00800000E+00
  1.00800000E+00  1.60000000E+01  1.00800000E+00  1.00800000E+00  1.60000000E+01
  1.00800000E+00  1.00800000E+00  1.60000000E+01  1.00800000E+00  1.00800000E+00
  1.60000000E+01  1.00800000E+00  1.00800000E+00  1.60000000E+01  1.00800000E+00
  1.00800000E+00  1.60000000E+01  1.00800000E+00  1.00800000E+00  1.60000000E+01
  1.00800000E+00  1.00800000E+00  1.60000000E+01  1.00800000E+00  1.00800000E+00
  1.60000000E+01  1.00800000E+00  1.00800000E+00  1.60000000E+01  1.00800000E+00
  1.00800000E+00  1.60000000E+01  1.00800000E+00  1.00800000E+00  1.60000000E+01
  1.00800000E+00  1.00800000E+00  1.60000000E+01  1.00800000E+00  1.00800000E+00
  1.60000000E+01  1.00800000E+00  1.00800000E+00  1.60000000E+01  1.00800000E+00
  1.00800000E+00  1.60000000E+01  1.00800000E+00  1.00800000E+00  1.60000000E+01
  1.00800000E+00  1.00800000E+00  1.60000000E+01  1.00800000E+00  1.00800000E+00
  1.60000000E+01  1.00800000E+00  1.00800000E+00  1.60000000E+01  1.00800000E+00
  1.00800000E+00  1.60000000E+01  1.00800000E+00  1.00800000E+00  1.60000000E+01
  1.00800000E+00  1.00800000E+00  1.60000000E+01  1.00800000E+00  1.00800000E+00
  1.60000000E+01  1.00800000E+00  1.00800000E+00  1.60000000E+01  1.00800000E+00
  1.00800000E+00  1.60000000E+01  1.00800000E+00  1.00800000E+00  1.60000000E+01
  1.00800000E+00  1.00800000E+00  1.60000000E+01  1.00800000E+00  1.00800000E+00
  1.60000000E+01  1.00800000E+00  1.00800000E+00  1.60000000E+01  1.00800000E+00
  1.00800000E+00  1.60000000E+01  1.00800000E+00  1.00800000E+00  1.60000000E+01
  1.00800000E+00  1.00800000E+00  1.60000000E+01  1.00800000E+00  1.00800000E+00
  1.60000000E+01  1.00800000E+00  1.00800000E+00  1.60000000E+01  1.00800000E+00
  1.00800000E+00  1.60000000E+01  1.00800000E+00  1.00800000E+00  1.60000000E+01
  1.00800000E+00  1.00800000E+00  1.60000000E+01  1.00800000E+00  1.00800000E+00
  1.60000000E+01  1.00800000E+00  1.00800000E+00  1.60000000E+01  1.00800000E+00
  1.00800000E+00  1.60000000E+01  1.00800000E+00  1.00800000E+00  1.60000000E+01
  1.00800000E+00  1.00800000E+00  1.60000000E+01  1.00800000E+00  1.00800000E+00
  1.60000000E+01  1.00800000E+00  1.00800000E+00  1.60000000E+01  1.00800000E+00
  1.00800000E+00  1.60000000E+01  1.00800000E+00  1.00800000E+00  1.60000000E+01
  1.00800000E+00  1.00800000E+00  1.60000000E+01  1.00800000E+00  1.00800000E+00
  1.60000000E+01  1.00800000E+00  1.00800000E+00  1.60000000E+01  1.00800000E+00
  1.00800000E+00  1.60000000E+01  1.00800000E+00  1.00800000E+00  1.60000000E+01
  1.00800000E+00  1.00800000E+00  1.60000000E+01  1.00800000E+00  1.00800000E+00
  1.60000000E+01  1.00800000E+00  1.00800000E+00  1.60000000E+01  1.00800000E+00
  1.00800000E+00  1.60000000E+01  1.00800000E+00  1.00800000E+00  1.60000000E+01
  1.00800000E+00  1.00800000E+00  1.60000000E+01  1.00800000E+00  1.00800000E+00
  1.60000000E+01  1.00800000E+00  1.00800000E+00  1.60000000E+01  1.00800000E+00
  1.00800000E+00  1.60000000E+01  1.00800000E+00  1.00800000E+00  1.60000000E+01
  1.00800000E+00  1.00800000E+00  1.60000000E+01  1.00800000E+00  1.00800000E+00
  1.60000000E+01  1.00800000E+00  1.00800000E+00  1.60000000E+01  1.00800000E+00
  1.00800000E+00  1.60000000E+01  1.00800000E+00  1.00800000E+00  1.60000000E+01
  1.00800000E+00  1.00800000E+00  1.60000000E+01  1.00800000E+00  1.00800000E+00
  1.60000000E+01  1.00800000E+00  1.00800000E+00  1.60000000E+01  1.00800000E+00
  1.00800000E+00  1.60000000E+01  1.00800000E+00  1.00800000E+00  1.60000000E+01
  1.00800000E+00  1.00800000E+00  1.60000000E+01  1.00800000E+00  1.00800000E+00
  1.60000000E+01  1.00800000E+00  1.00800000E+00  1.60000000E+01  1.00800000E+00
  1.00800000E+00  1.60000000E+01  1.00800000E+00  1.00800000E+00  1.60000000E+01
  1.00800000E+00  1.00800000E+00  1.60000000E+01  1.00800000E+00  1.00800000E+00
  1.60000000E+01  1.00800000E+00  1.00800000E+00  1.60000000E+01  1.00800000E+00
  1.00800000E+00  1.60000000E+01  1.00800000E+00  1.00800000E+00  1.60000000E+01
  1.00800000E+00  1.00800000E+00  1.60000000E+01  1.00800000E+00  1.00800000E+00
  1.60000000E+01  1.00800000E+00  1.00800000E+00  1.60000000E+01  1.00800000E+00
  1.00800000E+00  1.60000000E+01  1.00800000E+00  1.00800000E+00  1.60000000E+01
  1.00800000E+00  1.00800000E+00  1.60000000E+01  1.00800000E+00  1.00800000E+00
  1.60000000E+01  1.00800000E+00  1.00800000E+00  1.60000000E+01  1.00800000E+00
  1.00800000E+00  1.60000000E+01  1.00800000E+00  1.00800000E+00  1.60000000E+01
  1.00800000E+00  1.00800000E+00  1.60000000E+01  1.00800000E+00  1.00800000E+00
  1.60000000E+01  1.00800000E+00  1.00800000E+00  1.60000000E+01  1.00800000E+00
  1.00800000E+00  1.60000000E+01  1.00800000E+00  1.00800000E+00  1.60000000E+01
  1.00800000E+00  1.00800000E+00  1.60000000E+01  1.00800000E+00  1.00800000E+00
  1.60000000E+01  1.00800000E+00  1.00800000E+00  1.60000000E+01  1.00800000E+00
  1.00800000E+00  1.60000000E+01  1.00800000E+00  1.00800000E+00  1.60000000E+01
  1.00800000E+00  1.00800000E+00  1.60000000E+01  1.00800000E+00  1.00800000E+00
  1.60000000E+01  1.00800000E+00  1.00800000E+00  1.60000000E+01  1.00800000E+00
  1.00800000E+00  1.60000000E+01  1.00800000E+00  1.00800000E+00  1.60000000E+01
  1.00800000E+00  1.00800000E+00  1.60000000E+01  1.00800000E+00  1.00800000E+00
  1.60000000E+01  1.00800000E+00  1.00800000E+00  1.60000000E+01  1.00800000E+00
  1.00800000E+00  1.60000000E+01  1.00800000E+00  1.00800000E+00  1.60000000E+01
  1.00800000E+00  1.00800000E+00  1.60000000E+01  1.00800000E+00  1.00800000E+00
  1.60000000E+01  1.00800000E+00  1.00800000E+00  1.60000000E+01  1.00800000E+00
  1.00800000E+00  1.60000000E+01  1.00800000E+00  1.00800000E+00  1.60000000E+01
  1.00800000E+00  1.00800000E+00  1.60000000E+01  1.00800000E+00  1.00800000E+00
  1.60000000E+01  1.00800000E+00  1.00800000E+00  1.60000000E+01  1.00800000E+00
  1.00800000E+00  1.60000000E+01  1.00800000E+00  1.00800000E+00  1.60000000E+01
  1.00800000E+00  1.00800000E+00  1.60000000E+01  1.00800000E+00  1.00800000E+00
  1.60000000E+01  1.00800000E+00  1.00800000E+00  1.60000000E+01  1.00800000E+00
  1.00800000E+00  1.60000000E+01  1.00800000E+00  1.00800000E+00  1.60000000E+01
  1.00800000E+00  1.00800000E+00  1.60000000E+01  1.00800000E+00  1.00800000E+00
  1.60000000E+01  1.00800000E+00  1.00800000E+00  1.60000000E+01  1.00800000E+00
  1.00800000E+00  1.60000000E+01  1.00800000E+00  1.00800000E+00  1.60000000E+01
  1.00800000E+00  1.00800000E+00  1.60000000E+01  1.00800000E+00  1.00800000E+00
  1.60000000E+01  1.00800000E+00  1.00800000E+00  1.60000000E+01  1.00800000E+00
  1.00800000E+00  1.60000000E+01  1.00800000E+00  1.00800000E+00  1.60000000E+01
  1.00800000E+00  1.00800000E+00  1.60000000E+01  1.00800000E+00  1.00800000E+00
  1.60000000E+01  1.00800000E+00  1.00800000E+00  1.60000000E+01  1.00800000E+00
  1.00800000E+00  1.60000000E+01  1.00800000E+00  1.00800000E+00  1.60000000E+01
  1.00800000E+00  1.00800000E+00  1.60000000E+01  1.00800000E+00  1.00800000E+00
  1.60000000E+01  1.00800000E+00  1.00800000E+00  1.60000000E+01  1.00800000E+00
  1.00800000E+00  1.60000000E+01  1.00800000E+00  1.00800000E+00  1.60000000E+01
  1.00800000E+00  1.00800000E+00  1.60000000E+01  1.00800000E+00  1.00800000E+00
  1.60000000E+01  1.00800000E+00  1.00800000E+00  1.60000000E+01  1.00800000E+00
  1.00800000E+00  1.60000000E+01  1.00800000E+00  1.00800000E+00  1.60000000E+01
  1.00800000E+00  1.00800000E+00  1.60000000E+01  1.00800000E+00  1.00800000E+00
  1.60000000E+01  1.00800000E+00  1.00800000E+00  1.60000000E+01  1.00800000E+00
  1.00800000E+00  1.60000000E+01  1.00800000E+00  1.00800000E+00  1.60000000E+01
  1.00800000E+00  1.00800000E+00  1.60000000E+01  1.00800000E+00  1.00800000E+00
  1.60000000E+01  1.00800000E+00  1.00800000E+00  1.60000000E+01  1.00800000E+00
  1.00800000E+00  1.60000000E+01  1.00800000E+00  1.00800000E+00  1.60000000E+01
  1.00800000E+00  1.00800000E+00  1.60000000E+01  1.00800000E+00  1.00800000E+00
  1.60000000E+01  1.00800000E+00  1.00800000E+00  1.60000000E+01  1.00800000E+00
  1.00800000E+00  1.60000000E+01  1.00800000E+00  1.00800000E+00  1.60000000E+01
  1.00800000E+00  1.00800000E+00  1.60000000E+01  1.00800000E+00  1.00800000E+00
  1.60000000E+01  1.00800000E+00  1.00800000E+00  1.60000000E+01  1.00800000E+00
  1.00800000E+00  1.60000000E+01  1.00800000E+00  1.00800000E+00  1.60000000E+01
  1.00800000E+00  1.00800000E+00  1.60000000E+01  1.00800000E+00  1.00800000E+00
  1.60000000E+01  1.00800000E+00  1.00800000E+00  1.60000000E+01  1.00800000E+00
  1.00800000E+00  1.60000000E+01  1.00800000E+00  1.00800000E+00  1.60000000E+01
  1.00800000E+00  1.00800000E+00  1.60000000E+01  1.00800000E+00  1.00800000E+00
  1.60000000E+01  1.00800000E+00  1.00800000E+00  1.60000000E+01  1.00800000E+00
  1.00800000E+00  1.60000000E+01  1.00800000E+00  1.00800000E+00  1.60000000E+01
  1.00800000E+00  1.00800000E+00  1.60000000E+01  1.00800000E+00  1.00800000E+00
  1.60000000E+01  1.00800000E+00  1.00800000E+00  1.60000000E+01  1.00800000E+00
  1.00800000E+00  1.60000000E+01  1.00800000E+00  1.00800000E+00  1.60000000E+01
  1.00800000E+00  1.00800000E+00  1.60000000E+01  1.00800000E+00  1.00800000E+00
  1.60000000E+01  1.00800000E+00  1.00800000E+00  1.60000000E+01  1.00800000E+00
  1.00800000E+00  1.60000000E+01  1.00800000E+00  1.00800000E+00  1.60000000E+01
  1.00800000E+00  1.00800000E+00  1.60000000E+01  1.00800000E+00  1.00800000E+00
  1.60000000E+01  1.00800000E+00  1.00800000E+00  1.60000000E+01  1.00800000E+00
  1.00800000E+00  1.60000000E+01  1.00800000E+00  1.00800000E+00  1.60000000E+01
  1.00800000E+00  1.00800000E+00  1.60000000E+01  1.00800000E+00  1.00800000E+00
  1.60000000E+01  1.00800000E+00  1.00800000E+00  1.60000000E+01  1.00800000E+00
  1.00800000E+00  1.60000000E+01  1.00800000E+00  1.00800000E+00  1.60000000E+01
  1.00800000E+00  1.00800000E+00  1.60000000E+01  1.00800000E+00  1.00800000E+00
  1.60000000E+01  1.00800000E+00  1.00800000E+00  1.60000000E+01  1.00800000E+00
  1.00800000E+00  1.60000000E+01  1.00800000E+00  1.00800000E+00  1.60000000E+01
  1.00800000E+00  1.00800000E+00  1.60000000E+01  1.00800000E+00  1.00800000E+00
  1.60000000E+01  1.00800000E+00  1.00800000E+00  1.60000000E+01  1.00800000E+00
  1.00800000E+00  1.60000000E+01  1.00800000E+00  1.00800000E+00  1.60000000E+01
  1.00800000E+00  1.00800000E+00  1.60000000E+01  1.00800000E+00  1.00800000E+00
  1.60000000E+01  1.00800000E+00  1.00800000E+00  1.60000000E+01  1.00800000E+00
  1.00800000E+00  1.60000000E+01  1.00800000E+00  1.00800000E+00  1.60000000E+01
  1.00800000E+00  1.00800000E+00  1.60000000E+01  1.00800000E+00  1.00800000E+00
  1.60000000E+01  1.00800000E+00  1.00800000E+00  1.60000000E+01  1.00800000E+00
  1.00800000E+00  1.60000000E+01  1.00800000E+00  1.00800000E+00  1.60000000E+01
  1.00800000E+00  1.00800000E+00  1.60000000E+01  1.00800000E+00  1.00800000E+00
  1.60000000E+01  1.00800000E+00  1.00800000E+00  1.60000000E+01  1.00800000E+00
  1.00800000E+00  1.60000000E+01  1.00800000E+00  1.00800000E+00  1.60000000E+01
  1.00800000E+00  1.00800000E+00  1.60000000E+01  1.00800000E+00  1.00800000E+00
  1.60000000E+01  1.00800000E+00  1.00800000E+00  1.60000000E+01  1.00800000E+00
  1.00800000E+00  1.60000000E+01  1.00800000E+00  1.00800000E+00  1.60000000E+01
  1.00800000E+00  1.00800000E+00  1.60000000E+01  1.00800000E+00  1.00800000E+00
  1.60000000E+01  1.00800000E+00  1.00800000E+00  1.60000000E+01  1.00800000E+00
  1.00800000E+00  1.60000000E+01  1.00800000E+00  1.00800000E+00  1.60000000E+01
  1.00800000E+00  1.00800000E+00  1.60000000E+01  1.00800000E+00  1.00800000E+00
  1.60000000E+01  1.00800000E+00  1.00800000E+00  1.60000000E+01  1.00800000E+00
  1.00800000E+00  1.60000000E+01  1.00800000E+00  1.00800000E+00  1.60000000E+01
  1.00800000E+00  1.00800000E+00  1.60000000E+01  1.00800000E+00  1.00800000E+00
  1.60000000E+01  1.00800000E+00  1.00800000E+00  1.60000000E+01  1.00800000E+00
  1.00800000E+00  1.60000000E+01  1.00800000E+00  1.00800000E+00  1.60000000E+01
  1.00800000E+00  1.00800000E+00  1.60000000E+01  1.00800000E+00  1.00800000E+00
  1.60000000E+01  1.00800000E+00  1.00800000E+00  1.60000000E+01  1.00800000E+00
  1.00800000E+00  1.60000000E+01  1.00800000E+00  1.00800000E+00  1.60000000E+01
  1.00800000E+00  1.00800000E+00  1.60000000E+01  1.00800000E+00  1.00800000E+00
  1.60000000E+01  1.00800000E+00  1.00800000E+00  1.60000000E+01  1.00800000E+00
  1.00800000E+00  1.60000000E+01  1.00800000E+00  1.00800000E+00  1.60000000E+01
  1.00800000E+00  1.00800000E+00  1.60000000E+01  1.00800000E+00  1.00800000E+00
  1.60000000E+01  1.00800000E+00  1.00800000E+00  1.60000000E+01  1.00800000E+00
  1.00800000E+00  1.60000000E+01  1.00800000E+00  1.00800000E+00  1.60000000E+01
  1.00800000E+00  1.00800000E+00  1.60000000E+01  1.00800000E+00  1.00800000E+00
  1.60000000E+01  1.00800000E+00  1.00800000E+00  1.60000000E+01  1.00800000E+00
  1.00800000E+00  1.60000000E+01  1.00800000E+00  1.00800000E+00  1.60000000E+01
  1.00800000E+00  1.00800000E+00  1.60000000E+01  1.00800000E+00  1.00800000E+00
  1.60000000E+01  1.00800000E+00  1.00800000E+00  1.60000000E+01  1.00800000E+00
  1.00800000E+00  1.60000000E+01  1.00800000E+00  1.00800000E+00  1.60000000E+01
  1.00800000E+00  1.00800000E+00  1.60000000E+01  1.00800000E+00  1.00800000E+00
  1.60000000E+01  1.00800000E+00  1.00800000E+00  1.60000000E+01  1.00800000E+00
  1.00800000E+00  1.60000000E+01  1.00800000E+00  1.00800000E+00  1.60000000E+01
  1.00800000E+00  1.00800000E+00  1.60000000E+01  1.00800000E+00  1.00800000E+00
  1.60000000E+01  1.00800000E+00  1.00800000E+00  1.60000000E+01  1.00800000E+00
  1.00800000E+00  1.60000000E+01  1.00800000E+00  1.00800000E+00  1.60000000E+01
  1.00800000E+00  1.00800000E+00  1.60000000E+01  1.00800000E+00  1.00800000E+00
  1.60000000E+01  1.00800000E+00  1.00800000E+00  1.60000000E+01  1.00800000E+00
  1.00800000E+00  1.60000000E+01  1.00800000E+00  1.00800000E+00  1.60000000E+01
  1.00800000E+00  1.00800000E+00  1.60000000E+01  1.00800000E+00  1.00800000E+00
  1.60000000E+01  1.00800000E+00  1.00800000E+00  1.60000000E+01  1.00800000E+00
  1.00800000E+00  1.60000000E+01  1.00800000E+00  1.00800000E+00  1.60000000E+01
  1.00800000E+00  1.00800000E+00  1.60000000E+01  1.00800000E+00  1.00800000E+00
  1.60000000E+01  1.00800000E+00  1.00800000E+00  1.60000000E+01  1.00800000E+00
  1.00800000E+00  1.60000000E+01  1.00800000E+00  1.00800000E+00  1.60000000E+01
  1.00800000E+00  1.00800000E+00  1.60000000E+01  1.00800000E+00  1.00800000E+00
  1.60000000E+01  1.00800000E+00  1.00800000E+00  1.60000000E+01  1.00800000E+00
  1.00800000E+00  1.60000000E+01  1.00800000E+00  1.00800000E+00  1.60000000E+01
  1.00800000E+00  1.00800000E+00  1.60000000E+01  1.00800000E+00  1.00800000E+00
  1.60000000E+01  1.00800000E+00  1.00800000E+00  1.60000000E+01  1.00800000E+00
  1.00800000E+00  1.60000000E+01  1.00800000E+00  1.00800000E+00  1.60000000E+01
  1.00800000E+00  1.00800000E+00  1.60000000E+01  1.00800000E+00  1.00800000E+00
  1.60000000E+01  1.00800000E+00  1.00800000E+00  1.60000000E+01  1.00800000E+00
  1.00800000E+00  1.60000000E+01  1.00800000E+00  1.00800000E+00  1.60000000E+01
  1.00800000E+00  1.00800000E+00  1.60000000E+01  1.00800000E+00  1.00800000E+00
  1.60000000E+01  1.00800000E+00  1.00800000E+00  1.60000000E+01  1.00800000E+00
  1.00800000E+00  1.60000000E+01  1.00800000E+00  1.00800000E+00  1.60000000E+01
  1.00800000E+00  1.00800000E+00  1.60000000E+01  1.00800000E+00  1.00800000E+00
  1.60000000E+01  1.00800000E+00  1.00800000E+00  1.60000000E+01  1.00800000E+00
  1.00800000E+00  1.60000000E+01  1.00800000E+00  1.00800000E+00  1.60000000E+01
  1.00800000E+00  1.00800000E+00  1.60000000E+01  1.00800000E+00  1.00800000E+00
  1.60000000E+01  1.00800000E+00  1.00800000E+00  1.60000000E+01  1.00800000E+00
  1.00800000E+00  1.60000000E+01  1.00800000E+00  1.00800000E+00  1.60000000E+01
  1.00800000E+00  1.00800000E+00  1.60000000E+01  1.00800000E+00  1.00800000E+00
  1.60000000E+01  1.00800000E+00  1.00800000E+00  1.60000000E+01  1.00800000E+00
  1.00800000E+00  1.60000000E+01  1.00800000E+00  1.00800000E+00  1.60000000E+01
  1.00800000E+00  1.00800000E+00  1.60000000E+01  1.00800000E+00  1.00800000E+00
  1.60000000E+01  1.00800000E+00  1.00800000E+00  1.60000000E+01  1.00800000E+00
  1.00800000E+00  1.60000000E+01  1.00800000E+00  1.00800000E+00  1.60000000E+01
  1.00800000E+00  1.00800000E+00  1.60000000E+01  1.00800000E+00  1.00800000E+00
  1.60000000E+01  1.00800000E+00  1.00800000E+00  1.60000000E+01  1.00800000E+00
  1.00800000E+00  1.60000000E+01  1.00800000E+00  1.00800000E+00  1.60000000E+01
  1.00800000E+00  1.00800000E+00  1.60000000E+01  1.00800000E+00  1.00800000E+00
  1.60000000E+01  1.00800000E+00  1.00800000E+00  1.60000000E+01  1.00800000E+00
  1.00800000E+00  1.60000000E+01  1.00800000E+00  1.00800000E+00  1.60000000E+01
  1.00800000E+00  1.00800000E+00  1.60000000E+01  1.00800000E+00  1.00800000E+00
  1.60000000E+01  1.00800000E+00  1.00800000E+00  1.60000000E+01  1.00800000E+00
  1.00800000E+00  1.60000000E+01  1.00800000E+00  1.00800000E+00  1.60000000E+01
  1.00800000E+00  1.00800000E+00  1.60000000E+01  1.00800000E+00  1.00800000E+00
  1.60000000E+01  1.00800000E+00  1.00800000E+00  1.60000000E+01  1.00800000E+00
  1.00800000E+00  1.60000000E+01  1.00800000E+00  1.00800000E+00  1.60000000E+01
  1.00800000E+00  1.00800000E+00  1.60000000E+01  1.00800000E+00  1.00800000E+00
  1.60000000E+01  1.00800000E+00  1.00800000E+00  1.60000000E+01  1.00800000E+00
  1.00800000E+00  1.60000000E+01  1.00800000E+00  1.00800000E+00  1.60000000E+01
  1.00800000E+00  1.00800000E+00  1.60000000E+01  1.00800000E+00  1.00800000E+00
  1.60000000E+01  1.00800000E+00  1.00800000E+00  1.60000000E+01  1.00800000E+00
  1.00800000E+00  1.60000000E+01  1.00800000E+00  1.00800000E+00  1.60000000E+01
  1.00800000E+00  1.00800000E+00  1.60000000E+01  1.00800000E+00  1.00800000E+00
  1.60000000E+01  1.00800000E+00  1.00800000E+00  1.60000000E+01  1.00800000E+00
  1.00800000E+00  1.60000000E+01  1.00800000E+00  1.00800000E+00  1.60000000E+01
  1.00800000E+00  1.00800000E+00  1.60000000E+01  1.00800000E+00  1.00800000E+00
  1.60000000E+01  1.00800000E+00  1.00800000E+00  1.60000000E+01  1.00800000E+00
  1.00800000E+00  1.60000000E+01  1.00800000E+00  1.00800000E+00  1.60000000E+01
  1.00800000E+00  1.00800000E+00  1.60000000E+01  1.00800000E+00  1.00800000E+00
  1.60000000E+01  1.00800000E+00  1.00800000E+00  1.60000000E+01  1.00800000E+00
  1.00800000E+00  1.60000000E+01  1.00800000E+00  1.00800000E+00  1.60000000E+01
  1.00800000E+00  1.00800000E+00  1.60000000E+01  1.00800000E+00  1.00800000E+00
  1.60000000E+01  1.00800000E+00  1.00800000E+00  1.60000000E+01  1.00800000E+00
  1.00800000E+00  1.60000000E+01  1.00800000E+00  1.00800000E+00  1.60000000E+01
  1.00800000E+00  1.00800000E+00  1.60000000E+01  1.00800000E+00  1.00800000E+00
  1.60000000E+01  1.00800000E+00  1.00800000E+00  1.60000000E+01  1.00800000E+00
  1.00800000E+00  1.60000000E+01  1.00800000E+00  1.00800000E+00  1.60000000E+01
  1.00800000E+00  1.00800000E+00  1.60000000E+01  1.00800000E+00  1.00800000E+00
  1.60000000E+01  1.00800000E+00  1.00800000E+00  1.60000000E+01  1.00800000E+00
  1.00800000E+00  1.60000000E+01  1.00800000E+00  1.00800000E+00  1.60000000E+01
  1.00800000E+00  1.00800000E+00  1.60000000E+01  1.00800000E+00  1.00800000E+00
  1.60000000E+01  1.00800000E+00  1.00800000E+00  1.60000000E+01  1.00800000E+00
  1.00800000E+00  1.60000000E+01  1.00800000E+00  1.00800000E+00  1.60000000E+01
  1.00800000E+00  1.00800000E+00  1.60000000E+01  1.00800000E+00  1.00800000E+00
  1.60000000E+01  1.00800000E+00  1.00800000E+00  1.60000000E+01  1.00800000E+00
  1.00800000E+00  1.60000000E+01  1.00800000E+00  1.00800000E+00  1.60000000E+01
  1.00800000E+00  1.00800000E+00  1.60000000E+01  1.00800000E+00  1.00800000E+00
  1.60000000E+01  1.00800000E+00  1.00800000E+00  1.60000000E+01  1.00800000E+00
  1.00800000E+00  1.60000000E+01  1.00800000E+00  1.00800000E+00  1.60000000E+01
  1.00800000E+00  1.00800000E+00  1.60000000E+01  1.00800000E+00  1.00800000E+00
  1.60000000E+01  1.00800000E+00  1.00800000E+00  1.60000000E+01  1.00800000E+00
  1.00800000E+00  1.60000000E+01  1.00800000E+00  1.00800000E+00  1.60000000E+01
  1.00800000E+00  1.00800000E+00  1.60000000E+01  1.00800000E+00  1.00800000E+00
  1.60000000E+01  1.00800000E+00  1.00800000E+00  1.60000000E+01  1.00800000E+00
  1.00800000E+00  1.60000000E+01  1.00800000E+00  1.00800000E+00  1.60000000E+01
  1.00800000E+00  1.00800000E+00  1.60000000E+01  1.00800000E+00  1.00800000E+00
  1.60000000E+01  1.00800000E+00  1.00800000E+00  1.60000000E+01  1.00800000E+00
  1.00800000E+00  1.60000000E+01  1.00800000E+00  1.00800000E+00  1.60000000E+01
  1.00800000E+00  1.00800000E+00  1.60000000E+01  1.00800000E+00  1.00800000E+00
  1.60000000E+01  1.00800000E+00  1.00800000E+00  1.60000000E+01  1.00800000E+00
  1.00800000E+00  1.60000000E+01  1.00800000E+00  1.00800000E+00  1.60000000E+01
  1.00800000E+00  1.00800000E+00  1.60000000E+01  1.00800000E+00  1.00800000E+00
  1.60000000E+01  1.00800000E+00  1.00800000E+00  1.60000000E+01  1.00800000E+00
  1.00800000E+00  1.60000000E+01  1.00800000E+00  1.00800000E+00  1.60000000E+01
  1.00800000E+00  1.00800000E+00  1.60000000E+01  1.00800000E+00  1.00800000E+00
  1.60000000E+01  1.00800000E+00  1.00800000E+00  1.60000000E+01  1.00800000E+00
  1.00800000E+00  1.60000000E+01  1.00800000E+00  1.00800000E+00  1.60000000E+01
  1.00800000E+00  1.00800000E+00  1.60000000E+01  1.00800000E+00  1.00800000E+00
  1.60000000E+01  1.00800000E+00  1.00800000E+00  1.60000000E+01  1.00800000E+00
  1.00800000E+00  1.60000000E+01  1.00800000E+00  1.00800000E+00  1.60000000E+01
  1.00800000E+00  1.00800000E+00  1.60000000E+01  1.00800000E+00  1.00800000E+00
  1.60000000E+01  1.00800000E+00  1.00800000E+00  1.60000000E+01  1.00800000E+00
  1.00800000E+00  1.60000000E+01  1.00800000E+00  1.00800000E+00  1.60000000E+01
  1.00800000E+00  1.00800000E+00  1.60000000E+01  1.00800000E+00  1.00800000E+00
  1.60000000E+01  1.00800000E+00  1.00800000E+00  1.60000000E+01  1.00800000E+00
  1.00800000E+00  1.60000000E+01  1.00800000E+00  1.00800000E+00  1.60000000E+01
  1.00800000E+00  1.00800000E+00  1.60000000E+01  1.00800000E+00  1.00800000E+00
  1.60000000E+01  1.00800000E+00  1.00800000E+00  1.60000000E+01  1.00800000E+00
  1.00800000E+00  1.60000000E+01  1.00800000E+00  1.00800000E+00  1.60000000E+01
  1.00800000E+00  1.00800000E+00  1.60000000E+01  1.00800000E+00  1.00800000E+00
  1.60000000E+01  1.00800000E+00  1.00800000E+00  1.60000000E+01  1.00800000E+00
  1.00800000E+00  1.60000000E+01  1.00800000E+00  1.00800000E+00  1.60000000E+01
  1.00800000E+00  1.00800000E+00  1.60000000E+01  1.00800000E+00  1.00800000E+00
  1.60000000E+01  1.00800000E+00  1.00800000E+00  1.60000000E+01  1.00800000E+00
  1.00800000E+00  1.60000000E+01  1.00800000E+00  1.00800000E+00  1.60000000E+01
  1.00800000E+00  1.00800000E+00  1.60000000E+01  1.00800000E+00  1.00800000E+00
  1.60000000E+01  1.00800000E+00  1.00800000E+00  1.60000000E+01  1.00800000E+00
  1.00800000E+00  1.60000000E+01  1.00800000E+00  1.00800000E+00  1.60000000E+01
  1.00800000E+00  1.00800000E+00  1.60000000E+01  1.00800000E+00  1.00800000E+00
  1.60000000E+01  1.00800000E+00  1.00800000E+00  1.60000000E+01  1.00800000E+00
  1.00800000E+00  1.60000000E+01  1.00800000E+00  1.00800000E+00  1.60000000E+01
  1.00800000E+00  1.00800000E+00  1.60000000E+01  1.00800000E+00  1.00800000E+00
  1.60000000E+01  1.00800000E+00  1.00800000E+00  1.60000000E+01  1.00800000E+00
  1.00800000E+00  1.60000000E+01  1.00800000E+00  1.00800000E+00  1.60000000E+01
  1.00800000E+00  1.00800000E+00  1.60000000E+01  1.00800000E+00  1.00800000E+00
  1.60000000E+01  1.00800000E+00  1.00800000E+00  1.60000000E+01  1.00800000E+00
  1.00800000E+00  1.60000000E+01  1.00800000E+00  1.00800000E+00  1.60000000E+01
  1.00800000E+00  1.00800000E+00  1.60000000E+01  1.00800000E+00  1.00800000E+00
  1.60000000E+01  1.00800000E+00  1.00800000E+00  1.60000000E+01  1.00800000E+00
  1.00800000E+00  1.60000000E+01  1.00800000E+00  1.00800000E+00  1.60000000E+01
  1.00800000E+00  1.00800000E+00  1.60000000E+01  1.00800000E+00  1.00800000E+00
  1.60000000E+01  1.00800000E+00  1.00800000E+00  1.60000000E+01  1.00800000E+00
  1.00800000E+00  1.60000000E+01  1.00800000E+00  1.00800000E+00  1.60000000E+01
  1.00800000E+00  1.00800000E+00  1.60000000E+01  1.00800000E+00  1.00800000E+00
  1.60000000E+01  1.00800000E+00  1.00800000E+00  1.60000000E+01  1.00800000E+00
  1.00800000E+00  1.60000000E+01  1.00800000E+00  1.00800000E+00  1.60000000E+01
  1.00800000E+00  1.00800000E+00  1.60000000E+01  1.00800000E+00  1.00800000E+00
  1.60000000E+01  1.00800000E+00  1.00800000E+00  1.60000000E+01  1.00800000E+00
  1.00800000E+00  1.60000000E+01  1.00800000E+00  1.00800000E+00  1.60000000E+01
  1.00800000E+00  1.00800000E+00  1.60000000E+01  1.00800000E+00  1.00800000E+00
  1.60000000E+01  1.00800000E+00  1.00800000E+00  1.60000000E+01  1.00800000E+00
  1.00800000E+00  1.60000000E+01  1.00800000E+00  1.00800000E+00  1.60000000E+01
  1.00800000E+00  1.00800000E+00  1.60000000E+01  1.00800000E+00  1.00800000E+00
  1.60000000E+01  1.00800000E+00  1.00800000E+00  1.60000000E+01  1.00800000E+00
  1.00800000E+00  1.60000000E+01  1.00800000E+00  1.00800000E+00  1.60000000E+01
  1.00800000E+00  1.00800000E+00  1.60000000E+01  1.00800000E+00  1.00800000E+00
  1.60000000E+01  1.00800000E+00  1.00800000E+00  1.60000000E+01  1.00800000E+00
  1.00800000E+00  1.60000000E+01  1.00800000E+00  1.00800000E+00  1.60000000E+01
  1.00800000E+00  1.00800000E+00  1.60000000E+01  1.00800000E+00  1.00800000E+00
  1.60000000E+01  1.00800000E+00  1.00800000E+00  1.60000000E+01  1.00800000E+00
  1.00800000E+00  1.60000000E+01  1.00800000E+00  1.00800000E+00  1.60000000E+01
  1.00800000E+00  1.00800000E+00  1.60000000E+01  1.00800000E+00  1.00800000E+00
  1.60000000E+01  1.00800000E+00  1.00800000E+00  1.60000000E+01  1.00800000E+00
  1.00800000E+00  1.60000000E+01  1.00800000E+00  1.00800000E+00  1.60000000E+01
  1.00800000E+00  1.00800000E+00  1.60000000E+01  1.00800000E+00  1.00800000E+00
  1.60000000E+01  1.00800000E+00  1.00800000E+00  1.60000000E+01  1.00800000E+00
  1.00800000E+00  1.60000000E+01  1.00800000E+00  1.00800000E+00  1.60000000E+01
  1.00800000E+00  1.00800000E+00  1.60000000E+01  1.00800000E+00  1.00800000E+00
  1.60000000E+01  1.00800000E+00  1.00800000E+00  1.60000000E+01  1.00800000E+00
  1.00800000E+00  1.60000000E+01  1.00800000E+00  1.00800000E+00  1.60000000E+01
  1.00800000E+00  1.00800000E+00  1.60000000E+01  1.00800000E+00  1.00800000E+00
  1.60000000E+01  1.00800000E+00  1.00800000E+00  1.60000000E+01  1.00800000E+00
  1.00800000E+00  1.60000000E+01  1.00800000E+00  1.00800000E+00  1.60000000E+01
  1.00800000E+00  1.00800000E+00  1.60000000E+01  1.00800000E+00  1.00800000E+00
  1.60000000E+01  1.00800000E+00  1.00800000E+00  1.60000000E+01  1.00800000E+00
  1.00800000E+00  1.60000000E+01  1.00800000E+00  1.00800000E+00  1.60000000E+01
  1.00800000E+00  1.00800000E+00  1.60000000E+01  1.00800000E+00  1.00800000E+00
  1.60000000E+01  1.00800000E+00  1.00800000E+00  1.60000000E+01  1.00800000E+00
  1.00800000E+00  1.60000000E+01  1.00800000E+00  1.00800000E+00  1.60000000E+01
  1.00800000E+00  1.00800000E+00  1.60000000E+01  1.00800000E+00  1.00800000E+00
  1.60000000E+01  1.00800000E+00  1.00800000E+00  1.60000000E+01  1.00800000E+00
  1.00800000E+00  1.60000000E+01  1.00800000E+00  1.00800000E+00  1.60000000E+01
  1.00800000E+00  1.00800000E+00  1.60000000E+01  1.00800000E+00  1.00800000E+00
  1.60000000E+01  1.00800000E+00  1.00800000E+00  1.60000000E+01  1.00800000E+00
  1.00800000E+00  1.60000000E+01  1.00800000E+00  1.00800000E+00  1.60000000E+01
  1.00800000E+00  1.00800000E+00  1.60000000E+01  1.00800000E+00  1.00800000E+00
  1.60000000E+01  1.00800000E+00  1.00800000E+00  1.60000000E+01  1.00800000E+00
  1.00800000E+00  1.60000000E+01  1.00800000E+00  1.00800000E+00  1.60000000E+01
  1.00800000E+00  1.00800000E+00  1.60000000E+01  1.00800000E+00  1.00800000E+00
  1.60000000E+01  1.00800000E+00  1.00800000E+00  1.60000000E+01  1.00800000E+00
  1.00800000E+00  1.60000000E+01  1.00800000E+00  1.00800000E+00  1.60000000E+01
  1.00800000E+00  1.00800000E+00  1.60000000E+01  1.00800000E+00  1.00800000E+00
  1.60000000E+01  1.00800000E+00  1.00800000E+00  1.60000000E+01  1.00800000E+00
  1.00800000E+00  1.60000000E+01  1.00800000E+00  1.00800000E+00  1.60000000E+01
  1.00800000E+00  1.00800000E+00  1.60000000E+01  1.00800000E+00  1.00800000E+00
  1.60000000E+01  1.00800000E+00  1.00800000E+00  1.60000000E+01  1.00800000E+00
  1.00800000E+00  1.60000000E+01  1.00800000E+00  1.00800000E+00  1.60000000E+01
  1.00800000E+00  1.00800000E+00  1.60000000E+01  1.00800000E+00  1.00800000E+00
  1.60000000E+01  1.00800000E+00  1.00800000E+00  1.60000000E+01  1.00800000E+00
  1.00800000E+00  1.60000000E+01  1.00800000E+00  1.00800000E+00  1.60000000E+01
  1.00800000E+00  1.00800000E+00  1.60000000E+01  1.00800000E+00  1.00800000E+00
  1.60000000E+01  1.00800000E+00  1.00800000E+00  1.60000000E+01  1.00800000E+00
  1.00800000E+00  1.60000000E+01  1.00800000E+00  1.00800000E+00  1.60000000E+01
  1.00800000E+00  1.00800000E+00  1.60000000E+01  1.00800000E+00  1.00800000E+00
  1.60000000E+01  1.00800000E+00  1.00800000E+00  1.60000000E+01  1.00800000E+00
  1.00800000E+00  1.60000000E+01  1.00800000E+00  1.00800000E+00  1.60000000E+01
  1.00800000E+00  1.00800000E+00  1.60000000E+01  1.00800000E+00  1.00800000E+00
  1.60000000E+01  1.00800000E+00  1.00800000E+00  1.60000000E+01  1.00800000E+00
  1.00800000E+00  1.60000000E+01  1.00800000E+00  1.00800000E+00  1.60000000E+01
  1.00800000E+00  1.00800000E+00  1.60000000E+01  1.00800000E+00  1.00800000E+00
  1.60000000E+01  1.00800000E+00  1.00800000E+00  1.60000000E+01  1.00800000E+00
  1.00800000E+00  1.60000000E+01  1.00800000E+00  1.00800000E+00  1.60000000E+01
  1.00800000E+00  1.00800000E+00  1.60000000E+01  1.00800000E+00  1.00800000E+00
  1.60000000E+01  1.00800000E+00  1.00800000E+00  1.60000000E+01  1.00800000E+00
  1.00800000E+00  1.60000000E+01  1.00800000E+00  1.00800000E+00  1.60000000E+01
  1.00800000E+00  1.00800000E+00  1.60000000E+01  1.00800000E+00  1.00800000E+00
  1.60000000E+01  1.00800000E+00  1.00800000E+00  1.60000000E+01  1.00800000E+00
  1.00800000E+00  1.60000000E+01  1.00800000E+00  1.00800000E+00  1.60000000E+01
  1.00800000E+00  1.00800000E+00  1.60000000E+01  1.00800000E+00  1.00800000E+00
  1.60000000E+01  1.00800000E+00  1.00800000E+00  1.60000000E+01  1.00800000E+00
  1.00800000E+00  1.60000000E+01  1.00800000E+00  1.00800000E+00  1.60000000E+01
  1.00800000E+00  1.00800000E+00  1.60000000E+01  1.00800000E+00  1.00800000E+00
  1.60000000E+01  1.00800000E+00  1.00800000E+00  1.60000000E+01  1.00800000E+00
  1.00800000E+00  1.60000000E+01  1.00800000E+00  1.00800000E+00  1.60000000E+01
  1.00800000E+00  1.00800000E+00  1.60000000E+01  1.00800000E+00  1.00800000E+00
  1.60000000E+01  1.00800000E+00  1.00800000E+00  1.60000000E+01  1.00800000E+00
  1.00800000E+00  1.60000000E+01  1.00800000E+00  1.00800000E+00  1.60000000E+01
  1.00800000E+00  1.00800000E+00  1.60000000E+01  1.00800000E+00  1.00800000E+00
  1.60000000E+01  1.00800000E+00  1.00800000E+00  1.60000000E+01  1.00800000E+00
  1.00800000E+00  1.60000000E+01  1.00800000E+00  1.00800000E+00  1.60000000E+01
  1.00800000E+00  1.00800000E+00  1.60000000E+01  1.00800000E+00  1.00800000E+00
  1.60000000E+01  1.00800000E+00  1.00800000E+00  1.60000000E+01  1.00800000E+00
  1.00800000E+00  1.60000000E+01  1.00800000E+00  1.00800000E+00  1.60000000E+01
  1.00800000E+00  1.00800000E+00  1.60000000E+01  1.00800000E+00  1.00800000E+00
  1.60000000E+01  1.00800000E+00  1.00800000E+00  1.60000000E+01  1.00800000E+00
  1.00800000E+00  1.60000000E+01  1.00800000E+00  1.00800000E+00  1.60000000E+01
  1.00800000E+00  1.00800000E+00  1.60000000E+01  1.00800000E+00  1.00800000E+00
  1.60000000E+01  1.00800000E+00  1.00800000E+00  1.60000000E+01  1.00800000E+00
  1.00800000E+00  1.60000000E+01  1.00800000E+00  1.00800000E+00  1.60000000E+01
  1.00800000E+00  1.00800000E+00  1.60000000E+01  1.00800000E+00  1.00800000E+00
  1.60000000E+01  1.00800000E+00  1.00800000E+00  1.60000000E+01  1.00800000E+00
  1.00800000E+00  1.60000000E+01  1.00800000E+00  1.00800000E+00  1.60000000E+01
  1.00800000E+00  1.00800000E+00  1.60000000E+01  1.00800000E+00  1.00800000E+00
  1.60000000E+01  1.00800000E+00  1.00800000E+00  1.60000000E+01  1.00800000E+00
  1.00800000E+00  1.60000000E+01  1.00800000E+00  1.00800000E+00  1.60000000E+01
  1.00800000E+00  1.00800000E+00  1.60000000E+01  1.00800000E+00  1.00800000E+00
  1.60000000E+01  1.00800000E+00  1.00800000E+00  1.60000000E+01  1.00800000E+00
  1.00800000E+00  1.60000000E+01  1.00800000E+00  1.00800000E+00  1.60000000E+01
  1.00800000E+00  1.00800000E+00  1.60000000E+01  1.00800000E+00  1.00800000E+00
  1.60000000E+01  1.00800000E+00  1.00800000E+00  1.60000000E+01  1.00800000E+00
  1.00800000E+00  1.60000000E+01  1.00800000E+00  1.00800000E+00  1.60000000E+01
  1.00800000E+00  1.00800000E+00  1.60000000E+01  1.00800000E+00  1.00800000E+00
  1.60000000E+01  1.00800000E+00  1.00800000E+00  1.60000000E+01  1.00800000E+00
  1.00800000E+00  1.60000000E+01  1.00800000E+00  1.00800000E+00  1.60000000E+01
  1.00800000E+00  1.00800000E+00  1.60000000E+01  1.00800000E+00  1.00800000E+00
  1.60000000E+01  1.00800000E+00  1.00800000E+00  1.60000000E+01  1.00800000E+00
  1.00800000E+00  1.60000000E+01  1.00800000E+00  1.00800000E+00  1.60000000E+01
  1.00800000E+00  1.00800000E+00  1.60000000E+01  1.00800000E+00  1.00800000E+00
  1.60000000E+01  1.00800000E+00  1.00800000E+00  1.60000000E+01  1.00800000E+00
  1.00800000E+00  1.60000000E+01  1.00800000E+00  1.00800000E+00  1.60000000E+01
  1.00800000E+00  1.00800000E+00  1.60000000E+01  1.00800000E+00  1.00800000E+00
  1.60000000E+01  1.00800000E+00  1.00800000E+00  1.60000000E+01  1.00800000E+00
  1.00800000E+00  1.60000000E+01  1.00800000E+00  1.00800000E+00  1.60000000E+01
  1.00800000E+00  1.00800000E+00  1.60000000E+01  1.00800000E+00  1.00800000E+00
  1.60000000E+01  1.00800000E+00  1.00800000E+00  1.60000000E+01  1.00800000E+00
  1.00800000E+00  1.60000000E+01  1.00800000E+00  1.00800000E+00  1.60000000E+01
  1.00800000E+00  1.00800000E+00  1.60000000E+01  1.00800000E+00  1.00800000E+00
  1.60000000E+01  1.00800000E+00  1.00800000E+00  1.60000000E+01  1.00800000E+00
  1.00800000E+00  1.60000000E+01  1.00800000E+00  1.00800000E+00  1.60000000E+01
  1.00800000E+00  1.00800000E+00  1.60000000E+01  1.00800000E+00  1.00800000E+00
  1.60000000E+01  1.00800000E+00  1.00800000E+00  1.60000000E+01  1.00800000E+00
  1.00800000E+00  1.60000000E+01  1.00800000E+00  1.00800000E+00  1.60000000E+01
  1.00800000E+00  1.00800000E+00  1.60000000E+01  1.00800000E+00  1.00800000E+00
  1.60000000E+01  1.00800000E+00  1.00800000E+00  1.60000000E+01  1.00800000E+00
  1.00800000E+00  1.60000000E+01  1.00800000E+00  1.00800000E+00  1.60000000E+01
  1.00800000E+00  1.00800000E+00  1.60000000E+01  1.00800000E+00  1.00800000E+00
  1.60000000E+01  1.00800000E+00  1.00800000E+00  1.60000000E+01  1.00800000E+00
  1.00800000E+00  1.60000000E+01  1.00800000E+00  1.00800000E+00  1.60000000E+01
  1.00800000E+00  1.00800000E+00  1.60000000E+01  1.00800000E+00  1.00800000E+00
  1.60000000E+01  1.00800000E+00  1.00800000E+00  1.60000000E+01  1.00800000E+00
  1.00800000E+00  1.60000000E+01  1.00800000E+00  1.00800000E+00  1.60000000E+01
  1.00800000E+00  1.00800000E+00  1.60000000E+01  1.00800000E+00  1.00800000E+00
  1.60000000E+01  1.00800000E+00  1.00800000E+00  1.60000000E+01  1.00800000E+00
  1.00800000E+00  1.60000000E+01  1.00800000E+00  1.00800000E+00  1.60000000E+01
  1.00800000E+00  1.00800000E+00  1.60000000E+01  1.00800000E+00  1.00800000E+00
  1.60000000E+01  1.00800000E+00  1.00800000E+00  1.60000000E+01  1.00800000E+00
  1.00800000E+00  1.60000000E+01  1.00800000E+00  1.00800000E+00  1.60000000E+01
  1.00800000E+00  1.00800000E+00  1.60000000E+01  1.00800000E+00  1.00800000E+00
  1.60000000E+01  1.00800000E+00  1.00800000E+00  1.60000000E+01  1.00800000E+00
  1.00800000E+00  1.60000000E+01  1.00800000E+00  1.00800000E+00  1.60000000E+01
  1.00800000E+00  1.00800000E+00  1.60000000E+01  1.00800000E+00  1.00800000E+00
  1.60000000E+01  1.00800000E+00  1.00800000E+00  1.60000000E+01  1.00800000E+00
  1.00800000E+00  1.60000000E+01  1.00800000E+00  1.00800000E+00  1.60000000E+01
  1.00800000E+00  1.00800000E+00  1.60000000E+01  1.00800000E+00  1.00800000E+00
  1.60000000E+01  1.00800000E+00  1.00800000E+00  1.60000000E+01  1.00800000E+00
  1.00800000E+00  1.60000000E+01  1.00800000E+00  1.00800000E+00  1.60000000E+01
  1.00800000E+00  1.00800000E+00  1.60000000E+01  1.00800000E+00  1.00800000E+00
  1.60000000E+01  1.00800000E+00  1.00800000E+00  1.60000000E+01  1.00800000E+00
  1.00800000E+00  1.60000000E+01  1.00800000E+00  1.00800000E+00  1.60000000E+01
  1.00800000E+00  1.00800000E+00  1.60000000E+01  1.00800000E+00  1.00800000E+00
  1.60000000E+01  1.00800000E+00  1.00800000E+00  1.60000000E+01  1.00800000E+00
  1.00800000E+00  1.60000000E+01  1.00800000E+00  1.00800000E+00  1.60000000E+01
  1.00800000E+00  1.00800000E+00  1.60000000E+01  1.00800000E+00  1.00800000E+00
  1.60000000E+01  1.00800000E+00  1.00800000E+00  1.60000000E+01  1.00800000E+00
  1.00800000E+00  1.60000000E+01  1.00800000E+00  1.00800000E+00  1.60000000E+01
  1.00800000E+00  1.00800000E+00  1.60000000E+01  1.00800000E+00  1.00800000E+00
  1.60000000E+01  1.00800000E+00  1.00800000E+00  1.60000000E+01  1.00800000E+00
  1.00800000E+00  1.60000000E+01  1.00800000E+00  1.00800000E+00  1.60000000E+01
  1.00800000E+00  1.00800000E+00  1.60000000E+01  1.00800000E+00  1.00800000E+00
  1.60000000E+01  1.00800000E+00  1.00800000E+00  1.60000000E+01  1.00800000E+00
  1.00800000E+00  1.60000000E+01  1.00800000E+00  1.00800000E+00  1.60000000E+01
  1.00800000E+00  1.00800000E+00  1.60000000E+01  1.00800000E+00  1.00800000E+00
  1.60000000E+01  1.00800000E+00  1.00800000E+00  1.60000000E+01  1.00800000E+00
  1.00800000E+00  1.60000000E+01  1.00800000E+00  1.00800000E+00  1.60000000E+01
  1.00800000E+00  1.00800000E+00  1.60000000E+01  1.00800000E+00  1.00800000E+00
  1.60000000E+01  1.00800000E+00  1.00800000E+00  1.60000000E+01  1.00800000E+00
  1.00800000E+00  1.60000000E+01  1.00800000E+00  1.00800000E+00  1.60000000E+01
  1.00800000E+00  1.00800000E+00  1.60000000E+01  1.00800000E+00  1.00800000E+00
  1.60000000E+01  1.00800000E+00  1.00800000E+00  1.60000000E+01  1.00800000E+00
  1.00800000E+00  1.60000000E+01  1.00800000E+00  1.00800000E+00  1.60000000E+01
  1.00800000E+00  1.00800000E+00  1.60000000E+01  1.00800000E+00  1.00800000E+00
  1.60000000E+01  1.00800000E+00  1.00800000E+00  1.60000000E+01  1.00800000E+00
  1.00800000E+00  1.60000000E+01  1.00800000E+00  1.00800000E+00  1.60000000E+01
  1.00800000E+00  1.00800000E+00  1.60000000E+01  1.00800000E+00  1.00800000E+00
  1.60000000E+01  1.00800000E+00  1.00800000E+00  1.60000000E+01  1.00800000E+00
  1.00800000E+00  1.60000000E+01  1.00800000E+00  1.00800000E+00  1.60000000E+01
  1.00800000E+00  1.00800000E+00  1.60000000E+01  1.00800000E+00  1.00800000E+00
  1.60000000E+01  1.00800000E+00  1.00800000E+00  1.60000000E+01  1.00800000E+00
  1.00800000E+00  1.60000000E+01  1.00800000E+00  1.00800000E+00  1.60000000E+01
  1.00800000E+00  1.00800000E+00  1.60000000E+01  1.00800000E+00  1.00800000E+00
  1.60000000E+01  1.00800000E+00  1.00800000E+00  1.60000000E+01  1.00800000E+00
  1.00800000E+00  1.60000000E+01  1.00800000E+00  1.00800000E+00  1.60000000E+01
  1.00800000E+00  1.00800000E+00  1.60000000E+01  1.00800000E+00  1.00800000E+00
  1.60000000E+01  1.00800000E+00  1.00800000E+00  1.60000000E+01  1.00800000E+00
  1.00800000E+00  1.60000000E+01  1.00800000E+00  1.00800000E+00  1.60000000E+01
  1.00800000E+00  1.00800000E+00  1.60000000E+01  1.00800000E+00  1.00800000E+00
  1.60000000E+01  1.00800000E+00  1.00800000E+00  1.60000000E+01  1.00800000E+00
  1.00800000E+00  1.60000000E+01  1.00800000E+00  1.00800000E+00  1.60000000E+01
  1.00800000E+00  1.00800000E+00  1.60000000E+01  1.00800000E+00  1.00800000E+00
  1.60000000E+01  1.00800000E+00  1.00800000E+00  1.60000000E+01  1.00800000E+00
  1.00800000E+00  1.60000000E+01  1.00800000E+00  1.00800000E+00  1.60000000E+01
  1.00800000E+00  1.00800000E+00  1.60000000E+01  1.00800000E+00  1.00800000E+00
  1.60000000E+01  1.00800000E+00  1.00800000E+00  1.60000000E+01  1.00800000E+00
  1.00800000E+00  1.60000000E+01  1.00800000E+00  1.00800000E+00  1.60000000E+01
  1.00800000E+00  1.00800000E+00  1.60000000E+01  1.00800000E+00  1.00800000E+00
  1.60000000E+01  1.00800000E+00  1.00800000E+00  1.60000000E+01  1.00800000E+00
  1.00800000E+00  1.60000000E+01  1.00800000E+00  1.00800000E+00  1.60000000E+01
  1.00800000E+00  1.00800000E+00  1.60000000E+01  1.00800000E+00  1.00800000E+00
  1.60000000E+01  1.00800000E+00  1.00800000E+00  1.60000000E+01  1.00800000E+00
  1.00800000E+00  1.60000000E+01  1.00800000E+00  1.00800000E+00  1.60000000E+01
  1.00800000E+00  1.00800000E+00  1.60000000E+01  1.00800000E+00  1.00800000E+00
  1.60000000E+01  1.00800000E+00  1.00800000E+00  1.60000000E+01  1.00800000E+00
  1.00800000E+00  1.60000000E+01  1.00800000E+00  1.00800000E+00  1.60000000E+01
  1.00800000E+00  1.00800000E+00  1.60000000E+01  1.00800000E+00  1.00800000E+00
  1.60000000E+01  1.00800000E+00  1.00800000E+00  1.60000000E+01  1.00800000E+00
  1.00800000E+00  1.60000000E+01  1.00800000E+00  1.00800000E+00  1.60000000E+01
  1.00800000E+00  1.00800000E+00  1.60000000E+01  1.00800000E+00  1.00800000E+00
  1.60000000E+01  1.00800000E+00  1.00800000E+00  1.60000000E+01  1.00800000E+00
  1.00800000E+00  1.60000000E+01  1.00800000E+00  1.00800000E+00  1.60000000E+01
  1.00800000E+00  1.00800000E+00  1.60000000E+01  1.00800000E+00  1.00800000E+00
  1.60000000E+01  1.00800000E+00  1.00800000E+00  1.60000000E+01  1.00800000E+00
  1.00800000E+00  1.60000000E+01  1.00800000E+00  1.00800000E+00  1.60000000E+01
  1.00800000E+00  1.00800000E+00  1.60000000E+01  1.00800000E+00  1.00800000E+00
  1.60000000E+01  1.00800000E+00  1.00800000E+00  1.60000000E+01  1.00800000E+00
  1.00800000E+00  1.60000000E+01  1.00800000E+00  1.00800000E+00  1.60000000E+01
  1.00800000E+00  1.00800000E+00  1.60000000E+01  1.00800000E+00  1.00800000E+00
  1.60000000E+01  1.00800000E+00  1.00800000E+00  1.60000000E+01  1.00800000E+00
  1.00800000E+00  1.60000000E+01  1.00800000E+00  1.00800000E+00  1.60000000E+01
  1.00800000E+00  1.00800000E+00  1.60000000E+01  1.00800000E+00  1.00800000E+00
  1.60000000E+01  1.00800000E+00  1.00800000E+00  1.60000000E+01  1.00800000E+00
  1.00800000E+00  1.60000000E+01  1.00800000E+00  1.00800000E+00  1.60000000E+01
  1.00800000E+00  1.00800000E+00  1.60000000E+01  1.00800000E+00  1.00800000E+00
  1.60000000E+01  1.00800000E+00  1.00800000E+00  1.60000000E+01  1.00800000E+00
  1.00800000E+00  1.60000000E+01  1.00800000E+00  1.00800000E+00  1.60000000E+01
  1.00800000E+00  1.00800000E+00  1.60000000E+01  1.00800000E+00  1.00800000E+00
  1.60000000E+01  1.00800000E+00  1.00800000E+00  1.60000000E+01  1.00800000E+00
  1.00800000E+00  1.60000000E+01  1.00800000E+00  1.00800000E+00  1.60000000E+01
  1.00800000E+00  1.00800000E+00  1.60000000E+01  1.00800000E+00  1.00800000E+00
  1.60000000E+01  1.00800000E+00  1.00800000E+00  1.60000000E+01  1.00800000E+00
  1.00800000E+00  1.60000000E+01  1.00800000E+00  1.00800000E+00  1.60000000E+01
  1.00800000E+00  1.00800000E+00  1.60000000E+01  1.00800000E+00  1.00800000E+00
  1.60000000E+01  1.00800000E+00  1.00800000E+00  1.60000000E+01  1.00800000E+00
  1.00800000E+00  1.60000000E+01  1.00800000E+00  1.00800000E+00  1.60000000E+01
  1.00800000E+00  1.00800000E+00  1.60000000E+01  1.00800000E+00  1.00800000E+00
  1.60000000E+01  1.00800000E+00  1.00800000E+00  1.60000000E+01  1.00800000E+00
  1.00800000E+00  1.60000000E+01  1.00800000E+00  1.00800000E+00  1.60000000E+01
  1.00800000E+00  1.00800000E+00  1.60000000E+01  1.00800000E+00  1.00800000E+00
  1.60000000E+01  1.00800000E+00  1.00800000E+00  1.60000000E+01  1.00800000E+00
  1.00800000E+00  1.60000000E+01  1.00800000E+00  1.00800000E+00  1.60000000E+01
  1.00800000E+00  1.00800000E+00  1.60000000E+01  1.00800000E+00  1.00800000E+00
  1.60000000E+01  1.00800000E+00  1.00800000E+00  1.60000000E+01  1.00800000E+00
  1.00800000E+00  1.60000000E+01  1.00800000E+00  1.00800000E+00  1.60000000E+01
  1.00800000E+00  1.00800000E+00  1.60000000E+01  1.00800000E+00  1.00800000E+00
  1.60000000E+01  1.00800000E+00  1.00800000E+00  1.60000000E+01  1.00800000E+00
  1.00800000E+00  1.60000000E+01  1.00800000E+00  1.00800000E+00  1.60000000E+01
  1.00800000E+00  1.00800000E+00  1.60000000E+01  1.00800000E+00  1.00800000E+00
  1.60000000E+01  1.00800000E+00  1.00800000E+00  1.60000000E+01  1.00800000E+00
  1.00800000E+00  1.60000000E+01  1.00800000E+00  1.00800000E+00  1.60000000E+01
  1.00800000E+00  1.00800000E+00  1.60000000E+01  1.00800000E+00  1.00800000E+00
  1.60000000E+01  1.00800000E+00  1.00800000E+00  1.60000000E+01  1.00800000E+00
  1.00800000E+00  1.60000000E+01  1.00800000E+00  1.00800000E+00  1.60000000E+01
  1.00800000E+00  1.00800000E+00  1.60000000E+01  1.00800000E+00  1.00800000E+00
  1.60000000E+01  1.00800000E+00  1.00800000E+00  1.60000000E+01  1.00800000E+00
  1.00800000E+00  1.60000000E+01  1.00800000E+00  1.00800000E+00  1.60000000E+01
  1.00800000E+00  1.00800000E+00  1.60000000E+01  1.00800000E+00  1.00800000E+00
  1.60000000E+01  1.00800000E+00  1.00800000E+00  1.60000000E+01  1.00800000E+00
  1.00800000E+00  1.60000000E+01  1.00800000E+00  1.00800000E+00  1.60000000E+01
  1.00800000E+00  1.00800000E+00  1.60000000E+01  1.00800000E+00  1.00800000E+00
  1.60000000E+01  1.00800000E+00  1.00800000E+00  1.60000000E+01  1.00800000E+00
  1.00800000E+00  1.60000000E+01  1.00800000E+00  1.00800000E+00  1.60000000E+01
  1.00800000E+00  1.00800000E+00  1.60000000E+01  1.00800000E+00  1.00800000E+00
  1.60000000E+01  1.00800000E+00  1.00800000E+00  1.60000000E+01  1.00800000E+00
  1.00800000E+00  1.60000000E+01  1.00800000E+00  1.00800000E+00  1.60000000E+01
  1.00800000E+00  1.00800000E+00  1.60000000E+01  1.00800000E+00  1.00800000E+00
  1.60000000E+01  1.00800000E+00  1.00800000E+00  1.60000000E+01  1.00800000E+00
  1.00800000E+00  1.60000000E+01  1.00800000E+00  1.00800000E+00  1.60000000E+01
  1.00800000E+00  1.00800000E+00  1.60000000E+01  1.00800000E+00  1.00800000E+00
  1.60000000E+01  1.00800000E+00  1.00800000E+00  1.60000000E+01  1.00800000E+00
  1.00800000E+00  1.60000000E+01  1.00800000E+00  1.00800000E+00  1.60000000E+01
  1.00800000E+00  1.00800000E+00  1.60000000E+01  1.00800000E+00  1.00800000E+00
  1.60000000E+01  1.00800000E+00  1.00800000E+00  1.60000000E+01  1.00800000E+00
  1.00800000E+00  1.60000000E+01  1.00800000E+00  1.00800000E+00  1.60000000E+01
  1.00800000E+00  1.00800000E+00  1.60000000E+01  1.00800000E+00  1.00800000E+00
  1.60000000E+01  1.00800000E+00  1.00800000E+00  1.60000000E+01  1.00800000E+00
  1.00800000E+00  1.60000000E+01  1.00800000E+00  1.00800000E+00  1.60000000E+01
  1.00800000E+00  1.00800000E+00  1.60000000E+01  1.00800000E+00  1.00800000E+00
  1.60000000E+01  1.00800000E+00  1.00800000E+00  1.60000000E+01  1.00800000E+00
  1.00800000E+00  1.60000000E+01  1.00800000E+00  1.00800000E+00  1.60000000E+01
  1.00800000E+00  1.00800000E+00  1.60000000E+01  1.00800000E+00  1.00800000E+00
  1.60000000E+01  1.00800000E+00  1.00800000E+00  1.60000000E+01  1.00800000E+00
  1.00800000E+00  1.60000000E+01  1.00800000E+00  1.00800000E+00  1.60000000E+01
  1.00800000E+00  1.00800000E+00  1.60000000E+01  1.00800000E+00  1.00800000E+00
  1.60000000E+01  1.00800000E+00  1.00800000E+00  1.60000000E+01  1.00800000E+00
  1.00800000E+00  1.60000000E+01  1.00800000E+00  1.00800000E+00  1.60000000E+01
  1.00800000E+00  1.00800000E+00  1.60000000E+01  1.00800000E+00  1.00800000E+00
  1.60000000E+01  1.00800000E+00  1.00800000E+00  1.60000000E+01  1.00800000E+00
  1.00800000E+00  1.60000000E+01  1.00800000E+00  1.00800000E+00  1.60000000E+01
  1.00800000E+00  1.00800000E+00  1.60000000E+01  1.00800000E+00  1.00800000E+00
  1.60000000E+01  1.00800000E+00  1.00800000E+00  1.60000000E+01  1.00800000E+00
  1.00800000E+00  1.60000000E+01  1.00800000E+00  1.00800000E+00  1.60000000E+01
  1.00800000E+00  1.00800000E+00  1.60000000E+01  1.00800000E+00  1.00800000E+00
  1.60000000E+01  1.00800000E+00  1.00800000E+00  1.60000000E+01  1.00800000E+00
  1.00800000E+00  1.60000000E+01  1.00800000E+00  1.00800000E+00  1.60000000E+01
  1.00800000E+00  1.00800000E+00  1.60000000E+01  1.00800000E+00  1.00800000E+00
  1.60000000E+01  1.00800000E+00  1.00800000E+00  1.60000000E+01  1.00800000E+00
  1.00800000E+00  1.60000000E+01  1.00800000E+00  1.00800000E+00  1.60000000E+01
  1.00800000E+00  1.00800000E+00  1.60000000E+01  1.00800000E+00  1.00800000E+00
  1.60000000E+01  1.00800000E+00  1.00800000E+00  1.60000000E+01  1.00800000E+00
  1.00800000E+00  1.60000000E+01  1.00800000E+00  1.00800000E+00  1.60000000E+01
  1.00800000E+00  1.00800000E+00  1.60000000E+01  1.00800000E+00  1.00800000E+00
  1.60000000E+01  1.00800000E+00  1.00800000E+00  1.60000000E+01  1.00800000E+00
  1.00800000E+00  1.60000000E+01  1.00800000E+00  1.00800000E+00  1.60000000E+01
  1.00800000E+00  1.00800000E+00  1.60000000E+01  1.00800000E+00  1.00800000E+00
  1.60000000E+01  1.00800000E+00  1.00800000E+00  1.60000000E+01  1.00800000E+00
  1.00800000E+00  1.60000000E+01  1.00800000E+00  1.00800000E+00  1.60000000E+01
  1.00800000E+00  1.00800000E+00  1.60000000E+01  1.00800000E+00  1.00800000E+00
  1.60000000E+01  1.00800000E+00  1.00800000E+00  1.60000000E+01  1.00800000E+00
  1.00800000E+00  1.60000000E+01  1.00800000E+00  1.00800000E+00  1.60000000E+01
  1.00800000E+00  1.00800000E+00  1.60000000E+01  1.00800000E+00  1.00800000E+00
  1.60000000E+01  1.00800000E+00  1.00800000E+00  1.60000000E+01  1.00800000E+00
  1.00800000E+00  1.60000000E+01  1.00800000E+00  1.00800000E+00  1.60000000E+01
  1.00800000E+00  1.00800000E+00  1.60000000E+01  1.00800000E+00  1.00800000E+00
  1.60000000E+01  1.00800000E+00  1.00800000E+00  1.60000000E+01  1.00800000E+00
  1.00800000E+00  1.60000000E+01  1.00800000E+00  1.00800000E+00  1.60000000E+01
  1.00800000E+00  1.00800000E+00  1.60000000E+01  1.00800000E+00  1.00800000E+00
  1.60000000E+01  1.00800000E+00  1.00800000E+00  1.60000000E+01  1.00800000E+00
  1.00800000E+00  1.60000000E+01  1.00800000E+00  1.00800000E+00  1.60000000E+01
  1.00800000E+00  1.00800000E+00  1.60000000E+01  1.00800000E+00  1.00800000E+00
  1.60000000E+01  1.00800000E+00  1.00800000E+00  1.60000000E+01  1.00800000E+00
  1.00800000E+00  1.60000000E+01  1.00800000E+00  1.00800000E+00  1.60000000E+01
  1.00800000E+00  1.00800000E+00  1.60000000E+01  1.00800000E+00  1.00800000E+00
  1.60000000E+01  1.00800000E+00  1.00800000E+00  1.60000000E+01  1.00800000E+00
  1.00800000E+00  1.60000000E+01  1.00800000E+00  1.00800000E+00  1.60000000E+01
  1.00800000E+00  1.00800000E+00  1.60000000E+01  1.00800000E+00  1.00800000E+00
  1.60000000E+01  1.00800000E+00  1.00800000E+00  1.60000000E+01  1.00800000E+00
  1.00800000E+00  1.60000000E+01  1.00800000E+00  1.00800000E+00  1.60000000E+01
  1.00800000E+00  1.00800000E+00  1.60000000E+01  1.00800000E+00  1.00800000E+00
  1.60000000E+01  1.00800000E+00  1.00800000E+00  1.60000000E+01  1.00800000E+00
  1.00800000E+00  1.60000000E+01  1.00800000E+00  1.00800000E+00  1.60000000E+01
  1.00800000E+00  1.00800000E+00  1.60000000E+01  1.00800000E+00  1.00800000E+00
  1.60000000E+01  1.00800000E+00  1.00800000E+00  1.60000000E+01  1.00800000E+00
  1.00800000E+00  1.60000000E+01  1.00800000E+00  1.00800000E+00  1.60000000E+01
  1.00800000E+00  1.00800000E+00  1.60000000E+01  1.00800000E+00  1.00800000E+00
  1.60000000E+01  1.00800000E+00  1.00800000E+00  1.60000000E+01  1.00800000E+00
  1.00800000E+00  1.60000000E+01  1.00800000E+00  1.00800000E+00  1.60000000E+01
  1.00800000E+00  1.00800000E+00  1.60000000E+01  1.00800000E+00  1.00800000E+00
  1.60000000E+01  1.00800000E+00  1.00800000E+00  1.60000000E+01  1.00800000E+00
  1.00800000E+00  1.60000000E+01  1.00800000E+00  1.00800000E+00  1.60000000E+01
  1.00800000E+00  1.00800000E+00  1.60000000E+01  1.00800000E+00  1.00800000E+00
  1.60000000E+01  1.00800000E+00  1.00800000E+00  1.60000000E+01  1.00800000E+00
  1.00800000E+00  1.60000000E+01  1.00800000E+00  1.00800000E+00  1.60000000E+01
  1.00800000E+00  1.00800000E+00  1.60000000E+01  1.00800000E+00  1.00800000E+00
  1.60000000E+01  1.00800000E+00  1.00800000E+00  1.60000000E+01  1.00800000E+00
  1.00800000E+00  1.60000000E+01  1.00800000E+00  1.00800000E+00  1.60000000E+01
  1.00800000E+00  1.00800000E+00  1.60000000E+01  1.00800000E+00  1.00800000E+00
  1.60000000E+01  1.00800000E+00  1.00800000E+00  1.60000000E+01  1.00800000E+00
  1.00800000E+00  1.60000000E+01  1.00800000E+00  1.00800000E+00  1.60000000E+01
  1.00800000E+00  1.00800000E+00  1.60000000E+01  1.00800000E+00  1.00800000E+00
  1.60000000E+01  1.00800000E+00  1.00800000E+00  1.60000000E+01  1.00800000E+00
  1.00800000E+00  1.60000000E+01  1.00800000E+00  1.00800000E+00  1.60000000E+01
  1.00800000E+00  1.00800000E+00  1.60000000E+01  1.00800000E+00  1.00800000E+00
  1.60000000E+01  1.00800000E+00  1.00800000E+00  1.60000000E+01  1.00800000E+00
  1.00800000E+00  1.60000000E+01  1.00800000E+00  1.00800000E+00  1.60000000E+01
  1.00800000E+00  1.00800000E+00  1.60000000E+01  1.00800000E+00  1.00800000E+00
  1.60000000E+01  1.00800000E+00  1.00800000E+00  1.60000000E+01  1.00800000E+00
  1.00800000E+00  1.60000000E+01  1.00800000E+00  1.00800000E+00  1.60000000E+01
  1.00800000E+00  1.00800000E+00  1.60000000E+01  1.00800000E+00  1.00800000E+00
  1.60000000E+01  1.00800000E+00  1.00800000E+00  1.60000000E+01  1.00800000E+00
  1.00800000E+00  1.60000000E+01  1.00800000E+00  1.00800000E+00  1.60000000E+01
  1.00800000E+00  1.00800000E+00  1.60000000E+01  1.00800000E+00  1.00800000E+00
  1.60000000E+01  1.00800000E+00  1.00800000E+00  1.60000000E+01  1.00800000E+00
  1.00800000E+00  1.60000000E+01  1.00800000E+00  1.00800000E+00  1.60000000E+01
  1.00800000E+00  1.00800000E+00  1.60000000E+01  1.00800000E+00  1.00800000E+00
  1.60000000E+01  1.00800000E+00  1.00800000E+00  1.60000000E+01  1.00800000E+00
  1.00800000E+00  1.60000000E+01  1.00800000E+00  1.00800000E+00  1.60000000E+01
  1.00800000E+00  1.00800000E+00  1.60000000E+01  1.00800000E+00  1.00800000E+00
  1.60000000E+01  1.00800000E+00  1.00800000E+00  1.60000000E+01  1.00800000E+00
  1.00800000E+00  1.60000000E+01  1.00800000E+00  1.00800000E+00  1.60000000E+01
  1.00800000E+00  1.00800000E+00  1.60000000E+01  1.00800000E+00  1.00800000E+00
  1.60000000E+01  1.00800000E+00  1.00800000E+00  1.60000000E+01  1.00800000E+00
  1.00800000E+00  1.60000000E+01  1.00800000E+00  1.00800000E+00  1.60000000E+01
  1.00800000E+00  1.00800000E+00  1.60000000E+01  1.00800000E+00  1.00800000E+00
  1.60000000E+01  1.00800000E+00  1.00800000E+00  1.60000000E+01  1.00800000E+00
  1.00800000E+00  1.60000000E+01  1.00800000E+00  1.00800000E+00  1.60000000E+01
  1.00800000E+00  1.00800000E+00  1.60000000E+01  1.00800000E+00  1.00800000E+00
  1.60000000E+01  1.00800000E+00  1.00800000E+00  1.60000000E+01  1.00800000E+00
  1.00800000E+00  1.60000000E+01  1.00800000E+00  1.00800000E+00  1.60000000E+01
  1.00800000E+00  1.00800000E+00  1.60000000E+01  1.00800000E+00  1.00800000E+00
  1.60000000E+01  1.00800000E+00  1.00800000E+00  1.60000000E+01  1.00800000E+00
  1.00800000E+00  1.60000000E+01  1.00800000E+00  1.00800000E+00  1.60000000E+01
  1.00800000E+00  1.00800000E+00  1.60000000E+01  1.00800000E+00  1.00800000E+00
  1.60000000E+01  1.00800000E+00  1.00800000E+00  1.60000000E+01  1.00800000E+00
  1.00800000E+00  1.60000000E+01  1.00800000E+00  1.00800000E+00  1.60000000E+01
  1.00800000E+00  1.00800000E+00  1.60000000E+01  1.00800000E+00  1.00800000E+00
  1.60000000E+01  1.00800000E+00  1.00800000E+00  1.60000000E+01  1.00800000E+00
  1.00800000E+00  1.60000000E+01  1.00800000E+00  1.00800000E+00  1.60000000E+01
  1.00800000E+00  1.00800000E+00  1.60000000E+01  1.00800000E+00  1.00800000E+00
  1.60000000E+01  1.00800000E+00  1.00800000E+00  1.60000000E+01  1.00800000E+00
  1.00800000E+00  1.60000000E+01  1.00800000E+00  1.00800000E+00  1.60000000E+01
  1.00800000E+00  1.00800000E+00  1.60000000E+01  1.00800000E+00  1.00800000E+00
  1.60000000E+01  1.00800000E+00  1.00800000E+00  1.60000000E+01  1.00800000E+00
  1.00800000E+00  1.60000000E+01  1.00800000E+00  1.00800000E+00  1.60000000E+01
  1.00800000E+00  1.00800000E+00  1.60000000E+01  1.00800000E+00  1.00800000E+00
  1.60000000E+01  1.00800000E+00  1.00800000E+00  1.60000000E+01  1.00800000E+00
  1.00800000E+00  1.60000000E+01  1.00800000E+00  1.00800000E+00  1.60000000E+01
  1.00800000E+00  1.00800000E+00  1.60000000E+01  1.00800000E+00  1.00800000E+00
  1.60000000E+01  1.00800000E+00  1.00800000E+00  1.60000000E+01  1.00800000E+00
  1.00800000E+00  1.60000000E+01  1.00800000E+00  1.00800000E+00  1.60000000E+01
  1.00800000E+00  1.00800000E+00  1.60000000E+01  1.00800000E+00  1.00800000E+00
  1.60000000E+01  1.00800000E+00  1.00800000E+00  1.60000000E+01  1.00800000E+00
  1.00800000E+00  1.60000000E+01  1.00800000E+00  1.00800000E+00  1.60000000E+01
  1.00800000E+00  1.00800000E+00  1.60000000E+01  1.00800000E+00  1.00800000E+00
  1.60000000E+01  1.00800000E+00  1.00800000E+00  1.60000000E+01  1.00800000E+00
  1.00800000E+00  1.60000000E+01  1.00800000E+00  1.00800000E+00  1.60000000E+01
  1.00800000E+00  1.00800000E+00  1.60000000E+01  1.00800000E+00  1.00800000E+00
  1.60000000E+01  1.00800000E+00  1.00800000E+00  1.60000000E+01  1.00800000E+00
  1.00800000E+00  1.60000000E+01  1.00800000E+00  1.00800000E+00  1.60000000E+01
  1.00800000E+00  1.00800000E+00  1.60000000E+01  1.00800000E+00  1.00800000E+00
  1.60000000E+01  1.00800000E+00  1.00800000E+00  1.60000000E+01  1.00800000E+00
  1.00800000E+00  1.60000000E+01  1.00800000E+00  1.00800000E+00  1.60000000E+01
  1.00800000E+00  1.00800000E+00  1.60000000E+01  1.00800000E+00  1.00800000E+00
  1.60000000E+01  1.00800000E+00  1.00800000E+00  1.60000000E+01  1.00800000E+00
  1.00800000E+00  1.60000000E+01  1.00800000E+00  1.00800000E+00  1.60000000E+01
  1.00800000E+00  1.00800000E+00  1.60000000E+01  1.00800000E+00  1.00800000E+00
  1.60000000E+01  1.00800000E+00  1.00800000E+00  1.60000000E+01  1.00800000E+00
  1.00800000E+00  1.60000000E+01  1.00800000E+00  1.00800000E+00  1.60000000E+01
  1.00800000E+00  1.00800000E+00  1.60000000E+01  1.00800000E+00  1.00800000E+00
  1.60000000E+01  1.00800000E+00  1.00800000E+00  1.60000000E+01  1.00800000E+00
  1.00800000E+00  1.60000000E+01  1.00800000E+00  1.00800000E+00  1.60000000E+01
  1.00800000E+00  1.00800000E+00  1.60000000E+01  1.00800000E+00  1.00800000E+00
  1.60000000E+01  1.00800000E+00  1.00800000E+00  1.60000000E+01  1.00800000E+00
  1.00800000E+00  1.60000000E+01  1.00800000E+00  1.00800000E+00  1.60000000E+01
  1.00800000E+00  1.00800000E+00  1.60000000E+01  1.00800000E+00  1.00800000E+00
  1.60000000E+01  1.00800000E+00  1.00800000E+00  1.60000000E+01  1.00800000E+00
  1.00800000E+00  1.60000000E+01  1.00800000E+00  1.00800000E+00  1.60000000E+01
  1.00800000E+00  1.00800000E+00  1.60000000E+01  1.00800000E+00  1.00800000E+00
  1.60000000E+01  1.00800000E+00  1.00800000E+00  1.60000000E+01  1.00800000E+00
  1.00800000E+00  1.60000000E+01  1.00800000E+00  1.00800000E+00  1.60000000E+01
  1.00800000E+00  1.00800000E+00  1.60000000E+01  1.00800000E+00  1.00800000E+00
  1.60000000E+01  1.00800000E+00  1.00800000E+00  1.60000000E+01  1.00800000E+00
  1.00800000E+00  1.60000000E+01  1.00800000E+00  1.00800000E+00  1.60000000E+01
  1.00800000E+00  1.00800000E+00  1.60000000E+01  1.00800000E+00  1.00800000E+00
  1.60000000E+01  1.00800000E+00  1.00800000E+00  1.60000000E+01  1.00800000E+00
  1.00800000E+00  1.60000000E+01  1.00800000E+00  1.00800000E+00  1.60000000E+01
  1.00800000E+00  1.00800000E+00  1.60000000E+01  1.00800000E+00  1.00800000E+00
  1.60000000E+01  1.00800000E+00  1.00800000E+00  1.60000000E+01  1.00800000E+00
  1.00800000E+00  1.60000000E+01  1.00800000E+00  1.00800000E+00  1.60000000E+01
  1.00800000E+00  1.00800000E+00  1.60000000E+01  1.00800000E+00  1.00800000E+00
  1.60000000E+01  1.00800000E+00  1.00800000E+00  1.60000000E+01  1.00800000E+00
  1.00800000E+00  1.60000000E+01  1.00800000E+00  1.00800000E+00  1.60000000E+01
  1.00800000E+00  1.00800000E+00  1.60000000E+01  1.00800000E+00  1.00800000E+00
  1.60000000E+01  1.00800000E+00  1.00800000E+00  1.60000000E+01  1.00800000E+00
  1.00800000E+00  1.60000000E+01  1.00800000E+00  1.00800000E+00  1.60000000E+01
  1.00800000E+00  1.00800000E+00  1.60000000E+01  1.00800000E+00  1.00800000E+00
  1.60000000E+01  1.00800000E+00  1.00800000E+00  1.60000000E+01  1.00800000E+00
  1.00800000E+00  1.60000000E+01  1.00800000E+00  1.00800000E+00  1.60000000E+01
  1.00800000E+00  1.00800000E+00  1.60000000E+01  1.00800000E+00  1.00800000E+00
  1.60000000E+01  1.00800000E+00  1.00800000E+00  1.60000000E+01  1.00800000E+00
  1.00800000E+00  1.60000000E+01  1.00800000E+00  1.00800000E+00  1.60000000E+01
  1.00800000E+00  1.00800000E+00  1.60000000E+01  1.00800000E+00  1.00800000E+00
  1.60000000E+01  1.00800000E+00  1.00800000E+00  1.60000000E+01  1.00800000E+00
  1.00800000E+00  1.60000000E+01  1.00800000E+00  1.00800000E+00  1.60000000E+01
  1.00800000E+00  1.00800000E+00  1.60000000E+01  1.00800000E+00  1.00800000E+00
  1.60000000E+01  1.00800000E+00  1.00800000E+00  1.60000000E+01  1.00800000E+00
  1.00800000E+00  1.60000000E+01  1.00800000E+00  1.00800000E+00  1.60000000E+01
  1.00800000E+00  1.00800000E+00  1.60000000E+01  1.00800000E+00  1.00800000E+00
  1.60000000E+01  1.00800000E+00  1.00800000E+00  1.60000000E+01  1.00800000E+00
  1.00800000E+00  1.60000000E+01  1.00800000E+00  1.00800000E+00  1.60000000E+01
  1.00800000E+00  1.00800000E+00  1.60000000E+01  1.00800000E+00  1.00800000E+00
  1.60000000E+01  1.00800000E+00  1.00800000E+00  1.60000000E+01  1.00800000E+00
  1.00800000E+00  1.60000000E+01  1.00800000E+00  1.00800000E+00  1.60000000E+01
  1.00800000E+00  1.00800000E+00  1.60000000E+01  1.00800000E+00  1.00800000E+00
  1.60000000E+01  1.00800000E+00  1.00800000E+00  1.60000000E+01  1.00800000E+00
  1.00800000E+00  1.60000000E+01  1.00800000E+00  1.00800000E+00  1.60000000E+01
  1.00800000E+00  1.00800000E+00  1.60000000E+01  1.00800000E+00  1.00800000E+00
  1.60000000E+01  1.00800000E+00  1.00800000E+00  1.60000000E+01  1.00800000E+00
  1.00800000E+00  1.60000000E+01  1.00800000E+00  1.00800000E+00  1.60000000E+01
  1.00800000E+00  1.00800000E+00  1.60000000E+01  1.00800000E+00  1.00800000E+00
  1.60000000E+01  1.00800000E+00  1.00800000E+00  1.60000000E+01  1.00800000E+00
  1.00800000E+00  1.60000000E+01  1.00800000E+00  1.00800000E+00  1.60000000E+01
  1.00800000E+00  1.00800000E+00  1.60000000E+01  1.00800000E+00  1.00800000E+00
  1.60000000E+01  1.00800000E+00  1.00800000E+00  1.60000000E+01  1.00800000E+00
  1.00800000E+00  1.60000000E+01  1.00800000E+00  1.00800000E+00  1.60000000E+01
  1.00800000E+00  1.00800000E+00  1.60000000E+01  1.00800000E+00  1.00800000E+00
  1.60000000E+01  1.00800000E+00  1.00800000E+00  1.60000000E+01  1.00800000E+00
  1.00800000E+00  1.60000000E+01  1.00800000E+00  1.00800000E+00  1.60000000E+01
  1.00800000E+00  1.00800000E+00  1.60000000E+01  1.00800000E+00  1.00800000E+00
  1.60000000E+01  1.00800000E+00  1.00800000E+00  1.60000000E+01  1.00800000E+00
  1.00800000E+00  1.60000000E+01  1.00800000E+00  1.00800000E+00  1.60000000E+01
  1.00800000E+00  1.00800000E+00  1.60000000E+01  1.00800000E+00  1.00800000E+00
  1.60000000E+01  1.00800000E+00  1.00800000E+00  1.60000000E+01  1.00800000E+00
  1.00800000E+00  1.60000000E+01  1.00800000E+00  1.00800000E+00  1.60000000E+01
  1.00800000E+00  1.00800000E+00  1.60000000E+01  1.00800000E+00  1.00800000E+00
  1.60000000E+01  1.00800000E+00  1.00800000E+00  1.60000000E+01  1.00800000E+00
  1.00800000E+00  1.60000000E+01  1.00800000E+00  1.00800000E+00  1.60000000E+01
  1.00800000E+00  1.00800000E+00  1.60000000E+01  1.00800000E+00  1.00800000E+00
  1.60000000E+01  1.00800000E+00  1.00800000E+00  1.60000000E+01  1.00800000E+00
  1.00800000E+00  1.60000000E+01  1.00800000E+00  1.00800000E+00  1.60000000E+01
  1.00800000E+00  1.00800000E+00  1.60000000E+01  1.00800000E+00  1.00800000E+00
  1.60000000E+01  1.00800000E+00  1.00800000E+00  1.60000000E+01  1.00800000E+00
  1.00800000E+00  1.60000000E+01  1.00800000E+00  1.00800000E+00  1.60000000E+01
  1.00800000E+00  1.00800000E+00  1.60000000E+01  1.00800000E+00  1.00800000E+00
  1.60000000E+01  1.00800000E+00  1.00800000E+00  1.60000000E+01  1.00800000E+00
  1.00800000E+00  1.60000000E+01  1.00800000E+00  1.00800000E+00  1.60000000E+01
  1.00800000E+00  1.00800000E+00  1.60000000E+01  1.00800000E+00  1.00800000E+00
  1.60000000E+01  1.00800000E+00  1.00800000E+00  1.60000000E+01  1.00800000E+00
  1.00800000E+00  1.60000000E+01  1.00800000E+00  1.00800000E+00  1.60000000E+01
  1.00800000E+00  1.00800000E+00  1.60000000E+01  1.00800000E+00  1.00800000E+00
  1.60000000E+01  1.00800000E+00  1.00800000E+00  1.60000000E+01  1.00800000E+00
  1.00800000E+00  1.60000000E+01  1.00800000E+00  1.00800000E+00  1.60000000E+01
  1.00800000E+00  1.00800000E+00  1.60000000E+01  1.00800000E+00  1.00800000E+00
  1.60000000E+01  1.00800000E+00  1.00800000E+00  1.60000000E+01  1.00800000E+00
  1.00800000E+00  1.60000000E+01  1.00800000E+00  1.00800000E+00  1.60000000E+01
  1.00800000E+00  1.00800000E+00  1.60000000E+01  1.00800000E+00  1.00800000E+00
  1.60000000E+01  1.00800000E+00  1.00800000E+00  1.60000000E+01  1.00800000E+00
  1.00800000E+00  1.60000000E+01  1.00800000E+00  1.00800000E+00  1.60000000E+01
  1.00800000E+00  1.00800000E+00  1.60000000E+01  1.00800000E+00  1.00800000E+00
  1.60000000E+01  1.00800000E+00  1.00800000E+00  1.60000000E+01  1.00800000E+00
  1.00800000E+00  1.60000000E+01  1.00800000E+00  1.00800000E+00  1.60000000E+01
  1.00800000E+00  1.00800000E+00  1.60000000E+01  1.00800000E+00  1.00800000E+00
  1.60000000E+01  1.00800000E+00  1.00800000E+00  1.60000000E+01  1.00800000E+00
  1.00800000E+00  1.60000000E+01  1.00800000E+00  1.00800000E+00  1.60000000E+01
  1.00800000E+00  1.00800000E+00  1.60000000E+01  1.00800000E+00  1.00800000E+00
  1.60000000E+01  1.00800000E+00  1.00800000E+00  1.60000000E+01  1.00800000E+00
  1.00800000E+00  1.60000000E+01  1.00800000E+00  1.00800000E+00  1.60000000E+01
  1.00800000E+00  1.00800000E+00  1.60000000E+01  1.00800000E+00  1.00800000E+00
  1.60000000E+01  1.00800000E+00  1.00800000E+00  1.60000000E+01  1.00800000E+00
  1.00800000E+00  1.60000000E+01  1.00800000E+00  1.00800000E+00  1.60000000E+01
  1.00800000E+00  1.00800000E+00  1.60000000E+01  1.00800000E+00  1.00800000E+00
  1.60000000E+01  1.00800000E+00  1.00800000E+00  1.60000000E+01  1.00800000E+00
  1.00800000E+00  1.60000000E+01  1.00800000E+00  1.00800000E+00  1.60000000E+01
  1.00800000E+00  1.00800000E+00  1.60000000E+01  1.00800000E+00  1.00800000E+00
  1.60000000E+01  1.00800000E+00  1.00800000E+00  1.60000000E+01  1.00800000E+00
  1.00800000E+00  1.60000000E+01  1.00800000E+00  1.00800000E+00  1.60000000E+01
  1.00800000E+00  1.00800000E+00  1.60000000E+01  1.00800000E+00  1.00800000E+00
  1.60000000E+01  1.00800000E+00  1.00800000E+00  1.60000000E+01  1.00800000E+00
  1.00800000E+00  1.60000000E+01  1.00800000E+00  1.00800000E+00  1.60000000E+01
  1.00800000E+00  1.00800000E+00  1.60000000E+01  1.00800000E+00  1.00800000E+00
  1.60000000E+01  1.00800000E+00  1.00800000E+00  1.60000000E+01  1.00800000E+00
  1.00800000E+00  1.60000000E+01  1.00800000E+00  1.00800000E+00  1.60000000E+01
  1.00800000E+00  1.00800000E+00  1.60000000E+01  1.00800000E+00  1.00800000E+00
  1.60000000E+01  1.00800000E+00  1.00800000E+00  1.60000000E+01  1.00800000E+00
  1.00800000E+00  1.60000000E+01  1.00800000E+00  1.00800000E+00  1.60000000E+01
  1.00800000E+00  1.00800000E+00  1.60000000E+01  1.00800000E+00  1.00800000E+00
  1.60000000E+01  1.00800000E+00  1.00800000E+00  1.60000000E+01  1.00800000E+00
  1.00800000E+00  1.60000000E+01  1.00800000E+00  1.00800000E+00  1.60000000E+01
  1.00800000E+00  1.00800000E+00  1.60000000E+01  1.00800000E+00  1.00800000E+00
  1.60000000E+01  1.00800000E+00  1.00800000E+00  1.60000000E+01  1.00800000E+00
  1.00800000E+00  1.60000000E+01  1.00800000E+00  1.00800000E+00  1.60000000E+01
  1.00800000E+00  1.00800000E+00  1.60000000E+01  1.00800000E+00  1.00800000E+00
  1.60000000E+01  1.00800000E+00  1.00800000E+00  1.60000000E+01  1.00800000E+00
  1.00800000E+00  1.60000000E+01  1.00800000E+00  1.00800000E+00  1.60000000E+01
  1.00800000E+00  1.00800000E+00  1.60000000E+01  1.00800000E+00  1.00800000E+00
  1.60000000E+01  1.00800000E+00  1.00800000E+00  1.60000000E+01  1.00800000E+00
  1.00800000E+00  1.60000000E+01  1.00800000E+00  1.00800000E+00  1.60000000E+01
  1.00800000E+00  1.00800000E+00  1.60000000E+01  1.00800000E+00  1.00800000E+00
  1.60000000E+01  1.00800000E+00  1.00800000E+00  1.60000000E+01  1.00800000E+00
  1.00800000E+00  1.60000000E+01  1.00800000E+00  1.00800000E+00  1.60000000E+01
  1.00800000E+00  1.00800000E+00  1.60000000E+01  1.00800000E+00  1.00800000E+00
  1.60000000E+01  1.00800000E+00  1.00800000E+00  1.60000000E+01  1.00800000E+00
  1.00800000E+00  1.60000000E+01  1.00800000E+00  1.00800000E+00  1.60000000E+01
  1.00800000E+00  1.00800000E+00  1.60000000E+01  1.00800000E+00  1.00800000E+00
  1.60000000E+01  1.00800000E+00  1.00800000E+00  1.60000000E+01  1.00800000E+00
  1.00800000E+00  1.60000000E+01  1.00800000E+00  1.00800000E+00  1.60000000E+01
  1.00800000E+00  1.00800000E+00  1.60000000E+01  1.00800000E+00  1.00800000E+00
  1.60000000E+01  1.00800000E+00  1.00800000E+00  1.60000000E+01  1.00800000E+00
  1.00800000E+00  1.60000000E+01  1.00800000E+00  1.00800000E+00  1.60000000E+01
  1.00800000E+00  1.00800000E+00  1.60000000E+01  1.00800000E+00  1.00800000E+00
  1.60000000E+01  1.00800000E+00  1.00800000E+00  1.60000000E+01  1.00800000E+00
  1.00800000E+00  1.60000000E+01  1.00800000E+00  1.00800000E+00  1.60000000E+01
  1.00800000E+00  1.00800000E+00  1.60000000E+01  1.00800000E+00  1.00800000E+00
  1.60000000E+01  1.00800000E+00  1.00800000E+00  1.60000000E+01  1.00800000E+00
  1.00800000E+00  1.60000000E+01  1.00800000E+00  1.00800000E+00  1.60000000E+01
  1.00800000E+00  1.00800000E+00  1.60000000E+01  1.00800000E+00  1.00800000E+00
  1.60000000E+01  1.00800000E+00  1.00800000E+00  1.60000000E+01  1.00800000E+00
  1.00800000E+00  1.60000000E+01  1.00800000E+00  1.00800000E+00  1.60000000E+01
  1.00800000E+00  1.00800000E+00  1.60000000E+01  1.00800000E+00  1.00800000E+00
  1.60000000E+01  1.00800000E+00  1.00800000E+00  1.60000000E+01  1.00800000E+00
  1.00800000E+00  1.60000000E+01  1.00800000E+00  1.00800000E+00  1.60000000E+01
  1.00800000E+00  1.00800000E+00  1.60000000E+01  1.00800000E+00  1.00800000E+00
  1.60000000E+01  1.00800000E+00  1.00800000E+00  1.60000000E+01  1.00800000E+00
  1.00800000E+00  1.60000000E+01  1.00800000E+00  1.00800000E+00  1.60000000E+01
  1.00800000E+00  1.00800000E+00  1.60000000E+01  1.00800000E+00  1.00800000E+00
  1.60000000E+01  1.00800000E+00  1.00800000E+00  1.60000000E+01  1.00800000E+00
  1.00800000E+00  1.60000000E+01  1.00800000E+00  1.00800000E+00  1.60000000E+01
  1.00800000E+00  1.00800000E+00  1.60000000E+01  1.00800000E+00  1.00800000E+00
  1.60000000E+01  1.00800000E+00  1.00800000E+00  1.60000000E+01  1.00800000E+00
  1.00800000E+00  1.60000000E+01  1.00800000E+00  1.00800000E+00  1.60000000E+01
  1.00800000E+00  1.00800000E+00  1.60000000E+01  1.00800000E+00  1.00800000E+00
  1.60000000E+01  1.00800000E+00  1.00800000E+00  1.60000000E+01  1.00800000E+00
  1.00800000E+00  1.60000000E+01  1.00800000E+00  1.00800000E+00  1.60000000E+01
  1.00800000E+00  1.00800000E+00  1.60000000E+01  1.00800000E+00  1.00800000E+00
  1.60000000E+01  1.00800000E+00  1.00800000E+00  1.60000000E+01  1.00800000E+00
  1.00800000E+00  1.60000000E+01  1.00800000E+00  1.00800000E+00  1.60000000E+01
  1.00800000E+00  1.00800000E+00  1.60000000E+01  1.00800000E+00  1.00800000E+00
  1.60000000E+01  1.00800000E+00  1.00800000E+00  1.60000000E+01  1.00800000E+00
  1.00800000E+00  1.60000000E+01  1.00800000E+00  1.00800000E+00  1.60000000E+01
  1.00800000E+00  1.00800000E+00  1.60000000E+01  1.00800000E+00  1.00800000E+00
  1.60000000E+01  1.00800000E+00  1.00800000E+00  1.60000000E+01  1.00800000E+00
  1.00800000E+00  1.60000000E+01  1.00800000E+00  1.00800000E+00  1.60000000E+01
  1.00800000E+00  1.00800000E+00  1.60000000E+01  1.00800000E+00  1.00800000E+00
  1.60000000E+01  1.00800000E+00  1.00800000E+00  1.60000000E+01  1.00800000E+00
  1.00800000E+00  1.60000000E+01  1.00800000E+00  1.00800000E+00  1.60000000E+01
  1.00800000E+00  1.00800000E+00  1.60000000E+01  1.00800000E+00  1.00800000E+00
  1.60000000E+01  1.00800000E+00  1.00800000E+00  1.60000000E+01  1.00800000E+00
  1.00800000E+00  1.60000000E+01  1.00800000E+00  1.00800000E+00  1.60000000E+01
  1.00800000E+00  1.00800000E+00  1.60000000E+01  1.00800000E+00  1.00800000E+00
  1.60000000E+01  1.00800000E+00  1.00800000E+00  1.60000000E+01  1.00800000E+00
  1.00800000E+00  1.60000000E+01  1.00800000E+00  1.00800000E+00  1.60000000E+01
  1.00800000E+00  1.00800000E+00  1.60000000E+01  1.00800000E+00  1.00800000E+00
  1.60000000E+01  1.00800000E+00  1.00800000E+00  1.60000000E+01  1.00800000E+00
  1.00800000E+00  1.60000000E+01  1.00800000E+00  1.00800000E+00  1.60000000E+01
  1.00800000E+00  1.00800000E+00  1.60000000E+01  1.00800000E+00  1.00800000E+00
  1.60000000E+01  1.00800000E+00  1.00800000E+00  1.60000000E+01  1.00800000E+00
  1.00800000E+00  1.60000000E+01  1.00800000E+00  1.00800000E+00  1.60000000E+01
  1.00800000E+00  1.00800000E+00  1.60000000E+01  1.00800000E+00  1.00800000E+00
  1.60000000E+01  1.00800000E+00  1.00800000E+00  1.60000000E+01  1.00800000E+00
  1.00800000E+00  1.60000000E+01  1.00800000E+00  1.00800000E+00  1.60000000E+01
  1.00800000E+00  1.00800000E+00  1.60000000E+01  1.00800000E+00  1.00800000E+00
  1.60000000E+01  1.00800000E+00  1.00800000E+00  1.60000000E+01  1.00800000E+00
  1.00800000E+00  1.60000000E+01  1.00800000E+00  1.00800000E+00  1.60000000E+01
  1.00800000E+00  1.00800000E+00  1.60000000E+01  1.00800000E+00  1.00800000E+00
  1.60000000E+01  1.00800000E+00  1.00800000E+00  1.60000000E+01  1.00800000E+00
  1.00800000E+00  1.60000000E+01  1.00800000E+00  1.00800000E+00  1.60000000E+01
  1.00800000E+00  1.00800000E+00  1.60000000E+01  1.00800000E+00  1.00800000E+00
  1.60000000E+01  1.00800000E+00  1.00800000E+00  1.60000000E+01  1.00800000E+00
  1.00800000E+00  1.60000000E+01  1.00800000E+00  1.00800000E+00  1.60000000E+01
  1.00800000E+00  1.00800000E+00  1.60000000E+01  1.00800000E+00  1.00800000E+00
  1.60000000E+01  1.00800000E+00  1.00800000E+00  1.60000000E+01  1.00800000E+00
  1.00800000E+00  1.60000000E+01  1.00800000E+00  1.00800000E+00  1.60000000E+01
  1.00800000E+00  1.00800000E+00  1.60000000E+01  1.00800000E+00  1.00800000E+00
  1.60000000E+01  1.00800000E+00  1.00800000E+00  1.60000000E+01  1.00800000E+00
  1.00800000E+00  1.60000000E+01  1.00800000E+00  1.00800000E+00  1.60000000E+01
  1.00800000E+00  1.00800000E+00  1.60000000E+01  1.00800000E+00  1.00800000E+00
  1.60000000E+01  1.00800000E+00  1.00800000E+00  1.60000000E+01  1.00800000E+00
  1.00800000E+00  1.60000000E+01  1.00800000E+00  1.00800000E+00  1.60000000E+01
  1.00800000E+00  1.00800000E+00  1.60000000E+01  1.00800000E+00  1.00800000E+00
  1.60000000E+01  1.00800000E+00  1.00800000E+00  1.60000000E+01  1.00800000E+00
  1.00800000E+00  1.60000000E+01  1.00800000E+00  1.00800000E+00  1.60000000E+01
  1.00800000E+00  1.00800000E+00  1.60000000E+01  1.00800000E+00  1.00800000E+00
  1.60000000E+01  1.00800000E+00  1.00800000E+00  1.60000000E+01  1.00800000E+00
  1.00800000E+00  1.60000000E+01  1.00800000E+00  1.00800000E+00  1.60000000E+01
  1.00800000E+00  1.00800000E+00  1.60000000E+01  1.00800000E+00  1.00800000E+00
  1.60000000E+01  1.00800000E+00  1.00800000E+00  1.60000000E+01  1.00800000E+00
  1.00800000E+00  1.60000000E+01  1.00800000E+00  1.00800000E+00  1.60000000E+01
  1.00800000E+00  1.00800000E+00  1.60000000E+01  1.00800000E+00  1.00800000E+00
  1.60000000E+01  1.00800000E+00  1.00800000E+00  1.60000000E+01  1.00800000E+00
  1.00800000E+00  1.60000000E+01  1.00800000E+00  1.00800000E+00  1.60000000E+01
  1.00800000E+00  1.00800000E+00  1.60000000E+01  1.00800000E+00  1.00800000E+00
  1.60000000E+01  1.00800000E+00  1.00800000E+00  1.60000000E+01  1.00800000E+00
  1.00800000E+00  1.60000000E+01  1.00800000E+00  1.00800000E+00  1.60000000E+01
  1.00800000E+00  1.00800000E+00  1.60000000E+01  1.00800000E+00  1.00800000E+00
  1.60000000E+01  1.00800000E+00  1.00800000E+00  1.60000000E+01  1.00800000E+00
  1.00800000E+00  1.60000000E+01  1.00800000E+00  1.00800000E+00  1.60000000E+01
  1.00800000E+00  1.00800000E+00  1.60000000E+01  1.00800000E+00  1.00800000E+00
  1.60000000E+01  1.00800000E+00  1.00800000E+00  1.60000000E+01  1.00800000E+00
  1.00800000E+00  1.60000000E+01  1.00800000E+00  1.00800000E+00  1.60000000E+01
  1.00800000E+00  1.00800000E+00  1.60000000E+01  1.00800000E+00  1.00800000E+00
  1.60000000E+01  1.00800000E+00  1.00800000E+00  1.60000000E+01  1.00800000E+00
  1.00800000E+00  1.60000000E+01  1.00800000E+00  1.00800000E+00  1.60000000E+01
  1.00800000E+00  1.00800000E+00  1.60000000E+01  1.00800000E+00  1.00800000E+00
  1.60000000E+01  1.00800000E+00  1.00800000E+00  1.60000000E+01  1.00800000E+00
  1.00800000E+00  1.60000000E+01  1.00800000E+00  1.00800000E+00  1.60000000E+01
  1.00800000E+00  1.00800000E+00  1.60000000E+01  1.00800000E+00  1.00800000E+00
  1.60000000E+01  1.00800000E+00  1.00800000E+00  1.60000000E+01  1.00800000E+00
  1.00800000E+00  1.60000000E+01  1.00800000E+00  1.00800000E+00  1.60000000E+01
  1.00800000E+00  1.00800000E+00  1.60000000E+01  1.00800000E+00  1.00800000E+00
  1.60000000E+01  1.00800000E+00  1.00800000E+00  1.60000000E+01  1.00800000E+00
  1.00800000E+00  1.60000000E+01  1.00800000E+00  1.00800000E+00  1.60000000E+01
  1.00800000E+00  1.00800000E+00  1.60000000E+01  1.00800000E+00  1.00800000E+00
  1.60000000E+01  1.00800000E+00  1.00800000E+00  1.60000000E+01  1.00800000E+00
  1.00800000E+00  1.60000000E+01  1.00800000E+00  1.00800000E+00  1.60000000E+01
  1.00800000E+00  1.00800000E+00  1.60000000E+01  1.00800000E+00  1.00800000E+00
  1.60000000E+01  1.00800000E+00  1.00800000E+00  1.60000000E+01  1.00800000E+00
  1.00800000E+00  1.60000000E+01  1.00800000E+00  1.00800000E+00  1.60000000E+01
  1.00800000E+00  1.00800000E+00  1.60000000E+01  1.00800000E+00  1.00800000E+00
  1.60000000E+01  1.00800000E+00  1.00800000E+00  1.60000000E+01  1.00800000E+00
  1.00800000E+00  1.60000000E+01  1.00800000E+00  1.00800000E+00  1.60000000E+01
  1.00800000E+00  1.00800000E+00  1.60000000E+01  1.00800000E+00  1.00800000E+00
  1.60000000E+01  1.00800000E+00  1.00800000E+00  1.60000000E+01  1.00800000E+00
  1.00800000E+00  1.60000000E+01  1.00800000E+00  1.00800000E+00  1.60000000E+01
  1.00800000E+00  1.00800000E+00  1.60000000E+01  1.00800000E+00  1.00800000E+00
  1.60000000E+01  1.00800000E+00  1.00800000E+00  1.60000000E+01  1.00800000E+00
  1.00800000E+00  1.60000000E+01  1.00800000E+00  1.00800000E+00  1.60000000E+01
  1.00800000E+00  1.00800000E+00  1.60000000E+01  1.00800000E+00  1.00800000E+00
  1.60000000E+01  1.00800000E+00  1.00800000E+00  1.60000000E+01  1.00800000E+00
  1.00800000E+00  1.60000000E+01  1.00800000E+00  1.00800000E+00  1.60000000E+01
  1.00800000E+00  1.00800000E+00  1.60000000E+01  1.00800000E+00  1.00800000E+00
  1.60000000E+01  1.00800000E+00  1.00800000E+00  1.60000000E+01  1.00800000E+00
  1.00800000E+00  1.60000000E+01  1.00800000E+00  1.00800000E+00  1.60000000E+01
  1.00800000E+00  1.00800000E+00  1.60000000E+01  1.00800000E+00  1.00800000E+00
  1.60000000E+01  1.00800000E+00  1.00800000E+00  1.60000000E+01  1.00800000E+00
  1.00800000E+00  1.60000000E+01  1.00800000E+00  1.00800000E+00  1.60000000E+01
  1.00800000E+00  1.00800000E+00  1.60000000E+01  1.00800000E+00  1.00800000E+00
  1.60000000E+01  1.00800000E+00  1.00800000E+00  1.60000000E+01  1.00800000E+00
  1.00800000E+00  1.60000000E+01  1.00800000E+00  1.00800000E+00  1.60000000E+01
  1.00800000E+00  1.00800000E+00  1.60000000E+01  1.00800000E+00  1.00800000E+00
  1.60000000E+01  1.00800000E+00  1.00800000E+00  1.60000000E+01  1.00800000E+00
  1.00800000E+00  1.60000000E+01  1.00800000E+00  1.00800000E+00  1.60000000E+01
  1.00800000E+00  1.00800000E+00  1.60000000E+01  1.00800000E+00  1.00800000E+00
  1.60000000E+01  1.00800000E+00  1.00800000E+00  1.60000000E+01  1.00800000E+00
  1.00800000E+00  1.60000000E+01  1.00800000E+00  1.00800000E+00  1.60000000E+01
  1.00800000E+00  1.00800000E+00  1.60000000E+01  1.00800000E+00  1.00800000E+00
  1.60000000E+01  1.00800000E+00  1.00800000E+00  1.60000000E+01  1.00800000E+00
  1.00800000E+00  1.60000000E+01  1.00800000E+00  1.00800000E+00  1.60000000E+01
  1.00800000E+00  1.00800000E+00  1.60000000E+01  1.00800000E+00  1.00800000E+00
  1.60000000E+01  1.00800000E+00  1.00800000E+00  1.60000000E+01  1.00800000E+00
  1.00800000E+00  1.60000000E+01  1.00800000E+00  1.00800000E+00  1.60000000E+01
  1.00800000E+00  1.00800000E+00  1.60000000E+01  1.00800000E+00  1.00800000E+00
  1.60000000E+01  1.00800000E+00  1.00800000E+00  1.60000000E+01  1.00800000E+00
  1.00800000E+00  1.60000000E+01  1.00800000E+00  1.00800000E+00  1.60000000E+01
  1.00800000E+00  1.00800000E+00  1.60000000E+01  1.00800000E+00  1.00800000E+00
  1.60000000E+01  1.00800000E+00  1.00800000E+00  1.60000000E+01  1.00800000E+00
  1.00800000E+00  1.60000000E+01  1.00800000E+00  1.00800000E+00  1.60000000E+01
  1.00800000E+00  1.00800000E+00  1.60000000E+01  1.00800000E+00  1.00800000E+00
  1.60000000E+01  1.00800000E+00  1.00800000E+00  1.60000000E+01  1.00800000E+00
  1.00800000E+00  1.60000000E+01  1.00800000E+00  1.00800000E+00  1.60000000E+01
  1.00800000E+00  1.00800000E+00  1.60000000E+01  1.00800000E+00  1.00800000E+00
  1.60000000E+01  1.00800000E+00  1.00800000E+00  1.60000000E+01  1.00800000E+00
  1.00800000E+00  1.60000000E+01  1.00800000E+00  1.00800000E+00  1.60000000E+01
  1.00800000E+00  1.00800000E+00  1.60000000E+01  1.00800000E+00  1.00800000E+00
  1.60000000E+01  1.00800000E+00  1.00800000E+00  1.60000000E+01  1.00800000E+00
  1.00800000E+00  1.60000000E+01  1.00800000E+00  1.00800000E+00  1.60000000E+01
  1.00800000E+00  1.00800000E+00  1.60000000E+01  1.00800000E+00  1.00800000E+00
  1.60000000E+01  1.00800000E+00  1.00800000E+00  1.60000000E+01  1.00800000E+00
  1.00800000E+00  1.60000000E+01  1.00800000E+00  1.00800000E+00  1.60000000E+01
  1.00800000E+00  1.00800000E+00  1.60000000E+01  1.00800000E+00  1.00800000E+00
  1.60000000E+01  1.00800000E+00  1.00800000E+00  1.60000000E+01  1.00800000E+00
  1.00800000E+00  1.60000000E+01  1.00800000E+00  1.00800000E+00  1.60000000E+01
  1.00800000E+00  1.00800000E+00  1.60000000E+01  1.00800000E+00  1.00800000E+00
  1.60000000E+01  1.00800000E+00  1.00800000E+00  1.60000000E+01  1.00800000E+00
  1.00800000E+00  1.60000000E+01  1.00800000E+00  1.00800000E+00  1.60000000E+01
  1.00800000E+00  1.00800000E+00  1.60000000E+01  1.00800000E+00  1.00800000E+00
  1.60000000E+01  1.00800000E+00  1.00800000E+00  1.60000000E+01  1.00800000E+00
  1.00800000E+00  1.60000000E+01  1.00800000E+00  1.00800000E+00  1.60000000E+01
  1.00800000E+00  1.00800000E+00  1.60000000E+01  1.00800000E+00  1.00800000E+00
  1.60000000E+01  1.00800000E+00  1.00800000E+00  1.60000000E+01  1.00800000E+00
  1.00800000E+00  1.60000000E+01  1.00800000E+00  1.00800000E+00  1.60000000E+01
  1.00800000E+00  1.00800000E+00  1.60000000E+01  1.00800000E+00  1.00800000E+00
  1.60000000E+01  1.00800000E+00  1.00800000E+00  1.60000000E+01  1.00800000E+00
  1.00800000E+00  1.60000000E+01  1.00800000E+00  1.00800000E+00  1.60000000E+01
  1.00800000E+00  1.00800000E+00  1.60000000E+01  1.00800000E+00  1.00800000E+00
  1.60000000E+01  1.00800000E+00  1.00800000E+00  1.60000000E+01  1.00800000E+00
  1.00800000E+00  1.60000000E+01  1.00800000E+00  1.00800000E+00  1.60000000E+01
  1.00800000E+00  1.00800000E+00  1.60000000E+01  1.00800000E+00  1.00800000E+00
  1.60000000E+01  1.00800000E+00  1.00800000E+00  1.60000000E+01  1.00800000E+00
  1.00800000E+00  1.60000000E+01  1.00800000E+00  1.00800000E+00  1.60000000E+01
  1.00800000E+00  1.00800000E+00  1.60000000E+01  1.00800000E+00  1.00800000E+00
  1.60000000E+01  1.00800000E+00  1.00800000E+00  1.60000000E+01  1.00800000E+00
  1.00800000E+00  1.60000000E+01  1.00800000E+00  1.00800000E+00  1.60000000E+01
  1.00800000E+00  1.00800000E+00  1.60000000E+01  1.00800000E+00  1.00800000E+00
  1.60000000E+01  1.00800000E+00  1.00800000E+00  1.60000000E+01  1.00800000E+00
  1.00800000E+00  1.60000000E+01  1.00800000E+00  1.00800000E+00  1.60000000E+01
  1.00800000E+00  1.00800000E+00  1.60000000E+01  1.00800000E+00  1.00800000E+00
  1.60000000E+01  1.00800000E+00  1.00800000E+00  1.60000000E+01  1.00800000E+00
  1.00800000E+00  1.60000000E+01  1.00800000E+00  1.00800000E+00  1.60000000E+01
  1.00800000E+00  1.00800000E+00  1.60000000E+01  1.00800000E+00  1.00800000E+00
  1.60000000E+01  1.00800000E+00  1.00800000E+00  1.60000000E+01  1.00800000E+00
  1.00800000E+00  1.60000000E+01  1.00800000E+00  1.00800000E+00  1.60000000E+01
  1.00800000E+00  1.00800000E+00  1.60000000E+01  1.00800000E+00  1.00800000E+00
  1.60000000E+01  1.00800000E+00  1.00800000E+00  1.60000000E+01  1.00800000E+00
  1.00800000E+00  1.60000000E+01  1.00800000E+00  1.00800000E+00  1.60000000E+01
  1.00800000E+00  1.00800000E+00  1.60000000E+01  1.00800000E+00  1.00800000E+00
  1.60000000E+01  1.00800000E+00  1.00800000E+00  1.60000000E+01  1.00800000E+00
  1.00800000E+00  1.60000000E+01  1.00800000E+00  1.00800000E+00  1.60000000E+01
  1.00800000E+00  1.00800000E+00  1.60000000E+01  1.00800000E+00  1.00800000E+00
  1.60000000E+01  1.00800000E+00  1.00800000E+00  1.60000000E+01  1.00800000E+00
  1.00800000E+00  1.60000000E+01  1.00800000E+00  1.00800000E+00  1.60000000E+01
  1.00800000E+00  1.00800000E+00  1.60000000E+01  1.00800000E+00  1.00800000E+00
  1.60000000E+01  1.00800000E+00  1.00800000E+00  1.60000000E+01  1.00800000E+00
  1.00800000E+00  1.60000000E+01  1.00800000E+00  1.00800000E+00  1.60000000E+01
  1.00800000E+00  1.00800000E+00  1.60000000E+01  1.00800000E+00  1.00800000E+00
  1.60000000E+01  1.00800000E+00  1.00800000E+00  1.60000000E+01  1.00800000E+00
  1.00800000E+00  1.60000000E+01  1.00800000E+00  1.00800000E+00  1.60000000E+01
  1.00800000E+00  1.00800000E+00  1.60000000E+01  1.00800000E+00  1.00800000E+00
  1.60000000E+01  1.00800000E+00  1.00800000E+00  1.60000000E+01  1.00800000E+00
  1.00800000E+00  1.60000000E+01  1.00800000E+00  1.00800000E+00  1.60000000E+01
  1.00800000E+00  1.00800000E+00  1.60000000E+01  1.00800000E+00  1.00800000E+00
  1.60000000E+01  1.00800000E+00  1.00800000E+00  1.60000000E+01  1.00800000E+00
  1.00800000E+00  1.60000000E+01  1.00800000E+00  1.00800000E+00  1.60000000E+01
  1.00800000E+00  1.00800000E+00  1.60000000E+01  1.00800000E+00  1.00800000E+00
  1.60000000E+01  1.00800000E+00  1.00800000E+00  1.60000000E+01  1.00800000E+00
  1.00800000E+00  1.60000000E+01  1.00800000E+00  1.00800000E+00  1.60000000E+01
  1.00800000E+00  1.00800000E+00  1.60000000E+01  1.00800000E+00  1.00800000E+00
  1.60000000E+01  1.00800000E+00  1.00800000E+00  1.60000000E+01  1.00800000E+00
  1.00800000E+00  1.60000000E+01  1.00800000E+00  1.00800000E+00  1.60000000E+01
  1.00800000E+00  1.00800000E+00  1.60000000E+01  1.00800000E+00  1.00800000E+00
  1.60000000E+01  1.00800000E+00  1.00800000E+00  1.60000000E+01  1.00800000E+00
  1.00800000E+00  1.60000000E+01  1.00800000E+00  1.00800000E+00  1.60000000E+01
  1.00800000E+00  1.00800000E+00  1.60000000E+01  1.00800000E+00  1.00800000E+00
  1.60000000E+01  1.00800000E+00  1.00800000E+00  1.60000000E+01  1.00800000E+00
  1.00800000E+00  1.60000000E+01  1.00800000E+00  1.00800000E+00  1.60000000E+01
  1.00800000E+00  1.00800000E+00  1.60000000E+01  1.00800000E+00  1.00800000E+00
  1.60000000E+01  1.00800000E+00  1.00800000E+00  1.60000000E+01  1.00800000E+00
  1.00800000E+00  1.60000000E+01  1.00800000E+00  1.00800000E+00  1.60000000E+01
  1.00800000E+00  1.00800000E+00  1.60000000E+01  1.00800000E+00  1.00800000E+00
  1.60000000E+01  1.00800000E+00  1.00800000E+00  1.60000000E+01  1.00800000E+00
  1.00800000E+00  1.60000000E+01  1.00800000E+00  1.00800000E+00  1.60000000E+01
  1.00800000E+00  1.00800000E+00  1.60000000E+01  1.00800000E+00  1.00800000E+00
  1.60000000E+01  1.00800000E+00  1.00800000E+00  1.60000000E+01  1.00800000E+00
  1.00800000E+00  1.60000000E+01  1.00800000E+00  1.00800000E+00  1.60000000E+01
  1.00800000E+00  1.00800000E+00  1.60000000E+01  1.00800000E+00  1.00800000E+00
  1.60000000E+01  1.00800000E+00  1.00800000E+00  1.60000000E+01  1.00800000E+00
  1.00800000E+00  1.60000000E+01  1.00800000E+00  1.00800000E+00  1.60000000E+01
  1.00800000E+00  1.00800000E+00  1.60000000E+01  1.00800000E+00  1.00800000E+00
  1.60000000E+01  1.00800000E+00  1.00800000E+00  1.60000000E+01  1.00800000E+00
  1.00800000E+00  1.60000000E+01  1.00800000E+00  1.00800000E+00  1.60000000E+01
  1.00800000E+00  1.00800000E+00  1.60000000E+01  1.00800000E+00  1.00800000E+00
  1.60000000E+01  1.00800000E+00  1.00800000E+00  1.60000000E+01  1.00800000E+00
  1.00800000E+00  1.60000000E+01  1.00800000E+00  1.00800000E+00  1.60000000E+01
  1.00800000E+00  1.00800000E+00  1.60000000E+01  1.00800000E+00  1.00800000E+00
  1.60000000E+01  1.00800000E+00  1.00800000E+00  1.60000000E+01  1.00800000E+00
  1.00800000E+00  1.60000000E+01  1.00800000E+00  1.00800000E+00  1.60000000E+01
  1.00800000E+00  1.00800000E+00  1.60000000E+01  1.00800000E+00  1.00800000E+00
  1.60000000E+01  1.00800000E+00  1.00800000E+00  1.60000000E+01  1.00800000E+00
  1.00800000E+00  1.60000000E+01  1.00800000E+00  1.00800000E+00  1.60000000E+01
  1.00800000E+00  1.00800000E+00  1.60000000E+01  1.00800000E+00  1.00800000E+00
  1.60000000E+01  1.00800000E+00  1.00800000E+00  1.60000000E+01  1.00800000E+00
  1.00800000E+00  1.60000000E+01  1.00800000E+00  1.00800000E+00  1.60000000E+01
  1.00800000E+00  1.00800000E+00  1.60000000E+01  1.00800000E+00  1.00800000E+00
  1.60000000E+01  1.00800000E+00  1.00800000E+00  1.60000000E+01  1.00800000E+00
  1.00800000E+00  1.60000000E+01  1.00800000E+00  1.00800000E+00  1.60000000E+01
  1.00800000E+00  1.00800000E+00  1.60000000E+01  1.00800000E+00  1.00800000E+00
  1.60000000E+01  1.00800000E+00  1.00800000E+00  1.60000000E+01  1.00800000E+00
  1.00800000E+00  1.60000000E+01  1.00800000E+00  1.00800000E+00  1.60000000E+01
  1.00800000E+00  1.00800000E+00  1.60000000E+01  1.00800000E+00  1.00800000E+00
  1.60000000E+01  1.00800000E+00  1.00800000E+00  1.60000000E+01  1.00800000E+00
  1.00800000E+00  1.60000000E+01  1.00800000E+00  1.00800000E+00  1.60000000E+01
  1.00800000E+00  1.00800000E+00  1.60000000E+01  1.00800000E+00  1.00800000E+00
  1.60000000E+01  1.00800000E+00  1.00800000E+00  1.60000000E+01  1.00800000E+00
  1.00800000E+00  1.60000000E+01  1.00800000E+00  1.00800000E+00  1.60000000E+01
  1.00800000E+00  1.00800000E+00  1.60000000E+01  1.00800000E+00  1.00800000E+00
  1.60000000E+01  1.00800000E+00  1.00800000E+00  1.60000000E+01  1.00800000E+00
  1.00800000E+00  1.60000000E+01  1.00800000E+00  1.00800000E+00  1.60000000E+01
  1.00800000E+00  1.00800000E+00  1.60000000E+01  1.00800000E+00  1.00800000E+00
  1.60000000E+01  1.00800000E+00  1.00800000E+00  1.60000000E+01  1.00800000E+00
  1.00800000E+00  1.60000000E+01  1.00800000E+00  1.00800000E+00  1.60000000E+01
  1.00800000E+00  1.00800000E+00  1.60000000E+01  1.00800000E+00  1.00800000E+00
  1.60000000E+01  1.00800000E+00  1.00800000E+00  1.60000000E+01  1.00800000E+00
  1.00800000E+00  1.60000000E+01  1.00800000E+00  1.00800000E+00  1.60000000E+01
  1.00800000E+00  1.00800000E+00  1.60000000E+01  1.00800000E+00  1.00800000E+00
  1.60000000E+01  1.00800000E+00  1.00800000E+00  1.60000000E+01  1.00800000E+00
  1.00800000E+00  1.60000000E+01  1.00800000E+00  1.00800000E+00  1.60000000E+01
  1.00800000E+00  1.00800000E+00  1.60000000E+01  1.00800000E+00  1.00800000E+00
  1.60000000E+01  1.00800000E+00  1.00800000E+00  1.60000000E+01  1.00800000E+00
  1.00800000E+00  1.60000000E+01  1.00800000E+00  1.00800000E+00  1.60000000E+01
  1.00800000E+00  1.00800000E+00  1.60000000E+01  1.00800000E+00  1.00800000E+00
  1.60000000E+01  1.00800000E+00  1.00800000E+00  1.60000000E+01  1.00800000E+00
  1.00800000E+00  1.60000000E+01  1.00800000E+00  1.00800000E+00  1.60000000E+01
  1.00800000E+00  1.00800000E+00  1.60000000E+01  1.00800000E+00  1.00800000E+00
  1.60000000E+01  1.00800000E+00  1.00800000E+00  1.60000000E+01  1.00800000E+00
  1.00800000E+00  1.60000000E+01  1.00800000E+00  1.00800000E+00  1.60000000E+01
  1.00800000E+00  1.00800000E+00  1.60000000E+01  1.00800000E+00  1.00800000E+00
  1.60000000E+01  1.00800000E+00  1.00800000E+00  1.60000000E+01  1.00800000E+00
  1.00800000E+00  1.60000000E+01  1.00800000E+00  1.00800000E+00  1.60000000E+01
  1.00800000E+00  1.00800000E+00  1.60000000E+01  1.00800000E+00  1.00800000E+00
  1.60000000E+01  1.00800000E+00  1.00800000E+00  1.60000000E+01  1.00800000E+00
  1.00800000E+00  1.60000000E+01  1.00800000E+00  1.00800000E+00  1.60000000E+01
  1.00800000E+00  1.00800000E+00  1.60000000E+01  1.00800000E+00  1.00800000E+00
  1.60000000E+01  1.00800000E+00  1.00800000E+00  1.60000000E+01  1.00800000E+00
  1.00800000E+00  1.60000000E+01  1.00800000E+00  1.00800000E+00  1.60000000E+01
  1.00800000E+00  1.00800000E+00  1.60000000E+01  1.00800000E+00  1.00800000E+00
  1.60000000E+01  1.00800000E+00  1.00800000E+00  1.60000000E+01  1.00800000E+00
  1.00800000E+00  1.60000000E+01  1.00800000E+00  1.00800000E+00  1.60000000E+01
  1.00800000E+00  1.00800000E+00  1.60000000E+01  1.00800000E+00  1.00800000E+00
  1.60000000E+01  1.00800000E+00  1.00800000E+00  1.60000000E+01  1.00800000E+00
  1.00800000E+00  1.60000000E+01  1.00800000E+00  1.00800000E+00  1.60000000E+01
  1.00800000E+00  1.00800000E+00  1.60000000E+01  1.00800000E+00  1.00800000E+00
  1.60000000E+01  1.00800000E+00  1.00800000E+00  1.60000000E+01  1.00800000E+00
  1.00800000E+00  1.60000000E+01  1.00800000E+00  1.00800000E+00  1.60000000E+01
  1.00800000E+00  1.00800000E+00  1.60000000E+01  1.00800000E+00  1.00800000E+00
  1.60000000E+01  1.00800000E+00  1.00800000E+00  1.60000000E+01  1.00800000E+00
  1.00800000E+00  1.60000000E+01  1.00800000E+00  1.00800000E+00  1.60000000E+01
  1.00800000E+00  1.00800000E+00  1.60000000E+01  1.00800000E+00  1.00800000E+00
  1.60000000E+01  1.00800000E+00  1.00800000E+00  1.60000000E+01  1.00800000E+00
  1.00800000E+00  1.60000000E+01  1.00800000E+00  1.00800000E+00  1.60000000E+01
  1.00800000E+00  1.00800000E+00  1.60000000E+01  1.00800000E+00  1.00800000E+00
  1.60000000E+01  1.00800000E+00  1.00800000E+00  1.60000000E+01  1.00800000E+00
  1.00800000E+00  1.60000000E+01  1.00800000E+00  1.00800000E+00  1.60000000E+01
  1.00800000E+00  1.00800000E+00  1.60000000E+01  1.00800000E+00  1.00800000E+00
  1.60000000E+01  1.00800000E+00  1.00800000E+00  1.60000000E+01  1.00800000E+00
  1.00800000E+00  1.60000000E+01  1.00800000E+00  1.00800000E+00  1.60000000E+01
  1.00800000E+00  1.00800000E+00  1.60000000E+01  1.00800000E+00  1.00800000E+00
  1.60000000E+01  1.00800000E+00  1.00800000E+00  1.60000000E+01  1.00800000E+00
  1.00800000E+00  1.60000000E+01  1.00800000E+00  1.00800000E+00  1.60000000E+01
  1.00800000E+00  1.00800000E+00  1.60000000E+01  1.00800000E+00  1.00800000E+00
  1.60000000E+01  1.00800000E+00  1.00800000E+00  1.60000000E+01  1.00800000E+00
  1.00800000E+00  1.60000000E+01  1.00800000E+00  1.00800000E+00  1.60000000E+01
  1.00800000E+00  1.00800000E+00  1.60000000E+01  1.00800000E+00  1.00800000E+00
  1.60000000E+01  1.00800000E+00  1.00800000E+00  1.60000000E+01  1.00800000E+00
  1.00800000E+00  1.60000000E+01  1.00800000E+00  1.00800000E+00  1.60000000E+01
  1.00800000E+00  1.00800000E+00  1.60000000E+01  1.00800000E+00  1.00800000E+00
  1.60000000E+01  1.00800000E+00  1.00800000E+00  1.60000000E+01  1.00800000E+00
  1.00800000E+00  1.60000000E+01  1.00800000E+00  1.00800000E+00  1.60000000E+01
  1.00800000E+00  1.00800000E+00  1.60000000E+01  1.00800000E+00  1.00800000E+00
  1.60000000E+01  1.00800000E+00  1.00800000E+00  1.60000000E+01  1.00800000E+00
  1.00800000E+00  1.60000000E+01  1.00800000E+00  1.00800000E+00  1.60000000E+01
  1.00800000E+00  1.00800000E+00  1.60000000E+01  1.00800000E+00  1.00800000E+00
  1.60000000E+01  1.00800000E+00  1.00800000E+00  1.60000000E+01  1.00800000E+00
  1.00800000E+00  1.60000000E+01  1.00800000E+00  1.00800000E+00  1.60000000E+01
  1.00800000E+00  1.00800000E+00  1.60000000E+01  1.00800000E+00  1.00800000E+00
  1.60000000E+01  1.00800000E+00  1.00800000E+00  1.60000000E+01  1.00800000E+00
  1.00800000E+00  1.60000000E+01  1.00800000E+00  1.00800000E+00  1.60000000E+01
  1.00800000E+00  1.00800000E+00  1.60000000E+01  1.00800000E+00  1.00800000E+00
  1.60000000E+01  1.00800000E+00  1.00800000E+00  1.60000000E+01  1.00800000E+00
  1.00800000E+00  1.60000000E+01  1.00800000E+00  1.00800000E+00  1.60000000E+01
  1.00800000E+00  1.00800000E+00  1.60000000E+01  1.00800000E+00  1.00800000E+00
  1.60000000E+01  1.00800000E+00  1.00800000E+00  1.60000000E+01  1.00800000E+00
  1.00800000E+00  1.60000000E+01  1.00800000E+00  1.00800000E+00  1.60000000E+01
  1.00800000E+00  1.00800000E+00  1.60000000E+01  1.00800000E+00  1.00800000E+00
  1.60000000E+01  1.00800000E+00  1.00800000E+00  1.60000000E+01  1.00800000E+00
  1.00800000E+00  1.60000000E+01  1.00800000E+00  1.00800000E+00  1.60000000E+01
  1.00800000E+00  1.00800000E+00  1.60000000E+01  1.00800000E+00  1.00800000E+00
  1.60000000E+01  1.00800000E+00  1.00800000E+00  1.60000000E+01  1.00800000E+00
  1.00800000E+00  1.60000000E+01  1.00800000E+00  1.00800000E+00  1.60000000E+01
  1.00800000E+00  1.00800000E+00  1.60000000E+01  1.00800000E+00  1.00800000E+00
  1.60000000E+01  1.00800000E+00  1.00800000E+00  1.60000000E+01  1.00800000E+00
  1.00800000E+00  1.60000000E+01  1.00800000E+00  1.00800000E+00  1.60000000E+01
  1.00800000E+00  1.00800000E+00  1.60000000E+01  1.00800000E+00  1.00800000E+00
  1.60000000E+01  1.00800000E+00  1.00800000E+00  1.60000000E+01  1.00800000E+00
  1.00800000E+00  1.60000000E+01  1.00800000E+00  1.00800000E+00  1.60000000E+01
  1.00800000E+00  1.00800000E+00  1.60000000E+01  1.00800000E+00  1.00800000E+00
  1.60000000E+01  1.00800000E+00  1.00800000E+00  1.60000000E+01  1.00800000E+00
  1.00800000E+00  1.60000000E+01  1.00800000E+00  1.00800000E+00  1.60000000E+01
  1.00800000E+00  1.00800000E+00  1.60000000E+01  1.00800000E+00  1.00800000E+00
  1.60000000E+01  1.00800000E+00  1.00800000E+00  1.60000000E+01  1.00800000E+00
  1.00800000E+00  1.60000000E+01  1.00800000E+00  1.00800000E+00  1.60000000E+01
  1.00800000E+00  1.00800000E+00  1.60000000E+01  1.00800000E+00  1.00800000E+00
  1.60000000E+01  1.00800000E+00  1.00800000E+00  1.60000000E+01  1.00800000E+00
  1.00800000E+00  1.60000000E+01  1.00800000E+00  1.00800000E+00  1.60000000E+01
  1.00800000E+00  1.00800000E+00  1.60000000E+01  1.00800000E+00  1.00800000E+00
  1.60000000E+01  1.00800000E+00  1.00800000E+00  1.60000000E+01  1.00800000E+00
  1.00800000E+00  1.60000000E+01  1.00800000E+00  1.00800000E+00  1.60000000E+01
  1.00800000E+00  1.00800000E+00  1.60000000E+01  1.00800000E+00  1.00800000E+00
  1.60000000E+01  1.00800000E+00  1.00800000E+00  1.60000000E+01  1.00800000E+00
  1.00800000E+00  1.60000000E+01  1.00800000E+00  1.00800000E+00  1.60000000E+01
  1.00800000E+00  1.00800000E+00  1.60000000E+01  1.00800000E+00  1.00800000E+00
  1.60000000E+01  1.00800000E+00  1.00800000E+00  1.60000000E+01  1.00800000E+00
  1.00800000E+00  1.60000000E+01  1.00800000E+00  1.00800000E+00  1.60000000E+01
  1.00800000E+00  1.00800000E+00  1.60000000E+01  1.00800000E+00  1.00800000E+00
  1.60000000E+01  1.00800000E+00  1.00800000E+00  1.60000000E+01  1.00800000E+00
  1.00800000E+00  1.60000000E+01  1.00800000E+00  1.00800000E+00  1.60000000E+01
  1.00800000E+00  1.00800000E+00  1.60000000E+01  1.00800000E+00  1.00800000E+00
  1.60000000E+01  1.00800000E+00  1.00800000E+00  1.60000000E+01  1.00800000E+00
  1.00800000E+00  1.60000000E+01  1.00800000E+00  1.00800000E+00  1.60000000E+01
  1.00800000E+00  1.00800000E+00  1.60000000E+01  1.00800000E+00  1.00800000E+00
  1.60000000E+01  1.00800000E+00  1.00800000E+00  1.60000000E+01  1.00800000E+00
  1.00800000E+00  1.60000000E+01  1.00800000E+00  1.00800000E+00  1.60000000E+01
  1.00800000E+00  1.00800000E+00  1.60000000E+01  1.00800000E+00  1.00800000E+00
  1.60000000E+01  1.00800000E+00  1.00800000E+00  1.60000000E+01  1.00800000E+00
  1.00800000E+00  1.60000000E+01  1.00800000E+00  1.00800000E+00  1.60000000E+01
  1.00800000E+00  1.00800000E+00  1.60000000E+01  1.00800000E+00  1.00800000E+00
  1.60000000E+01  1.00800000E+00  1.00800000E+00  1.60000000E+01  1.00800000E+00
  1.00800000E+00  1.60000000E+01  1.00800000E+00  1.00800000E+00  1.60000000E+01
  1.00800000E+00  1.00800000E+00  1.60000000E+01  1.00800000E+00  1.00800000E+00
  1.60000000E+01  1.00800000E+00  1.00800000E+00  1.60000000E+01  1.00800000E+00
  1.00800000E+00  1.60000000E+01  1.00800000E+00  1.00800000E+00  1.60000000E+01
  1.00800000E+00  1.00800000E+00  1.60000000E+01  1.00800000E+00  1.00800000E+00
  1.60000000E+01  1.00800000E+00  1.00800000E+00  1.60000000E+01  1.00800000E+00
  1.00800000E+00  1.60000000E+01  1.00800000E+00  1.00800000E+00  1.60000000E+01
  1.00800000E+00  1.00800000E+00  1.60000000E+01  1.00800000E+00  1.00800000E+00
  1.60000000E+01  1.00800000E+00  1.00800000E+00  1.60000000E+01  1.00800000E+00
  1.00800000E+00  1.60000000E+01  1.00800000E+00  1.00800000E+00  1.60000000E+01
  1.00800000E+00  1.00800000E+00  1.60000000E+01  1.00800000E+00  1.00800000E+00
  1.60000000E+01  1.00800000E+00  1.00800000E+00  1.60000000E+01  1.00800000E+00
  1.00800000E+00  1.60000000E+01  1.00800000E+00  1.00800000E+00  1.60000000E+01
  1.00800000E+00  1.00800000E+00  1.60000000E+01  1.00800000E+00  1.00800000E+00
  1.60000000E+01  1.00800000E+00  1.00800000E+00  1.60000000E+01  1.00800000E+00
  1.00800000E+00  1.60000000E+01  1.00800000E+00  1.00800000E+00  1.60000000E+01
  1.00800000E+00  1.00800000E+00  1.60000000E+01  1.00800000E+00  1.00800000E+00
  1.60000000E+01  1.00800000E+00  1.00800000E+00  1.60000000E+01  1.00800000E+00
  1.00800000E+00  1.60000000E+01  1.00800000E+00  1.00800000E+00  1.60000000E+01
  1.00800000E+00  1.00800000E+00  1.60000000E+01  1.00800000E+00  1.00800000E+00
  1.60000000E+01  1.00800000E+00  1.00800000E+00  1.60000000E+01  1.00800000E+00
  1.00800000E+00  1.60000000E+01  1.00800000E+00  1.00800000E+00  1.60000000E+01
  1.00800000E+00  1.00800000E+00  1.60000000E+01  1.00800000E+00  1.00800000E+00
  1.60000000E+01  1.00800000E+00  1.00800000E+00  1.60000000E+01  1.00800000E+00
  1.00800000E+00  1.60000000E+01  1.00800000E+00  1.00800000E+00  1.60000000E+01
  1.00800000E+00  1.00800000E+00  1.60000000E+01  1.00800000E+00  1.00800000E+00
  1.60000000E+01  1.00800000E+00  1.00800000E+00  1.60000000E+01  1.00800000E+00
  1.00800000E+00  1.60000000E+01  1.00800000E+00  1.00800000E+00  1.60000000E+01
  1.00800000E+00  1.00800000E+00  1.60000000E+01  1.00800000E+00  1.00800000E+00
  1.60000000E+01  1.00800000E+00  1.00800000E+00  1.60000000E+01  1.00800000E+00
  1.00800000E+00  1.60000000E+01  1.00800000E+00  1.00800000E+00  1.60000000E+01
  1.00800000E+00  1.00800000E+00  1.60000000E+01  1.00800000E+00  1.00800000E+00
  1.60000000E+01  1.00800000E+00  1.00800000E+00  1.60000000E+01  1.00800000E+00
  1.00800000E+00  1.60000000E+01  1.00800000E+00  1.00800000E+00  1.60000000E+01
  1.00800000E+00  1.00800000E+00  1.60000000E+01  1.00800000E+00  1.00800000E+00
  1.60000000E+01  1.00800000E+00  1.00800000E+00  1.60000000E+01  1.00800000E+00
  1.00800000E+00  1.60000000E+01  1.00800000E+00  1.00800000E+00  1.60000000E+01
  1.00800000E+00  1.00800000E+00  1.60000000E+01  1.00800000E+00  1.00800000E+00
  1.60000000E+01  1.00800000E+00  1.00800000E+00  1.60000000E+01  1.00800000E+00
  1.00800000E+00  1.60000000E+01  1.00800000E+00  1.00800000E+00  1.60000000E+01
  1.00800000E+00  1.00800000E+00  1.60000000E+01  1.00800000E+00  1.00800000E+00
  1.60000000E+01  1.00800000E+00  1.00800000E+00  1.60000000E+01  1.00800000E+00
  1.00800000E+00  1.60000000E+01  1.00800000E+00  1.00800000E+00  1.60000000E+01
  1.00800000E+00  1.00800000E+00  1.60000000E+01  1.00800000E+00  1.00800000E+00
  1.60000000E+01  1.00800000E+00  1.00800000E+00  1.60000000E+01  1.00800000E+00
  1.00800000E+00  1.60000000E+01  1.00800000E+00  1.00800000E+00  1.60000000E+01
  1.00800000E+00  1.00800000E+00  1.60000000E+01  1.00800000E+00  1.00800000E+00
  1.60000000E+01  1.00800000E+00  1.00800000E+00  1.60000000E+01  1.00800000E+00
  1.00800000E+00  1.60000000E+01  1.00800000E+00  1.00800000E+00  1.60000000E+01
  1.00800000E+00  1.00800000E+00  1.60000000E+01  1.00800000E+00  1.00800000E+00
  1.60000000E+01  1.00800000E+00  1.00800000E+00  1.60000000E+01  1.00800000E+00
  1.00800000E+00  1.60000000E+01  1.00800000E+00  1.00800000E+00  1.60000000E+01
  1.00800000E+00  1.00800000E+00  1.60000000E+01  1.00800000E+00  1.00800000E+00
  1.60000000E+01  1.00800000E+00  1.00800000E+00  1.60000000E+01  1.00800000E+00
  1.00800000E+00  1.60000000E+01  1.00800000E+00  1.00800000E+00  1.60000000E+01
  1.00800000E+00  1.00800000E+00  1.60000000E+01  1.00800000E+00  1.00800000E+00
  1.60000000E+01  1.00800000E+00  1.00800000E+00  1.60000000E+01  1.00800000E+00
  1.00800000E+00  1.60000000E+01  1.00800000E+00  1.00800000E+00  1.60000000E+01
  1.00800000E+00  1.00800000E+00  1.60000000E+01  1.00800000E+00  1.00800000E+00
  1.60000000E+01  1.00800000E+00  1.00800000E+00  1.60000000E+01  1.00800000E+00
  1.00800000E+00  1.60000000E+01  1.00800000E+00  1.00800000E+00  1.60000000E+01
  1.00800000E+00  1.00800000E+00  1.60000000E+01  1.00800000E+00  1.00800000E+00
  1.60000000E+01  1.00800000E+00  1.00800000E+00  1.60000000E+01  1.00800000E+00
  1.00800000E+00  1.60000000E+01  1.00800000E+00  1.00800000E+00  1.60000000E+01
  1.00800000E+00  1.00800000E+00  1.60000000E+01  1.00800000E+00  1.00800000E+00
  1.60000000E+01  1.00800000E+00  1.00800000E+00  1.60000000E+01  1.00800000E+00
  1.00800000E+00  1.60000000E+01  1.00800000E+00  1.00800000E+00  1.60000000E+01
  1.00800000E+00  1.00800000E+00  1.60000000E+01  1.00800000E+00  1.00800000E+00
  1.60000000E+01  1.00800000E+00  1.00800000E+00  1.60000000E+01  1.00800000E+00
  1.00800000E+00  1.60000000E+01  1.00800000E+00  1.00800000E+00  1.60000000E+01
  1.00800000E+00  1.00800000E+00  1.60000000E+01  1.00800000E+00  1.00800000E+00
  1.60000000E+01  1.00800000E+00  1.00800000E+00  1.60000000E+01  1.00800000E+00
  1.00800000E+00  1.60000000E+01  1.00800000E+00  1.00800000E+00  1.60000000E+01
  1.00800000E+00  1.00800000E+00  1.60000000E+01  1.00800000E+00  1.00800000E+00
  1.60000000E+01  1.00800000E+00  1.00800000E+00  1.60000000E+01  1.00800000E+00
  1.00800000E+00  1.60000000E+01  1.00800000E+00  1.00800000E+00  1.60000000E+01
  1.00800000E+00  1.00800000E+00  1.60000000E+01  1.00800000E+00  1.00800000E+00
  1.60000000E+01  1.00800000E+00  1.00800000E+00  1.60000000E+01  1.00800000E+00
  1.00800000E+00  1.60000000E+01  1.00800000E+00  1.00800000E+00  1.60000000E+01
  1.00800000E+00  1.00800000E+00  1.60000000E+01  1.00800000E+00  1.00800000E+00
  1.60000000E+01  1.00800000E+00  1.00800000E+00  1.60000000E+01  1.00800000E+00
  1.00800000E+00  1.60000000E+01  1.00800000E+00  1.00800000E+00  1.60000000E+01
  1.00800000E+00  1.00800000E+00  1.60000000E+01  1.00800000E+00  1.00800000E+00
  1.60000000E+01  1.00800000E+00  1.00800000E+00  1.60000000E+01  1.00800000E+00
  1.00800000E+00  1.60000000E+01  1.00800000E+00  1.00800000E+00  1.60000000E+01
  1.00800000E+00  1.00800000E+00  1.60000000E+01  1.00800000E+00  1.00800000E+00
  1.60000000E+01  1.00800000E+00  1.00800000E+00  1.60000000E+01  1.00800000E+00
  1.00800000E+00  1.60000000E+01  1.00800000E+00  1.00800000E+00  1.60000000E+01
  1.00800000E+00  1.00800000E+00  1.60000000E+01  1.00800000E+00  1.00800000E+00
  1.60000000E+01  1.00800000E+00  1.00800000E+00  1.60000000E+01  1.00800000E+00
  1.00800000E+00  1.60000000E+01  1.00800000E+00  1.00800000E+00  1.60000000E+01
  1.00800000E+00  1.00800000E+00  1.60000000E+01  1.00800000E+00  1.00800000E+00
  1.60000000E+01  1.00800000E+00  1.00800000E+00  1.60000000E+01  1.00800000E+00
  1.00800000E+00  1.60000000E+01  1.00800000E+00  1.00800000E+00  1.60000000E+01
  1.00800000E+00  1.00800000E+00  1.60000000E+01  1.00800000E+00  1.00800000E+00
  1.60000000E+01  1.00800000E+00  1.00800000E+00  1.60000000E+01  1.00800000E+00
  1.00800000E+00  1.60000000E+01  1.00800000E+00  1.00800000E+00  1.60000000E+01
  1.00800000E+00  1.00800000E+00  1.60000000E+01  1.00800000E+00  1.00800000E+00
  1.60000000E+01  1.00800000E+00  1.00800000E+00  1.60000000E+01  1.00800000E+00
  1.00800000E+00  1.60000000E+01  1.00800000E+00  1.00800000E+00  1.60000000E+01
  1.00800000E+00  1.00800000E+00  1.60000000E+01  1.00800000E+00  1.00800000E+00
  1.60000000E+01  1.00800000E+00  1.00800000E+00  1.60000000E+01  1.00800000E+00
  1.00800000E+00  1.60000000E+01  1.00800000E+00  1.00800000E+00  1.60000000E+01
  1.00800000E+00  1.00800000E+00  1.60000000E+01  1.00800000E+00  1.00800000E+00
  1.60000000E+01  1.00800000E+00  1.00800000E+00  1.60000000E+01  1.00800000E+00
  1.00800000E+00  1.60000000E+01  1.00800000E+00  1.00800000E+00  1.60000000E+01
  1.00800000E+00  1.00800000E+00  1.60000000E+01  1.00800000E+00  1.00800000E+00
  1.60000000E+01  1.00800000E+00  1.00800000E+00  1.60000000E+01  1.00800000E+00
  1.00800000E+00  1.60000000E+01  1.00800000E+00  1.00800000E+00  1.60000000E+01
  1.00800000E+00  1.00800000E+00  1.60000000E+01  1.00800000E+00  1.00800000E+00
  1.60000000E+01  1.00800000E+00  1.00800000E+00  1.60000000E+01  1.00800000E+00
  1.00800000E+00  1.60000000E+01  1.00800000E+00  1.00800000E+00  1.60000000E+01
  1.00800000E+00  1.00800000E+00  1.60000000E+01  1.00800000E+00  1.00800000E+00
  1.60000000E+01  1.00800000E+00  1.00800000E+00  1.60000000E+01  1.00800000E+00
  1.00800000E+00  1.60000000E+01  1.00800000E+00  1.00800000E+00  1.60000000E+01
  1.00800000E+00  1.00800000E+00  1.60000000E+01  1.00800000E+00  1.00800000E+00
  1.60000000E+01  1.00800000E+00  1.00800000E+00  1.60000000E+01  1.00800000E+00
  1.00800000E+00  1.60000000E+01  1.00800000E+00  1.00800000E+00  1.60000000E+01
  1.00800000E+00  1.00800000E+00  1.60000000E+01  1.00800000E+00  1.00800000E+00
  1.60000000E+01  1.00800000E+00  1.00800000E+00  1.60000000E+01  1.00800000E+00
  1.00800000E+00  1.60000000E+01  1.00800000E+00  1.00800000E+00  1.60000000E+01
  1.00800000E+00  1.00800000E+00  1.60000000E+01  1.00800000E+00  1.00800000E+00
  1.60000000E+01  1.00800000E+00  1.00800000E+00  1.60000000E+01  1.00800000E+00
  1.00800000E+00  1.60000000E+01  1.00800000E+00  1.00800000E+00  1.60000000E+01
  1.00800000E+00  1.00800000E+00  1.60000000E+01  1.00800000E+00  1.00800000E+00
  1.60000000E+01  1.00800000E+00  1.00800000E+00  1.60000000E+01  1.00800000E+00
  1.00800000E+00  1.60000000E+01  1.00800000E+00  1.00800000E+00  1.60000000E+01
  1.00800000E+00  1.00800000E+00  1.60000000E+01  1.00800000E+00  1.00800000E+00
  1.60000000E+01  1.00800000E+00  1.00800000E+00  1.60000000E+01  1.00800000E+00
  1.00800000E+00  1.60000000E+01  1.00800000E+00  1.00800000E+00  1.60000000E+01
  1.00800000E+00  1.00800000E+00  1.60000000E+01  1.00800000E+00  1.00800000E+00
  1.60000000E+01  1.00800000E+00  1.00800000E+00  1.60000000E+01  1.00800000E+00
  1.00800000E+00  1.60000000E+01  1.00800000E+00  1.00800000E+00  1.60000000E+01
  1.00800000E+00  1.00800000E+00  1.60000000E+01  1.00800000E+00  1.00800000E+00
  1.60000000E+01  1.00800000E+00  1.00800000E+00  1.60000000E+01  1.00800000E+00
  1.00800000E+00  1.60000000E+01  1.00800000E+00  1.00800000E+00  1.60000000E+01
  1.00800000E+00  1.00800000E+00  1.60000000E+01  1.00800000E+00  1.00800000E+00
  1.60000000E+01  1.00800000E+00  1.00800000E+00  1.60000000E+01  1.00800000E+00
  1.00800000E+00  1.60000000E+01  1.00800000E+00  1.00800000E+00  1.60000000E+01
  1.00800000E+00  1.00800000E+00  1.60000000E+01  1.00800000E+00  1.00800000E+00
  1.60000000E+01  1.00800000E+00  1.00800000E+00  1.60000000E+01  1.00800000E+00
  1.00800000E+00  1.60000000E+01  1.00800000E+00  1.00800000E+00  1.60000000E+01
  1.00800000E+00  1.00800000E+00  1.60000000E+01  1.00800000E+00  1.00800000E+00
  1.60000000E+01  1.00800000E+00  1.00800000E+00  1.60000000E+01  1.00800000E+00
  1.00800000E+00  1.60000000E+01  1.00800000E+00  1.00800000E+00  1.60000000E+01
  1.00800000E+00  1.00800000E+00  1.60000000E+01  1.00800000E+00  1.00800000E+00
  1.60000000E+01  1.00800000E+00  1.00800000E+00  1.60000000E+01  1.00800000E+00
  1.00800000E+00  1.60000000E+01  1.00800000E+00  1.00800000E+00  1.60000000E+01
  1.00800000E+00  1.00800000E+00  1.60000000E+01  1.00800000E+00  1.00800000E+00
  1.60000000E+01  1.00800000E+00  1.00800000E+00  1.60000000E+01  1.00800000E+00
  1.00800000E+00  1.60000000E+01  1.00800000E+00  1.00800000E+00  1.60000000E+01
  1.00800000E+00  1.00800000E+00  1.60000000E+01  1.00800000E+00  1.00800000E+00
  1.60000000E+01  1.00800000E+00  1.00800000E+00  1.60000000E+01  1.00800000E+00
  1.00800000E+00  1.60000000E+01  1.00800000E+00  1.00800000E+00  1.60000000E+01
  1.00800000E+00  1.00800000E+00  1.60000000E+01  1.00800000E+00  1.00800000E+00
  1.60000000E+01  1.00800000E+00  1.00800000E+00  1.60000000E+01  1.00800000E+00
  1.00800000E+00  1.60000000E+01  1.00800000E+00  1.00800000E+00  1.60000000E+01
  1.00800000E+00  1.00800000E+00  1.60000000E+01  1.00800000E+00  1.00800000E+00
  1.60000000E+01  1.00800000E+00  1.00800000E+00  1.60000000E+01  1.00800000E+00
  1.00800000E+00  1.60000000E+01  1.00800000E+00  1.00800000E+00  1.60000000E+01
  1.00800000E+00  1.00800000E+00  1.60000000E+01  1.00800000E+00  1.00800000E+00
  1.60000000E+01  1.00800000E+00  1.00800000E+00  1.60000000E+01  1.00800000E+00
  1.00800000E+00  1.60000000E+01  1.00800000E+00  1.00800000E+00  1.60000000E+01
  1.00800000E+00  1.00800000E+00  1.60000000E+01  1.00800000E+00  1.00800000E+00
  1.60000000E+01  1.00800000E+00  1.00800000E+00  1.60000000E+01  1.00800000E+00
  1.00800000E+00  1.60000000E+01  1.00800000E+00  1.00800000E+00  1.60000000E+01
  1.00800000E+00  1.00800000E+00  1.60000000E+01  1.00800000E+00  1.00800000E+00
  1.60000000E+01  1.00800000E+00  1.00800000E+00  1.60000000E+01  1.00800000E+00
  1.00800000E+00  1.60000000E+01  1.00800000E+00  1.00800000E+00  1.60000000E+01
  1.00800000E+00  1.00800000E+00  1.60000000E+01  1.00800000E+00  1.00800000E+00
  1.60000000E+01  1.00800000E+00  1.00800000E+00  1.60000000E+01  1.00800000E+00
  1.00800000E+00  1.60000000E+01  1.00800000E+00  1.00800000E+00  1.60000000E+01
  1.00800000E+00  1.00800000E+00  1.60000000E+01  1.00800000E+00  1.00800000E+00
  1.60000000E+01  1.00800000E+00  1.00800000E+00  1.60000000E+01  1.00800000E+00
  1.00800000E+00  1.60000000E+01  1.00800000E+00  1.00800000E+00  1.60000000E+01
  1.00800000E+00  1.00800000E+00  1.60000000E+01  1.00800000E+00  1.00800000E+00
  1.60000000E+01  1.00800000E+00  1.00800000E+00  1.60000000E+01  1.00800000E+00
  1.00800000E+00  1.60000000E+01  1.00800000E+00  1.00800000E+00  1.60000000E+01
  1.00800000E+00  1.00800000E+00  1.60000000E+01  1.00800000E+00  1.00800000E+00
  1.60000000E+01  1.00800000E+00  1.00800000E+00  1.60000000E+01  1.00800000E+00
  1.00800000E+00  1.60000000E+01  1.00800000E+00  1.00800000E+00  1.60000000E+01
  1.00800000E+00  1.00800000E+00  1.60000000E+01  1.00800000E+00  1.00800000E+00
  1.60000000E+01  1.00800000E+00  1.00800000E+00  1.60000000E+01  1.00800000E+00
  1.00800000E+00  1.60000000E+01  1.00800000E+00  1.00800000E+00  1.60000000E+01
  1.00800000E+00  1.00800000E+00  1.60000000E+01  1.00800000E+00  1.00800000E+00
  1.60000000E+01  1.00800000E+00  1.00800000E+00  1.60000000E+01  1.00800000E+00
  1.00800000E+00  1.60000000E+01  1.00800000E+00  1.00800000E+00  1.60000000E+01
  1.00800000E+00  1.00800000E+00  1.60000000E+01  1.00800000E+00  1.00800000E+00
  1.60000000E+01  1.00800000E+00  1.00800000E+00  1.60000000E+01  1.00800000E+00
  1.00800000E+00  1.60000000E+01  1.00800000E+00  1.00800000E+00  1.60000000E+01
  1.00800000E+00  1.00800000E+00  1.60000000E+01  1.00800000E+00  1.00800000E+00
  1.60000000E+01  1.00800000E+00  1.00800000E+00  1.60000000E+01  1.00800000E+00
  1.00800000E+00  1.60000000E+01  1.00800000E+00  1.00800000E+00  1.60000000E+01
  1.00800000E+00  1.00800000E+00  1.60000000E+01  1.00800000E+00  1.00800000E+00
  1.60000000E+01  1.00800000E+00  1.00800000E+00  1.60000000E+01  1.00800000E+00
  1.00800000E+00  1.60000000E+01  1.00800000E+00  1.00800000E+00  1.60000000E+01
  1.00800000E+00  1.00800000E+00  1.60000000E+01  1.00800000E+00  1.00800000E+00
  1.60000000E+01  1.00800000E+00  1.00800000E+00  1.60000000E+01  1.00800000E+00
  1.00800000E+00  1.60000000E+01  1.00800000E+00  1.00800000E+00  1.60000000E+01
  1.00800000E+00  1.00800000E+00  1.60000000E+01  1.00800000E+00  1.00800000E+00
  1.60000000E+01  1.00800000E+00  1.00800000E+00  1.60000000E+01  1.00800000E+00
  1.00800000E+00  1.60000000E+01  1.00800000E+00  1.00800000E+00  1.60000000E+01
  1.00800000E+00  1.00800000E+00  1.60000000E+01  1.00800000E+00  1.00800000E+00
  1.60000000E+01  1.00800000E+00  1.00800000E+00  1.60000000E+01  1.00800000E+00
  1.00800000E+00  1.60000000E+01  1.00800000E+00  1.00800000E+00  1.60000000E+01
  1.00800000E+00  1.00800000E+00  1.60000000E+01  1.00800000E+00  1.00800000E+00
  1.60000000E+01  1.00800000E+00  1.00800000E+00  1.60000000E+01  1.00800000E+00
  1.00800000E+00  1.60000000E+01  1.00800000E+00  1.00800000E+00  1.60000000E+01
  1.00800000E+00  1.00800000E+00  1.60000000E+01  1.00800000E+00  1.00800000E+00
  1.60000000E+01  1.00800000E+00  1.00800000E+00  1.60000000E+01  1.00800000E+00
  1.00800000E+00  1.60000000E+01  1.00800000E+00  1.00800000E+00  1.60000000E+01
  1.00800000E+00  1.00800000E+00  1.60000000E+01  1.00800000E+00  1.00800000E+00
  1.60000000E+01  1.00800000E+00  1.00800000E+00  1.60000000E+01  1.00800000E+00
  1.00800000E+00  1.60000000E+01  1.00800000E+00  1.00800000E+00  1.60000000E+01
  1.00800000E+00  1.00800000E+00  1.60000000E+01  1.00800000E+00  1.00800000E+00
  1.60000000E+01  1.00800000E+00  1.00800000E+00  1.60000000E+01  1.00800000E+00
  1.00800000E+00  1.60000000E+01  1.00800000E+00  1.00800000E+00  1.60000000E+01
  1.00800000E+00  1.00800000E+00  1.60000000E+01  1.00800000E+00  1.00800000E+00
  1.60000000E+01  1.00800000E+00  1.00800000E+00  1.60000000E+01  1.00800000E+00
  1.00800000E+00  1.60000000E+01  1.00800000E+00  1.00800000E+00  1.60000000E+01
  1.00800000E+00  1.00800000E+00  1.60000000E+01  1.00800000E+00  1.00800000E+00
  1.60000000E+01  1.00800000E+00  1.00800000E+00  1.60000000E+01  1.00800000E+00
  1.00800000E+00  1.60000000E+01  1.00800000E+00  1.00800000E+00  1.60000000E+01
  1.00800000E+00  1.00800000E+00  1.60000000E+01  1.00800000E+00  1.00800000E+00
  1.60000000E+01  1.00800000E+00  1.00800000E+00  1.60000000E+01  1.00800000E+00
  1.00800000E+00  1.60000000E+01  1.00800000E+00  1.00800000E+00  1.60000000E+01
  1.00800000E+00  1.00800000E+00  1.60000000E+01  1.00800000E+00  1.00800000E+00
  1.60000000E+01  1.00800000E+00  1.00800000E+00  1.60000000E+01  1.00800000E+00
  1.00800000E+00  1.60000000E+01  1.00800000E+00  1.00800000E+00  1.60000000E+01
  1.00800000E+00  1.00800000E+00  1.60000000E+01  1.00800000E+00  1.00800000E+00
  1.60000000E+01  1.00800000E+00  1.00800000E+00  1.60000000E+01  1.00800000E+00
  1.00800000E+00  1.60000000E+01  1.00800000E+00  1.00800000E+00  1.60000000E+01
  1.00800000E+00  1.00800000E+00  1.60000000E+01  1.00800000E+00  1.00800000E+00
  1.60000000E+01  1.00800000E+00  1.00800000E+00  1.60000000E+01  1.00800000E+00
  1.00800000E+00  1.60000000E+01  1.00800000E+00  1.00800000E+00  1.60000000E+01
  1.00800000E+00  1.00800000E+00  1.60000000E+01  1.00800000E+00  1.00800000E+00
  1.60000000E+01  1.00800000E+00  1.00800000E+00  1.60000000E+01  1.00800000E+00
  1.00800000E+00  1.60000000E+01  1.00800000E+00  1.00800000E+00  1.60000000E+01
  1.00800000E+00  1.00800000E+00  1.60000000E+01  1.00800000E+00  1.00800000E+00
  1.60000000E+01  1.00800000E+00  1.00800000E+00  1.60000000E+01  1.00800000E+00
  1.00800000E+00  1.60000000E+01  1.00800000E+00  1.00800000E+00  1.60000000E+01
  1.00800000E+00  1.00800000E+00  1.60000000E+01  1.00800000E+00  1.00800000E+00
  1.60000000E+01  1.00800000E+00  1.00800000E+00  1.60000000E+01  1.00800000E+00
  1.00800000E+00  1.60000000E+01  1.00800000E+00  1.00800000E+00  1.60000000E+01
  1.00800000E+00  1.00800000E+00  1.60000000E+01  1.00800000E+00  1.00800000E+00
  1.60000000E+01  1.00800000E+00  1.00800000E+00  1.60000000E+01  1.00800000E+00
  1.00800000E+00  1.60000000E+01  1.00800000E+00  1.00800000E+00  1.60000000E+01
  1.00800000E+00  1.00800000E+00  1.60000000E+01  1.00800000E+00  1.00800000E+00
  1.60000000E+01  1.00800000E+00  1.00800000E+00  1.60000000E+01  1.00800000E+00
  1.00800000E+00  1.60000000E+01  1.00800000E+00  1.00800000E+00  1.60000000E+01
  1.00800000E+00  1.00800000E+00  1.60000000E+01  1.00800000E+00  1.00800000E+00
  1.60000000E+01  1.00800000E+00  1.00800000E+00  1.60000000E+01  1.00800000E+00
  1.00800000E+00  1.60000000E+01  1.00800000E+00  1.00800000E+00  1.60000000E+01
  1.00800000E+00  1.00800000E+00  1.60000000E+01  1.00800000E+00  1.00800000E+00
  1.60000000E+01  1.00800000E+00  1.00800000E+00  1.60000000E+01  1.00800000E+00
  1.00800000E+00  1.60000000E+01  1.00800000E+00  1.00800000E+00  1.60000000E+01
  1.00800000E+00  1.00800000E+00  1.60000000E+01  1.00800000E+00  1.00800000E+00
  1.60000000E+01  1.00800000E+00  1.00800000E+00  1.60000000E+01  1.00800000E+00
  1.00800000E+00  1.60000000E+01  1.00800000E+00  1.00800000E+00  1.60000000E+01
  1.00800000E+00  1.00800000E+00  1.60000000E+01  1.00800000E+00  1.00800000E+00
  1.60000000E+01  1.00800000E+00  1.00800000E+00  1.60000000E+01  1.00800000E+00
  1.00800000E+00  1.60000000E+01  1.00800000E+00  1.00800000E+00  1.60000000E+01
  1.00800000E+00  1.00800000E+00  1.60000000E+01  1.00800000E+00  1.00800000E+00
  1.60000000E+01  1.00800000E+00  1.00800000E+00  1.60000000E+01  1.00800000E+00
  1.00800000E+00  1.60000000E+01  1.00800000E+00  1.00800000E+00  1.60000000E+01
  1.00800000E+00  1.00800000E+00  1.60000000E+01  1.00800000E+00  1.00800000E+00
  1.60000000E+01  1.00800000E+00  1.00800000E+00  1.60000000E+01  1.00800000E+00
  1.00800000E+00  1.60000000E+01  1.00800000E+00  1.00800000E+00  1.60000000E+01
  1.00800000E+00  1.00800000E+00  1.60000000E+01  1.00800000E+00  1.00800000E+00
  1.60000000E+01  1.00800000E+00  1.00800000E+00  1.60000000E+01  1.00800000E+00
  1.00800000E+00  1.60000000E+01  1.00800000E+00  1.00800000E+00  1.60000000E+01
  1.00800000E+00  1.00800000E+00  1.60000000E+01  1.00800000E+00  1.00800000E+00
  1.60000000E+01  1.00800000E+00  1.00800000E+00  1.60000000E+01  1.00800000E+00
  1.00800000E+00  1.60000000E+01  1.00800000E+00  1.00800000E+00  1.60000000E+01
  1.00800000E+00  1.00800000E+00  1.60000000E+01  1.00800000E+00  1.00800000E+00
  1.60000000E+01  1.00800000E+00  1.00800000E+00  1.60000000E+01  1.00800000E+00
  1.00800000E+00  1.60000000E+01  1.00800000E+00  1.00800000E+00  1.60000000E+01
  1.00800000E+00  1.00800000E+00  1.60000000E+01  1.00800000E+00  1.00800000E+00
  1.60000000E+01  1.00800000E+00  1.00800000E+00  1.60000000E+01  1.00800000E+00
  1.00800000E+00  1.60000000E+01  1.00800000E+00  1.00800000E+00  1.60000000E+01
  1.00800000E+00  1.00800000E+00  1.60000000E+01  1.00800000E+00  1.00800000E+00
  1.60000000E+01  1.00800000E+00  1.00800000E+00  1.60000000E+01  1.00800000E+00
  1.00800000E+00  1.60000000E+01  1.00800000E+00  1.00800000E+00  1.60000000E+01
  1.00800000E+00  1.00800000E+00  1.60000000E+01  1.00800000E+00  1.00800000E+00
  1.60000000E+01  1.00800000E+00  1.00800000E+00  1.60000000E+01  1.00800000E+00
  1.00800000E+00  1.60000000E+01  1.00800000E+00  1.00800000E+00  1.60000000E+01
  1.00800000E+00  1.00800000E+00  1.60000000E+01  1.00800000E+00  1.00800000E+00
  1.60000000E+01  1.00800000E+00  1.00800000E+00  1.60000000E+01  1.00800000E+00
  1.00800000E+00  1.60000000E+01  1.00800000E+00  1.00800000E+00  1.60000000E+01
  1.00800000E+00  1.00800000E+00  1.60000000E+01  1.00800000E+00  1.00800000E+00
  1.60000000E+01  1.00800000E+00  1.00800000E+00  1.60000000E+01  1.00800000E+00
  1.00800000E+00  1.60000000E+01  1.00800000E+00  1.00800000E+00  1.60000000E+01
  1.00800000E+00  1.00800000E+00  1.60000000E+01  1.00800000E+00  1.00800000E+00
  1.60000000E+01  1.00800000E+00  1.00800000E+00  1.60000000E+01  1.00800000E+00
  1.00800000E+00  1.60000000E+01  1.00800000E+00  1.00800000E+00  1.60000000E+01
  1.00800000E+00  1.00800000E+00  1.60000000E+01  1.00800000E+00  1.00800000E+00
  1.60000000E+01  1.00800000E+00  1.00800000E+00  1.60000000E+01  1.00800000E+00
  1.00800000E+00  1.60000000E+01  1.00800000E+00  1.00800000E+00  1.60000000E+01
  1.00800000E+00  1.00800000E+00  1.60000000E+01  1.00800000E+00  1.00800000E+00
  1.60000000E+01  1.00800000E+00  1.00800000E+00  1.60000000E+01  1.00800000E+00
  1.00800000E+00  1.60000000E+01  1.00800000E+00  1.00800000E+00  1.60000000E+01
  1.00800000E+00  1.00800000E+00  1.60000000E+01  1.00800000E+00  1.00800000E+00
  1.60000000E+01  1.00800000E+00  1.00800000E+00  1.60000000E+01  1.00800000E+00
  1.00800000E+00  1.60000000E+01  1.00800000E+00  1.00800000E+00  1.60000000E+01
  1.00800000E+00  1.00800000E+00  1.60000000E+01  1.00800000E+00  1.00800000E+00
  1.60000000E+01  1.00800000E+00  1.00800000E+00  1.60000000E+01  1.00800000E+00
  1.00800000E+00  1.60000000E+01  1.00800000E+00  1.00800000E+00  1.60000000E+01
  1.00800000E+00  1.00800000E+00  1.60000000E+01  1.00800000E+00  1.00800000E+00
  1.60000000E+01  1.00800000E+00  1.00800000E+00  1.60000000E+01  1.00800000E+00
  1.00800000E+00  1.60000000E+01  1.00800000E+00  1.00800000E+00  1.60000000E+01
  1.00800000E+00  1.00800000E+00  1.60000000E+01  1.00800000E+00  1.00800000E+00
  1.60000000E+01  1.00800000E+00  1.00800000E+00  1.60000000E+01  1.00800000E+00
  1.00800000E+00  1.60000000E+01  1.00800000E+00  1.00800000E+00  1.60000000E+01
  1.00800000E+00  1.00800000E+00  1.60000000E+01  1.00800000E+00  1.00800000E+00
  1.60000000E+01  1.00800000E+00  1.00800000E+00  1.60000000E+01  1.00800000E+00
  1.00800000E+00  1.60000000E+01  1.00800000E+00  1.00800000E+00  1.60000000E+01
  1.00800000E+00  1.00800000E+00  1.60000000E+01  1.00800000E+00  1.00800000E+00
  1.60000000E+01  1.00800000E+00  1.00800000E+00  1.60000000E+01  1.00800000E+00
  1.00800000E+00  1.60000000E+01  1.00800000E+00  1.00800000E+00  1.60000000E+01
  1.00800000E+00  1.00800000E+00  1.60000000E+01  1.00800000E+00  1.00800000E+00
  1.60000000E+01  1.00800000E+00  1.00800000E+00  1.60000000E+01  1.00800000E+00
  1.00800000E+00  1.60000000E+01  1.00800000E+00  1.00800000E+00  1.60000000E+01
  1.00800000E+00  1.00800000E+00  1.60000000E+01  1.00800000E+00  1.00800000E+00
  1.60000000E+01  1.00800000E+00  1.00800000E+00  1.60000000E+01  1.00800000E+00
  1.00800000E+00  1.60000000E+01  1.00800000E+00  1.00800000E+00  1.60000000E+01
  1.00800000E+00  1.00800000E+00  1.60000000E+01  1.00800000E+00  1.00800000E+00
  1.60000000E+01  1.00800000E+00  1.00800000E+00  1.60000000E+01  1.00800000E+00
  1.00800000E+00  1.60000000E+01  1.00800000E+00  1.00800000E+00  1.60000000E+01
  1.00800000E+00  1.00800000E+00  1.60000000E+01  1.00800000E+00  1.00800000E+00
  1.60000000E+01  1.00800000E+00  1.00800000E+00  1.60000000E+01  1.00800000E+00
  1.00800000E+00  1.60000000E+01  1.00800000E+00  1.00800000E+00  1.60000000E+01
  1.00800000E+00  1.00800000E+00  1.60000000E+01  1.00800000E+00  1.00800000E+00
  1.60000000E+01  1.00800000E+00  1.00800000E+00  1.60000000E+01  1.00800000E+00
  1.00800000E+00  1.60000000E+01  1.00800000E+00  1.00800000E+00  1.60000000E+01
  1.00800000E+00  1.00800000E+00  1.60000000E+01  1.00800000E+00  1.00800000E+00
  1.60000000E+01  1.00800000E+00  1.00800000E+00  1.60000000E+01  1.00800000E+00
  1.00800000E+00  1.60000000E+01  1.00800000E+00  1.00800000E+00  1.60000000E+01
  1.00800000E+00  1.00800000E+00  1.60000000E+01  1.00800000E+00  1.00800000E+00
  1.60000000E+01  1.00800000E+00  1.00800000E+00  1.60000000E+01  1.00800000E+00
  1.00800000E+00  1.60000000E+01  1.00800000E+00  1.00800000E+00  1.60000000E+01
  1.00800000E+00  1.00800000E+00  1.60000000E+01  1.00800000E+00  1.00800000E+00
  1.60000000E+01  1.00800000E+00  1.00800000E+00  1.60000000E+01  1.00800000E+00
  1.00800000E+00  1.60000000E+01  1.00800000E+00  1.00800000E+00  1.60000000E+01
  1.00800000E+00  1.00800000E+00  1.60000000E+01  1.00800000E+00  1.00800000E+00
  1.60000000E+01  1.00800000E+00  1.00800000E+00  1.60000000E+01  1.00800000E+00
  1.00800000E+00  1.60000000E+01  1.00800000E+00  1.00800000E+00  1.60000000E+01
  1.00800000E+00  1.00800000E+00  1.60000000E+01  1.00800000E+00  1.00800000E+00
  1.60000000E+01  1.00800000E+00  1.00800000E+00  1.60000000E+01  1.00800000E+00
  1.00800000E+00  1.60000000E+01  1.00800000E+00  1.00800000E+00  1.60000000E+01
  1.00800000E+00  1.00800000E+00  1.60000000E+01  1.00800000E+00  1.00800000E+00
  1.60000000E+01  1.00800000E+00  1.00800000E+00  1.60000000E+01  1.00800000E+00
  1.00800000E+00  1.60000000E+01  1.00800000E+00  1.00800000E+00  1.60000000E+01
  1.00800000E+00  1.00800000E+00  1.60000000E+01  1.00800000E+00  1.00800000E+00
  1.60000000E+01  1.00800000E+00  1.00800000E+00  1.60000000E+01  1.00800000E+00
  1.00800000E+00  1.60000000E+01  1.00800000E+00  1.00800000E+00  1.60000000E+01
  1.00800000E+00  1.00800000E+00  1.60000000E+01  1.00800000E+00  1.00800000E+00
  1.60000000E+01  1.00800000E+00  1.00800000E+00  1.60000000E+01  1.00800000E+00
  1.00800000E+00  1.60000000E+01  1.00800000E+00  1.00800000E+00  1.60000000E+01
  1.00800000E+00  1.00800000E+00  1.60000000E+01  1.00800000E+00  1.00800000E+00
  1.60000000E+01  1.00800000E+00  1.00800000E+00  1.60000000E+01  1.00800000E+00
  1.00800000E+00  1.60000000E+01  1.00800000E+00  1.00800000E+00  1.60000000E+01
  1.00800000E+00  1.00800000E+00  1.60000000E+01  1.00800000E+00  1.00800000E+00
  1.60000000E+01  1.00800000E+00  1.00800000E+00  1.60000000E+01  1.00800000E+00
  1.00800000E+00  1.60000000E+01  1.00800000E+00  1.00800000E+00  1.60000000E+01
  1.00800000E+00  1.00800000E+00  1.60000000E+01  1.00800000E+00  1.00800000E+00
  1.60000000E+01  1.00800000E+00  1.00800000E+00  1.60000000E+01  1.00800000E+00
  1.00800000E+00  1.60000000E+01  1.00800000E+00  1.00800000E+00  1.60000000E+01
  1.00800000E+00  1.00800000E+00  1.60000000E+01  1.00800000E+00  1.00800000E+00
  1.60000000E+01  1.00800000E+00  1.00800000E+00  1.60000000E+01  1.00800000E+00
  1.00800000E+00  1.60000000E+01  1.00800000E+00  1.00800000E+00  1.60000000E+01
  1.00800000E+00  1.00800000E+00  1.60000000E+01  1.00800000E+00  1.00800000E+00
  1.60000000E+01  1.00800000E+00  1.00800000E+00  1.60000000E+01  1.00800000E+00
  1.00800000E+00  1.60000000E+01  1.00800000E+00  1.00800000E+00  1.60000000E+01
  1.00800000E+00  1.00800000E+00  1.60000000E+01  1.00800000E+00  1.00800000E+00
  1.60000000E+01  1.00800000E+00  1.00800000E+00  1.60000000E+01  1.00800000E+00
  1.00800000E+00  1.60000000E+01  1.00800000E+00  1.00800000E+00  1.60000000E+01
  1.00800000E+00  1.00800000E+00  1.60000000E+01  1.00800000E+00  1.00800000E+00
  1.60000000E+01  1.00800000E+00  1.00800000E+00  1.60000000E+01  1.00800000E+00
  1.00800000E+00  1.60000000E+01  1.00800000E+00  1.00800000E+00  1.60000000E+01
  1.00800000E+00  1.00800000E+00  1.60000000E+01  1.00800000E+00  1.00800000E+00
  1.60000000E+01  1.00800000E+00  1.00800000E+00  1.60000000E+01  1.00800000E+00
  1.00800000E+00  1.60000000E+01  1.00800000E+00  1.00800000E+00  1.60000000E+01
  1.00800000E+00  1.00800000E+00  1.60000000E+01  1.00800000E+00  1.00800000E+00
  1.60000000E+01  1.00800000E+00  1.00800000E+00  1.60000000E+01  1.00800000E+00
  1.00800000E+00  1.60000000E+01  1.00800000E+00  1.00800000E+00  1.60000000E+01
  1.00800000E+00  1.00800000E+00  1.60000000E+01  1.00800000E+00  1.00800000E+00
  1.60000000E+01  1.00800000E+00  1.00800000E+00  1.60000000E+01  1.00800000E+00
  1.00800000E+00  1.60000000E+01  1.00800000E+00  1.00800000E+00  1.60000000E+01
  1.00800000E+00  1.00800000E+00  1.60000000E+01  1.00800000E+00  1.00800000E+00
  1.60000000E+01  1.00800000E+00  1.00800000E+00  1.60000000E+01  1.00800000E+00
  1.00800000E+00  1.60000000E+01  1.00800000E+00  1.00800000E+00  1.60000000E+01
  1.00800000E+00  1.00800000E+00  1.60000000E+01  1.00800000E+00  1.00800000E+00
  1.60000000E+01  1.00800000E+00  1.00800000E+00  1.60000000E+01  1.00800000E+00
  1.00800000E+00  1.60000000E+01  1.00800000E+00  1.00800000E+00  1.60000000E+01
  1.00800000E+00  1.00800000E+00  1.60000000E+01  1.00800000E+00  1.00800000E+00
  1.60000000E+01  1.00800000E+00  1.00800000E+00  1.60000000E+01  1.00800000E+00
  1.00800000E+00  1.60000000E+01  1.00800000E+00  1.00800000E+00  1.60000000E+01
  1.00800000E+00  1.00800000E+00  1.60000000E+01  1.00800000E+00  1.00800000E+00
  1.60000000E+01  1.00800000E+00  1.00800000E+00  1.60000000E+01  1.00800000E+00
  1.00800000E+00  1.60000000E+01  1.00800000E+00  1.00800000E+00  1.60000000E+01
  1.00800000E+00  1.00800000E+00  1.60000000E+01  1.00800000E+00  1.00800000E+00
  1.60000000E+01  1.00800000E+00  1.00800000E+00  1.60000000E+01  1.00800000E+00
  1.00800000E+00  1.60000000E+01  1.00800000E+00  1.00800000E+00  1.60000000E+01
  1.00800000E+00  1.00800000E+00  1.60000000E+01  1.00800000E+00  1.00800000E+00
  1.60000000E+01  1.00800000E+00  1.00800000E+00  1.60000000E+01  1.00800000E+00
  1.00800000E+00  1.60000000E+01  1.00800000E+00  1.00800000E+00  1.60000000E+01
  1.00800000E+00  1.00800000E+00  1.60000000E+01  1.00800000E+00  1.00800000E+00
  1.60000000E+01  1.00800000E+00  1.00800000E+00  1.60000000E+01  1.00800000E+00
  1.00800000E+00  1.60000000E+01  1.00800000E+00  1.00800000E+00  1.60000000E+01
  1.00800000E+00  1.00800000E+00  1.60000000E+01  1.00800000E+00  1.00800000E+00
  1.60000000E+01  1.00800000E+00  1.00800000E+00  1.60000000E+01  1.00800000E+00
  1.00800000E+00  1.60000000E+01  1.00800000E+00  1.00800000E+00  1.60000000E+01
  1.00800000E+00  1.00800000E+00  1.60000000E+01  1.00800000E+00  1.00800000E+00
  1.60000000E+01  1.00800000E+00  1.00800000E+00  1.60000000E+01  1.00800000E+00
  1.00800000E+00  1.60000000E+01  1.00800000E+00  1.00800000E+00  1.60000000E+01
  1.00800000E+00  1.00800000E+00  1.60000000E+01  1.00800000E+00  1.00800000E+00
  1.60000000E+01  1.00800000E+00  1.00800000E+00  1.60000000E+01  1.00800000E+00
  1.00800000E+00  1.60000000E+01  1.00800000E+00  1.00800000E+00  1.60000000E+01
  1.00800000E+00  1.00800000E+00  1.60000000E+01  1.00800000E+00  1.00800000E+00
  1.60000000E+01  1.00800000E+00  1.00800000E+00  1.60000000E+01  1.00800000E+00
  1.00800000E+00  1.60000000E+01  1.00800000E+00  1.00800000E+00  1.60000000E+01
  1.00800000E+00  1.00800000E+00  1.60000000E+01  1.00800000E+00  1.00800000E+00
  1.60000000E+01  1.00800000E+00  1.00800000E+00  1.60000000E+01  1.00800000E+00
  1.00800000E+00  1.60000000E+01  1.00800000E+00  1.00800000E+00  1.60000000E+01
  1.00800000E+00  1.00800000E+00  1.60000000E+01  1.00800000E+00  1.00800000E+00
  1.60000000E+01  1.00800000E+00  1.00800000E+00  1.60000000E+01  1.00800000E+00
  1.00800000E+00  1.60000000E+01  1.00800000E+00  1.00800000E+00  1.60000000E+01
  1.00800000E+00  1.00800000E+00  1.60000000E+01  1.00800000E+00  1.00800000E+00
  1.60000000E+01  1.00800000E+00  1.00800000E+00  1.60000000E+01  1.00800000E+00
  1.00800000E+00  1.60000000E+01  1.00800000E+00  1.00800000E+00  1.60000000E+01
  1.00800000E+00  1.00800000E+00  1.60000000E+01  1.00800000E+00  1.00800000E+00
  1.60000000E+01  1.00800000E+00  1.00800000E+00  1.60000000E+01  1.00800000E+00
  1.00800000E+00  1.60000000E+01  1.00800000E+00  1.00800000E+00  1.60000000E+01
  1.00800000E+00  1.00800000E+00  1.60000000E+01  1.00800000E+00  1.00800000E+00
  1.60000000E+01  1.00800000E+00  1.00800000E+00  1.60000000E+01  1.00800000E+00
  1.00800000E+00  1.60000000E+01  1.00800000E+00  1.00800000E+00  1.60000000E+01
  1.00800000E+00  1.00800000E+00  1.60000000E+01  1.00800000E+00  1.00800000E+00
  1.60000000E+01  1.00800000E+00  1.00800000E+00  1.60000000E+01  1.00800000E+00
  1.00800000E+00  1.60000000E+01  1.00800000E+00  1.00800000E+00  1.60000000E+01
  1.00800000E+00  1.00800000E+00  1.60000000E+01  1.00800000E+00  1.00800000E+00
  1.60000000E+01  1.00800000E+00  1.00800000E+00  1.60000000E+01  1.00800000E+00
  1.00800000E+00  1.60000000E+01  1.00800000E+00  1.00800000E+00  1.60000000E+01
  1.00800000E+00  1.00800000E+00  1.60000000E+01  1.00800000E+00  1.00800000E+00
  1.60000000E+01  1.00800000E+00  1.00800000E+00  1.60000000E+01  1.00800000E+00
  1.00800000E+00  1.60000000E+01  1.00800000E+00  1.00800000E+00  1.60000000E+01
  1.00800000E+00  1.00800000E+00  1.60000000E+01  1.00800000E+00  1.00800000E+00
  1.60000000E+01  1.00800000E+00  1.00800000E+00  1.60000000E+01  1.00800000E+00
  1.00800000E+00  1.60000000E+01  1.00800000E+00  1.00800000E+00  1.60000000E+01
  1.00800000E+00  1.00800000E+00  1.60000000E+01  1.00800000E+00  1.00800000E+00
  1.60000000E+01  1.00800000E+00  1.00800000E+00  1.60000000E+01  1.00800000E+00
  1.00800000E+00  1.60000000E+01  1.00800000E+00  1.00800000E+00  1.60000000E+01
  1.00800000E+00  1.00800000E+00  1.60000000E+01  1.00800000E+00  1.00800000E+00
  1.60000000E+01  1.00800000E+00  1.00800000E+00  1.60000000E+01  1.00800000E+00
  1.00800000E+00  1.60000000E+01  1.00800000E+00  1.00800000E+00  1.60000000E+01
  1.00800000E+00  1.00800000E+00  1.60000000E+01  1.00800000E+00  1.00800000E+00
  1.60000000E+01  1.00800000E+00  1.00800000E+00  1.60000000E+01  1.00800000E+00
  1.00800000E+00  1.60000000E+01  1.00800000E+00  1.00800000E+00  1.60000000E+01
  1.00800000E+00  1.00800000E+00  1.60000000E+01  1.00800000E+00  1.00800000E+00
  1.60000000E+01  1.00800000E+00  1.00800000E+00  1.60000000E+01  1.00800000E+00
  1.00800000E+00  1.60000000E+01  1.00800000E+00  1.00800000E+00  1.60000000E+01
  1.00800000E+00  1.00800000E+00  1.60000000E+01  1.00800000E+00  1.00800000E+00
  1.60000000E+01  1.00800000E+00  1.00800000E+00  1.60000000E+01  1.00800000E+00
  1.00800000E+00  1.60000000E+01  1.00800000E+00  1.00800000E+00  1.60000000E+01
  1.00800000E+00  1.00800000E+00  1.60000000E+01  1.00800000E+00  1.00800000E+00
  1.60000000E+01  1.00800000E+00  1.00800000E+00  1.60000000E+01  1.00800000E+00
  1.00800000E+00  1.60000000E+01  1.00800000E+00  1.00800000E+00  1.60000000E+01
  1.00800000E+00  1.00800000E+00  1.60000000E+01  1.00800000E+00  1.00800000E+00
  1.60000000E+01  1.00800000E+00  1.00800000E+00  1.60000000E+01  1.00800000E+00
  1.00800000E+00  1.60000000E+01  1.00800000E+00  1.00800000E+00  1.60000000E+01
  1.00800000E+00  1.00800000E+00  1.60000000E+01  1.00800000E+00  1.00800000E+00
  1.60000000E+01  1.00800000E+00  1.00800000E+00  1.60000000E+01  1.00800000E+00
  1.00800000E+00  1.60000000E+01  1.00800000E+00  1.00800000E+00  1.60000000E+01
  1.00800000E+00  1.00800000E+00  1.60000000E+01  1.00800000E+00  1.00800000E+00
  1.60000000E+01  1.00800000E+00  1.00800000E+00  1.60000000E+01  1.00800000E+00
  1.00800000E+00  1.60000000E+01  1.00800000E+00  1.00800000E+00  1.60000000E+01
  1.00800000E+00  1.00800000E+00  1.60000000E+01  1.00800000E+00  1.00800000E+00
  1.60000000E+01  1.00800000E+00  1.00800000E+00  1.60000000E+01  1.00800000E+00
  1.00800000E+00  1.60000000E+01  1.00800000E+00  1.00800000E+00  1.60000000E+01
  1.00800000E+00  1.00800000E+00  1.60000000E+01  1.00800000E+00  1.00800000E+00
  1.60000000E+01  1.00800000E+00  1.00800000E+00  1.60000000E+01  1.00800000E+00
  1.00800000E+00  1.60000000E+01  1.00800000E+00  1.00800000E+00  1.60000000E+01
  1.00800000E+00  1.00800000E+00  1.60000000E+01  1.00800000E+00  1.00800000E+00
  1.60000000E+01  1.00800000E+00  1.00800000E+00  1.60000000E+01  1.00800000E+00
  1.00800000E+00  1.60000000E+01  1.00800000E+00  1.00800000E+00  1.60000000E+01
  1.00800000E+00  1.00800000E+00  1.60000000E+01  1.00800000E+00  1.00800000E+00
  1.60000000E+01  1.00800000E+00  1.00800000E+00  1.60000000E+01  1.00800000E+00
  1.00800000E+00  1.60000000E+01  1.00800000E+00  1.00800000E+00  1.60000000E+01
  1.00800000E+00  1.00800000E+00  1.60000000E+01  1.00800000E+00  1.00800000E+00
  1.60000000E+01  1.00800000E+00  1.00800000E+00  1.60000000E+01  1.00800000E+00
  1.00800000E+00  1.60000000E+01  1.00800000E+00  1.00800000E+00  1.60000000E+01
  1.00800000E+00  1.00800000E+00  1.60000000E+01  1.00800000E+00  1.00800000E+00
  1.60000000E+01  1.00800000E+00  1.00800000E+00  1.60000000E+01  1.00800000E+00
  1.00800000E+00  1.60000000E+01  1.00800000E+00  1.00800000E+00  1.60000000E+01
  1.00800000E+00  1.00800000E+00  1.60000000E+01  1.00800000E+00  1.00800000E+00
  1.60000000E+01  1.00800000E+00  1.00800000E+00  1.60000000E+01  1.00800000E+00
  1.00800000E+00  1.60000000E+01  1.00800000E+00  1.00800000E+00  1.60000000E+01
  1.00800000E+00  1.00800000E+00  1.60000000E+01  1.00800000E+00  1.00800000E+00
  1.60000000E+01  1.00800000E+00  1.00800000E+00  1.60000000E+01  1.00800000E+00
  1.00800000E+00  1.60000000E+01  1.00800000E+00  1.00800000E+00  1.60000000E+01
  1.00800000E+00  1.00800000E+00  1.60000000E+01  1.00800000E+00  1.00800000E+00
  1.60000000E+01  1.00800000E+00  1.00800000E+00  1.60000000E+01  1.00800000E+00
  1.00800000E+00  1.60000000E+01  1.00800000E+00  1.00800000E+00  1.60000000E+01
  1.00800000E+00  1.00800000E+00  1.60000000E+01  1.00800000E+00  1.00800000E+00
  1.60000000E+01  1.00800000E+00  1.00800000E+00  1.60000000E+01  1.00800000E+00
  1.00800000E+00  1.60000000E+01  1.00800000E+00  1.00800000E+00  1.60000000E+01
  1.00800000E+00  1.00800000E+00  1.60000000E+01  1.00800000E+00  1.00800000E+00
  1.60000000E+01  1.00800000E+00  1.00800000E+00  1.60000000E+01  1.00800000E+00
  1.00800000E+00  1.60000000E+01  1.00800000E+00  1.00800000E+00  1.60000000E+01
  1.00800000E+00  1.00800000E+00  1.60000000E+01  1.00800000E+00  1.00800000E+00
  1.60000000E+01  1.00800000E+00  1.00800000E+00  1.60000000E+01  1.00800000E+00
  1.00800000E+00  1.60000000E+01  1.00800000E+00  1.00800000E+00  1.60000000E+01
  1.00800000E+00  1.00800000E+00  1.60000000E+01  1.00800000E+00  1.00800000E+00
  1.60000000E+01  1.00800000E+00  1.00800000E+00  1.60000000E+01  1.00800000E+00
  1.00800000E+00  1.60000000E+01  1.00800000E+00  1.00800000E+00  1.60000000E+01
  1.00800000E+00  1.00800000E+00  1.60000000E+01  1.00800000E+00  1.00800000E+00
  1.60000000E+01  1.00800000E+00  1.00800000E+00  1.60000000E+01  1.00800000E+00
  1.00800000E+00  1.60000000E+01  1.00800000E+00  1.00800000E+00  1.60000000E+01
  1.00800000E+00  1.00800000E+00  1.60000000E+01  1.00800000E+00  1.00800000E+00
  1.60000000E+01  1.00800000E+00  1.00800000E+00  1.60000000E+01  1.00800000E+00
  1.00800000E+00  1.60000000E+01  1.00800000E+00  1.00800000E+00  1.60000000E+01
  1.00800000E+00  1.00800000E+00  1.60000000E+01  1.00800000E+00  1.00800000E+00
  1.60000000E+01  1.00800000E+00  1.00800000E+00  1.60000000E+01  1.00800000E+00
  1.00800000E+00  1.60000000E+01  1.00800000E+00  1.00800000E+00  1.60000000E+01
  1.00800000E+00  1.00800000E+00  1.60000000E+01  1.00800000E+00  1.00800000E+00
  1.60000000E+01  1.00800000E+00  1.00800000E+00  1.60000000E+01  1.00800000E+00
  1.00800000E+00  1.60000000E+01  1.00800000E+00  1.00800000E+00  1.60000000E+01
  1.00800000E+00  1.00800000E+00  1.60000000E+01  1.00800000E+00  1.00800000E+00
  1.60000000E+01  1.00800000E+00  1.00800000E+00  1.60000000E+01  1.00800000E+00
  1.00800000E+00  1.60000000E+01  1.00800000E+00  1.00800000E+00  1.60000000E+01
  1.00800000E+00  1.00800000E+00  1.60000000E+01  1.00800000E+00  1.00800000E+00
  1.60000000E+01  1.00800000E+00  1.00800000E+00  1.60000000E+01  1.00800000E+00
  1.00800000E+00  1.60000000E+01  1.00800000E+00  1.00800000E+00  1.60000000E+01
  1.00800000E+00  1.00800000E+00  1.60000000E+01  1.00800000E+00  1.00800000E+00
  1.60000000E+01  1.00800000E+00  1.00800000E+00  1.60000000E+01  1.00800000E+00
  1.00800000E+00  1.60000000E+01  1.00800000E+00  1.00800000E+00  1.60000000E+01
  1.00800000E+00  1.00800000E+00  1.60000000E+01  1.00800000E+00  1.00800000E+00
  1.60000000E+01  1.00800000E+00  1.00800000E+00  1.60000000E+01  1.00800000E+00
  1.00800000E+00  1.60000000E+01  1.00800000E+00  1.00800000E+00  1.60000000E+01
  1.00800000E+00  1.00800000E+00  1.60000000E+01  1.00800000E+00  1.00800000E+00
  1.60000000E+01  1.00800000E+00  1.00800000E+00  1.60000000E+01  1.00800000E+00
  1.00800000E+00  1.60000000E+01  1.00800000E+00  1.00800000E+00  1.60000000E+01
  1.00800000E+00  1.00800000E+00  1.60000000E+01  1.00800000E+00  1.00800000E+00
  1.60000000E+01  1.00800000E+00  1.00800000E+00  1.60000000E+01  1.00800000E+00
  1.00800000E+00  1.60000000E+01  1.00800000E+00  1.00800000E+00  1.60000000E+01
  1.00800000E+00  1.00800000E+00  1.60000000E+01  1.00800000E+00  1.00800000E+00
  1.60000000E+01  1.00800000E+00  1.00800000E+00  1.60000000E+01  1.00800000E+00
  1.00800000E+00  1.60000000E+01  1.00800000E+00  1.00800000E+00  1.60000000E+01
  1.00800000E+00  1.00800000E+00  1.60000000E+01  1.00800000E+00  1.00800000E+00
  1.60000000E+01  1.00800000E+00  1.00800000E+00  1.60000000E+01  1.00800000E+00
  1.00800000E+00  1.60000000E+01  1.00800000E+00  1.00800000E+00  1.60000000E+01
  1.00800000E+00  1.00800000E+00  1.60000000E+01  1.00800000E+00  1.00800000E+00
  1.60000000E+01  1.00800000E+00  1.00800000E+00  1.60000000E+01  1.00800000E+00
  1.00800000E+00  1.60000000E+01  1.00800000E+00  1.00800000E+00  1.60000000E+01
  1.00800000E+00  1.00800000E+00  1.60000000E+01  1.00800000E+00  1.00800000E+00
  1.60000000E+01  1.00800000E+00  1.00800000E+00  1.60000000E+01  1.00800000E+00
  1.00800000E+00  1.60000000E+01  1.00800000E+00  1.00800000E+00  1.60000000E+01
  1.00800000E+00  1.00800000E+00  1.60000000E+01  1.00800000E+00  1.00800000E+00
  1.60000000E+01  1.00800000E+00  1.00800000E+00  1.60000000E+01  1.00800000E+00
  1.00800000E+00  1.60000000E+01  1.00800000E+00  1.00800000E+00  1.60000000E+01
  1.00800000E+00  1.00800000E+00  1.60000000E+01  1.00800000E+00  1.00800000E+00
  1.60000000E+01  1.00800000E+00  1.00800000E+00  1.60000000E+01  1.00800000E+00
  1.00800000E+00  1.60000000E+01  1.00800000E+00  1.00800000E+00  1.60000000E+01
  1.00800000E+00  1.00800000E+00  1.60000000E+01  1.00800000E+00  1.00800000E+00
  1.60000000E+01  1.00800000E+00  1.00800000E+00  1.60000000E+01  1.00800000E+00
  1.00800000E+00  1.60000000E+01  1.00800000E+00  1.00800000E+00  1.60000000E+01
  1.00800000E+00  1.00800000E+00  1.60000000E+01  1.00800000E+00  1.00800000E+00
  1.60000000E+01  1.00800000E+00  1.00800000E+00  1.60000000E+01  1.00800000E+00
  1.00800000E+00  1.60000000E+01  1.00800000E+00  1.00800000E+00  1.60000000E+01
  1.00800000E+00  1.00800000E+00  1.60000000E+01  1.00800000E+00  1.00800000E+00
  1.60000000E+01  1.00800000E+00  1.00800000E+00  1.60000000E+01  1.00800000E+00
  1.00800000E+00  1.60000000E+01  1.00800000E+00  1.00800000E+00  1.60000000E+01
  1.00800000E+00  1.00800000E+00  1.60000000E+01  1.00800000E+00  1.00800000E+00
  1.60000000E+01  1.00800000E+00  1.00800000E+00  1.60000000E+01  1.00800000E+00
  1.00800000E+00  1.60000000E+01  1.00800000E+00  1.00800000E+00  1.60000000E+01
  1.00800000E+00  1.00800000E+00  1.60000000E+01  1.00800000E+00  1.00800000E+00
  1.60000000E+01  1.00800000E+00  1.00800000E+00  1.60000000E+01  1.00800000E+00
  1.00800000E+00  1.60000000E+01  1.00800000E+00  1.00800000E+00  1.60000000E+01
  1.00800000E+00  1.00800000E+00  1.60000000E+01  1.00800000E+00  1.00800000E+00
  1.60000000E+01  1.00800000E+00  1.00800000E+00  1.60000000E+01  1.00800000E+00
  1.00800000E+00  1.60000000E+01  1.00800000E+00  1.00800000E+00  1.60000000E+01
  1.00800000E+00  1.00800000E+00  1.60000000E+01  1.00800000E+00  1.00800000E+00
  1.60000000E+01  1.00800000E+00  1.00800000E+00  1.60000000E+01  1.00800000E+00
  1.00800000E+00  1.60000000E+01  1.00800000E+00  1.00800000E+00  1.60000000E+01
  1.00800000E+00  1.00800000E+00  1.60000000E+01  1.00800000E+00  1.00800000E+00
  1.60000000E+01  1.00800000E+00  1.00800000E+00  1.60000000E+01  1.00800000E+00
  1.00800000E+00  1.60000000E+01  1.00800000E+00  1.00800000E+00  1.60000000E+01
  1.00800000E+00  1.00800000E+00  1.60000000E+01  1.00800000E+00  1.00800000E+00
  1.60000000E+01  1.00800000E+00  1.00800000E+00  1.60000000E+01  1.00800000E+00
  1.00800000E+00  1.60000000E+01  1.00800000E+00  1.00800000E+00  1.60000000E+01
  1.00800000E+00  1.00800000E+00  1.60000000E+01  1.00800000E+00  1.00800000E+00
  1.60000000E+01  1.00800000E+00  1.00800000E+00  1.60000000E+01  1.00800000E+00
  1.00800000E+00  1.60000000E+01  1.00800000E+00  1.00800000E+00  1.60000000E+01
  1.00800000E+00  1.00800000E+00  1.60000000E+01  1.00800000E+00  1.00800000E+00
  1.60000000E+01  1.00800000E+00  1.00800000E+00  1.60000000E+01  1.00800000E+00
  1.00800000E+00  1.60000000E+01  1.00800000E+00  1.00800000E+00  1.60000000E+01
  1.00800000E+00  1.00800000E+00  1.60000000E+01  1.00800000E+00  1.00800000E+00
  1.60000000E+01  1.00800000E+00  1.00800000E+00  1.60000000E+01  1.00800000E+00
  1.00800000E+00  1.60000000E+01  1.00800000E+00  1.00800000E+00  1.60000000E+01
  1.00800000E+00  1.00800000E+00  1.60000000E+01  1.00800000E+00  1.00800000E+00
  1.60000000E+01  1.00800000E+00  1.00800000E+00  1.60000000E+01  1.00800000E+00
  1.00800000E+00  1.60000000E+01  1.00800000E+00  1.00800000E+00  1.60000000E+01
  1.00800000E+00  1.00800000E+00  1.60000000E+01  1.00800000E+00  1.00800000E+00
  1.60000000E+01  1.00800000E+00  1.00800000E+00  1.60000000E+01  1.00800000E+00
  1.00800000E+00  1.60000000E+01  1.00800000E+00  1.00800000E+00  1.60000000E+01
  1.00800000E+00  1.00800000E+00  1.60000000E+01  1.00800000E+00  1.00800000E+00
  1.60000000E+01  1.00800000E+00  1.00800000E+00  1.60000000E+01  1.00800000E+00
  1.00800000E+00  1.60000000E+01  1.00800000E+00  1.00800000E+00  1.60000000E+01
  1.00800000E+00  1.00800000E+00  1.60000000E+01  1.00800000E+00  1.00800000E+00
  1.60000000E+01  1.00800000E+00  1.00800000E+00  1.60000000E+01  1.00800000E+00
  1.00800000E+00  1.60000000E+01  1.00800000E+00  1.00800000E+00  1.60000000E+01
  1.00800000E+00  1.00800000E+00  1.60000000E+01  1.00800000E+00  1.00800000E+00
  1.60000000E+01  1.00800000E+00  1.00800000E+00  1.60000000E+01  1.00800000E+00
  1.00800000E+00  1.60000000E+01  1.00800000E+00  1.00800000E+00  1.60000000E+01
  1.00800000E+00  1.00800000E+00  1.60000000E+01  1.00800000E+00  1.00800000E+00
  1.60000000E+01  1.00800000E+00  1.00800000E+00  1.60000000E+01  1.00800000E+00
  1.00800000E+00  1.60000000E+01  1.00800000E+00  1.00800000E+00  1.60000000E+01
  1.00800000E+00  1.00800000E+00  1.60000000E+01  1.00800000E+00  1.00800000E+00
  1.60000000E+01  1.00800000E+00  1.00800000E+00  1.60000000E+01  1.00800000E+00
  1.00800000E+00  1.60000000E+01  1.00800000E+00  1.00800000E+00  1.60000000E+01
  1.00800000E+00  1.00800000E+00  1.60000000E+01  1.00800000E+00  1.00800000E+00
  1.60000000E+01  1.00800000E+00  1.00800000E+00  1.60000000E+01  1.00800000E+00
  1.00800000E+00  1.60000000E+01  1.00800000E+00  1.00800000E+00  1.60000000E+01
  1.00800000E+00  1.00800000E+00  1.60000000E+01  1.00800000E+00  1.00800000E+00
  1.60000000E+01  1.00800000E+00  1.00800000E+00  1.60000000E+01  1.00800000E+00
  1.00800000E+00  1.60000000E+01  1.00800000E+00  1.00800000E+00  1.60000000E+01
  1.00800000E+00  1.00800000E+00  1.60000000E+01  1.00800000E+00  1.00800000E+00
  1.60000000E+01  1.00800000E+00  1.00800000E+00  1.60000000E+01  1.00800000E+00
  1.00800000E+00  1.60000000E+01  1.00800000E+00  1.00800000E+00  1.60000000E+01
  1.00800000E+00  1.00800000E+00  1.60000000E+01  1.00800000E+00  1.00800000E+00
  1.60000000E+01  1.00800000E+00  1.00800000E+00  1.60000000E+01  1.00800000E+00
  1.00800000E+00  1.60000000E+01  1.00800000E+00  1.00800000E+00  1.60000000E+01
  1.00800000E+00  1.00800000E+00  1.60000000E+01  1.00800000E+00  1.00800000E+00
  1.60000000E+01  1.00800000E+00  1.00800000E+00  1.60000000E+01  1.00800000E+00
  1.00800000E+00  1.60000000E+01  1.00800000E+00  1.00800000E+00  1.60000000E+01
  1.00800000E+00  1.00800000E+00  1.60000000E+01  1.00800000E+00  1.00800000E+00
  1.60000000E+01  1.00800000E+00  1.00800000E+00  1.60000000E+01  1.00800000E+00
  1.00800000E+00  1.60000000E+01  1.00800000E+00  1.00800000E+00  1.60000000E+01
  1.00800000E+00  1.00800000E+00  1.60000000E+01  1.00800000E+00  1.00800000E+00
  1.60000000E+01  1.00800000E+00  1.00800000E+00  1.60000000E+01  1.00800000E+00
  1.00800000E+00  1.60000000E+01  1.00800000E+00  1.00800000E+00  1.60000000E+01
  1.00800000E+00  1.00800000E+00  1.60000000E+01  1.00800000E+00  1.00800000E+00
  1.60000000E+01  1.00800000E+00  1.00800000E+00  1.60000000E+01  1.00800000E+00
  1.00800000E+00  1.60000000E+01  1.00800000E+00  1.00800000E+00  1.60000000E+01
  1.00800000E+00  1.00800000E+00  1.60000000E+01  1.00800000E+00  1.00800000E+00
  1.60000000E+01  1.00800000E+00  1.00800000E+00  1.60000000E+01  1.00800000E+00
  1.00800000E+00  1.60000000E+01  1.00800000E+00  1.00800000E+00  1.60000000E+01
  1.00800000E+00  1.00800000E+00  1.60000000E+01  1.00800000E+00  1.00800000E+00
  1.60000000E+01  1.00800000E+00  1.00800000E+00  1.60000000E+01  1.00800000E+00
  1.00800000E+00  1.60000000E+01  1.00800000E+00  1.00800000E+00  1.60000000E+01
  1.00800000E+00  1.00800000E+00  1.60000000E+01  1.00800000E+00  1.00800000E+00
  1.60000000E+01  1.00800000E+00  1.00800000E+00  1.60000000E+01  1.00800000E+00
  1.00800000E+00  1.60000000E+01  1.00800000E+00  1.00800000E+00  1.60000000E+01
  1.00800000E+00  1.00800000E+00  1.60000000E+01  1.00800000E+00  1.00800000E+00
  1.60000000E+01  1.00800000E+00  1.00800000E+00  1.60000000E+01  1.00800000E+00
  1.00800000E+00  1.60000000E+01  1.00800000E+00  1.00800000E+00  1.60000000E+01
  1.00800000E+00  1.00800000E+00  1.60000000E+01  1.00800000E+00  1.00800000E+00
  1.60000000E+01  1.00800000E+00  1.00800000E+00  1.60000000E+01  1.00800000E+00
  1.00800000E+00  1.60000000E+01  1.00800000E+00  1.00800000E+00  1.60000000E+01
  1.00800000E+00  1.00800000E+00  1.60000000E+01  1.00800000E+00  1.00800000E+00
  1.60000000E+01  1.00800000E+00  1.00800000E+00  1.60000000E+01  1.00800000E+00
  1.00800000E+00  1.60000000E+01  1.00800000E+00  1.00800000E+00  1.60000000E+01
  1.00800000E+00  1.00800000E+00  1.60000000E+01  1.00800000E+00  1.00800000E+00
  1.60000000E+01  1.00800000E+00  1.00800000E+00  1.60000000E+01  1.00800000E+00
  1.00800000E+00  1.60000000E+01  1.00800000E+00  1.00800000E+00  1.60000000E+01
  1.00800000E+00  1.00800000E+00  1.60000000E+01  1.00800000E+00  1.00800000E+00
  1.60000000E+01  1.00800000E+00  1.00800000E+00  1.60000000E+01  1.00800000E+00
  1.00800000E+00  1.60000000E+01  1.00800000E+00  1.00800000E+00  1.60000000E+01
  1.00800000E+00  1.00800000E+00  1.60000000E+01  1.00800000E+00  1.00800000E+00
  1.60000000E+01  1.00800000E+00  1.00800000E+00  1.60000000E+01  1.00800000E+00
  1.00800000E+00  1.60000000E+01  1.00800000E+00  1.00800000E+00  1.60000000E+01
  1.00800000E+00  1.00800000E+00  1.60000000E+01  1.00800000E+00  1.00800000E+00
  1.60000000E+01  1.00800000E+00  1.00800000E+00  1.60000000E+01  1.00800000E+00
  1.00800000E+00  1.60000000E+01  1.00800000E+00  1.00800000E+00  1.60000000E+01
  1.00800000E+00  1.00800000E+00  1.60000000E+01  1.00800000E+00  1.00800000E+00
  1.60000000E+01  1.00800000E+00  1.00800000E+00  1.60000000E+01  1.00800000E+00
  1.00800000E+00  1.60000000E+01  1.00800000E+00  1.00800000E+00  1.60000000E+01
  1.00800000E+00  1.00800000E+00  1.60000000E+01  1.00800000E+00  1.00800000E+00
  1.60000000E+01  1.00800000E+00  1.00800000E+00  1.60000000E+01  1.00800000E+00
  1.00800000E+00  1.60000000E+01  1.00800000E+00  1.00800000E+00  1.60000000E+01
  1.00800000E+00  1.00800000E+00  1.60000000E+01  1.00800000E+00  1.00800000E+00
  1.60000000E+01  1.00800000E+00  1.00800000E+00  1.60000000E+01  1.00800000E+00
  1.00800000E+00  1.60000000E+01  1.00800000E+00  1.00800000E+00  1.60000000E+01
  1.00800000E+00  1.00800000E+00  1.60000000E+01  1.00800000E+00  1.00800000E+00
  1.60000000E+01  1.00800000E+00  1.00800000E+00  1.60000000E+01  1.00800000E+00
  1.00800000E+00  1.60000000E+01  1.00800000E+00  1.00800000E+00  1.60000000E+01
  1.00800000E+00  1.00800000E+00  1.60000000E+01  1.00800000E+00  1.00800000E+00
  1.60000000E+01  1.00800000E+00  1.00800000E+00  1.60000000E+01  1.00800000E+00
  1.00800000E+00  1.60000000E+01  1.00800000E+00  1.00800000E+00  1.60000000E+01
  1.00800000E+00  1.00800000E+00  1.60000000E+01  1.00800000E+00  1.00800000E+00
  1.60000000E+01  1.00800000E+00  1.00800000E+00  1.60000000E+01  1.00800000E+00
  1.00800000E+00  1.60000000E+01  1.00800000E+00  1.00800000E+00  1.60000000E+01
  1.00800000E+00  1.00800000E+00  1.60000000E+01  1.00800000E+00  1.00800000E+00
  1.60000000E+01  1.00800000E+00  1.00800000E+00  1.60000000E+01  1.00800000E+00
  1.00800000E+00  1.60000000E+01  1.00800000E+00  1.00800000E+00  1.60000000E+01
  1.00800000E+00  1.00800000E+00  1.60000000E+01  1.00800000E+00  1.00800000E+00
  1.60000000E+01  1.00800000E+00  1.00800000E+00  1.60000000E+01  1.00800000E+00
  1.00800000E+00  1.60000000E+01  1.00800000E+00  1.00800000E+00  1.60000000E+01
  1.00800000E+00  1.00800000E+00  1.60000000E+01  1.00800000E+00  1.00800000E+00
  1.60000000E+01  1.00800000E+00  1.00800000E+00  1.60000000E+01  1.00800000E+00
  1.00800000E+00  1.60000000E+01  1.00800000E+00  1.00800000E+00  1.60000000E+01
  1.00800000E+00  1.00800000E+00  1.60000000E+01  1.00800000E+00  1.00800000E+00
  1.60000000E+01  1.00800000E+00  1.00800000E+00  1.60000000E+01  1.00800000E+00
  1.00800000E+00  1.60000000E+01  1.00800000E+00  1.00800000E+00  1.60000000E+01
  1.00800000E+00  1.00800000E+00  1.60000000E+01  1.00800000E+00  1.00800000E+00
  1.60000000E+01  1.00800000E+00  1.00800000E+00  1.60000000E+01  1.00800000E+00
  1.00800000E+00  1.60000000E+01  1.00800000E+00  1.00800000E+00  1.60000000E+01
  1.00800000E+00  1.00800000E+00  1.60000000E+01  1.00800000E+00  1.00800000E+00
  1.60000000E+01  1.00800000E+00  1.00800000E+00  1.60000000E+01  1.00800000E+00
  1.00800000E+00  1.60000000E+01  1.00800000E+00  1.00800000E+00  1.60000000E+01
  1.00800000E+00  1.00800000E+00  1.60000000E+01  1.00800000E+00  1.00800000E+00
  1.60000000E+01  1.00800000E+00  1.00800000E+00  1.60000000E+01  1.00800000E+00
  1.00800000E+00  1.60000000E+01  1.00800000E+00  1.00800000E+00  1.60000000E+01
  1.00800000E+00  1.00800000E+00  1.60000000E+01  1.00800000E+00  1.00800000E+00
  1.60000000E+01  1.00800000E+00  1.00800000E+00  1.60000000E+01  1.00800000E+00
  1.00800000E+00  1.60000000E+01  1.00800000E+00  1.00800000E+00  1.60000000E+01
  1.00800000E+00  1.00800000E+00  1.60000000E+01  1.00800000E+00  1.00800000E+00
  1.60000000E+01  1.00800000E+00  1.00800000E+00  1.60000000E+01  1.00800000E+00
  1.00800000E+00  1.60000000E+01  1.00800000E+00  1.00800000E+00  1.60000000E+01
  1.00800000E+00  1.00800000E+00  1.60000000E+01  1.00800000E+00  1.00800000E+00
  1.60000000E+01  1.00800000E+00  1.00800000E+00  1.60000000E+01  1.00800000E+00
  1.00800000E+00  1.60000000E+01  1.00800000E+00  1.00800000E+00  1.60000000E+01
  1.00800000E+00  1.00800000E+00  1.60000000E+01  1.00800000E+00  1.00800000E+00
  1.60000000E+01  1.00800000E+00  1.00800000E+00  1.60000000E+01  1.00800000E+00
  1.00800000E+00  1.60000000E+01  1.00800000E+00  1.00800000E+00  1.60000000E+01
  1.00800000E+00  1.00800000E+00  1.60000000E+01  1.00800000E+00  1.00800000E+00
  1.60000000E+01  1.00800000E+00  1.00800000E+00  1.60000000E+01  1.00800000E+00
  1.00800000E+00  1.60000000E+01  1.00800000E+00  1.00800000E+00  1.60000000E+01
  1.00800000E+00  1.00800000E+00  1.60000000E+01  1.00800000E+00  1.00800000E+00
  1.60000000E+01  1.00800000E+00  1.00800000E+00  1.60000000E+01  1.00800000E+00
  1.00800000E+00  1.60000000E+01  1.00800000E+00  1.00800000E+00  1.60000000E+01
  1.00800000E+00  1.00800000E+00  1.60000000E+01  1.00800000E+00  1.00800000E+00
  1.60000000E+01  1.00800000E+00  1.00800000E+00  1.60000000E+01  1.00800000E+00
  1.00800000E+00  1.60000000E+01  1.00800000E+00  1.00800000E+00  1.60000000E+01
  1.00800000E+00  1.00800000E+00  1.60000000E+01  1.00800000E+00  1.00800000E+00
  1.60000000E+01  1.00800000E+00  1.00800000E+00  1.60000000E+01  1.00800000E+00
  1.00800000E+00  1.60000000E+01  1.00800000E+00  1.00800000E+00  1.60000000E+01
  1.00800000E+00  1.00800000E+00  1.60000000E+01  1.00800000E+00  1.00800000E+00
  1.60000000E+01  1.00800000E+00  1.00800000E+00  1.60000000E+01  1.00800000E+00
  1.00800000E+00  1.60000000E+01  1.00800000E+00  1.00800000E+00  1.60000000E+01
  1.00800000E+00  1.00800000E+00  1.60000000E+01  1.00800000E+00  1.00800000E+00
  1.60000000E+01  1.00800000E+00  1.00800000E+00  1.60000000E+01  1.00800000E+00
  1.00800000E+00  1.60000000E+01  1.00800000E+00  1.00800000E+00  1.60000000E+01
  1.00800000E+00  1.00800000E+00  1.60000000E+01  1.00800000E+00  1.00800000E+00
  1.60000000E+01  1.00800000E+00  1.00800000E+00  1.60000000E+01  1.00800000E+00
  1.00800000E+00  1.60000000E+01  1.00800000E+00  1.00800000E+00  1.60000000E+01
  1.00800000E+00  1.00800000E+00  1.60000000E+01  1.00800000E+00  1.00800000E+00
  1.60000000E+01  1.00800000E+00  1.00800000E+00  1.60000000E+01  1.00800000E+00
  1.00800000E+00  1.60000000E+01  1.00800000E+00  1.00800000E+00  1.60000000E+01
  1.00800000E+00  1.00800000E+00  1.60000000E+01  1.00800000E+00  1.00800000E+00
  1.60000000E+01  1.00800000E+00  1.00800000E+00  1.60000000E+01  1.00800000E+00
  1.00800000E+00  1.60000000E+01  1.00800000E+00  1.00800000E+00  1.60000000E+01
  1.00800000E+00  1.00800000E+00  1.60000000E+01  1.00800000E+00  1.00800000E+00
  1.60000000E+01  1.00800000E+00  1.00800000E+00  1.60000000E+01  1.00800000E+00
  1.00800000E+00  1.60000000E+01  1.00800000E+00  1.00800000E+00  1.60000000E+01
  1.00800000E+00  1.00800000E+00  1.60000000E+01  1.00800000E+00  1.00800000E+00
  1.60000000E+01  1.00800000E+00  1.00800000E+00  1.60000000E+01  1.00800000E+00
  1.00800000E+00  1.60000000E+01  1.00800000E+00  1.00800000E+00  1.60000000E+01
  1.00800000E+00  1.00800000E+00  1.60000000E+01  1.00800000E+00  1.00800000E+00
  1.60000000E+01  1.00800000E+00  1.00800000E+00  1.60000000E+01  1.00800000E+00
  1.00800000E+00  1.60000000E+01  1.00800000E+00  1.00800000E+00  1.60000000E+01
  1.00800000E+00  1.00800000E+00  1.60000000E+01  1.00800000E+00  1.00800000E+00
  1.60000000E+01  1.00800000E+00  1.00800000E+00  1.60000000E+01  1.00800000E+00
  1.00800000E+00  1.60000000E+01  1.00800000E+00  1.00800000E+00  1.60000000E+01
  1.00800000E+00  1.00800000E+00  1.60000000E+01  1.00800000E+00  1.00800000E+00
  1.60000000E+01  1.00800000E+00  1.00800000E+00  1.60000000E+01  1.00800000E+00
  1.00800000E+00  1.60000000E+01  1.00800000E+00  1.00800000E+00  1.60000000E+01
  1.00800000E+00  1.00800000E+00  1.60000000E+01  1.00800000E+00  1.00800000E+00
  1.60000000E+01  1.00800000E+00  1.00800000E+00  1.60000000E+01  1.00800000E+00
  1.00800000E+00  1.60000000E+01  1.00800000E+00  1.00800000E+00  1.60000000E+01
  1.00800000E+00  1.00800000E+00  1.60000000E+01  1.00800000E+00  1.00800000E+00
  1.60000000E+01  1.00800000E+00  1.00800000E+00  1.60000000E+01  1.00800000E+00
  1.00800000E+00  1.60000000E+01  1.00800000E+00  1.00800000E+00  1.60000000E+01
  1.00800000E+00  1.00800000E+00  1.60000000E+01  1.00800000E+00  1.00800000E+00
  1.60000000E+01  1.00800000E+00  1.00800000E+00  1.60000000E+01  1.00800000E+00
  1.00800000E+00  1.60000000E+01  1.00800000E+00  1.00800000E+00  1.60000000E+01
  1.00800000E+00  1.00800000E+00  1.60000000E+01  1.00800000E+00  1.00800000E+00
  1.60000000E+01  1.00800000E+00  1.00800000E+00  1.60000000E+01  1.00800000E+00
  1.00800000E+00  1.60000000E+01  1.00800000E+00  1.00800000E+00  1.60000000E+01
  1.00800000E+00  1.00800000E+00  1.60000000E+01  1.00800000E+00  1.00800000E+00
  1.60000000E+01  1.00800000E+00  1.00800000E+00  1.60000000E+01  1.00800000E+00
  1.00800000E+00  1.60000000E+01  1.00800000E+00  1.00800000E+00  1.60000000E+01
  1.00800000E+00  1.00800000E+00  1.60000000E+01  1.00800000E+00  1.00800000E+00
  1.60000000E+01  1.00800000E+00  1.00800000E+00  1.60000000E+01  1.00800000E+00
  1.00800000E+00  1.60000000E+01  1.00800000E+00  1.00800000E+00  1.60000000E+01
  1.00800000E+00  1.00800000E+00  1.60000000E+01  1.00800000E+00  1.00800000E+00
  1.60000000E+01  1.00800000E+00  1.00800000E+00  1.60000000E+01  1.00800000E+00
  1.00800000E+00  1.60000000E+01  1.00800000E+00  1.00800000E+00  1.60000000E+01
  1.00800000E+00  1.00800000E+00  1.60000000E+01  1.00800000E+00  1.00800000E+00
  1.60000000E+01  1.00800000E+00  1.00800000E+00  1.60000000E+01  1.00800000E+00
  1.00800000E+00  1.60000000E+01  1.00800000E+00  1.00800000E+00  1.60000000E+01
  1.00800000E+00  1.00800000E+00  1.60000000E+01  1.00800000E+00  1.00800000E+00
  1.60000000E+01  1.00800000E+00  1.00800000E+00  1.60000000E+01  1.00800000E+00
  1.00800000E+00  1.60000000E+01  1.00800000E+00  1.00800000E+00  1.60000000E+01
  1.00800000E+00  1.00800000E+00  1.60000000E+01  1.00800000E+00  1.00800000E+00
  1.60000000E+01  1.00800000E+00  1.00800000E+00  1.60000000E+01  1.00800000E+00
  1.00800000E+00  1.60000000E+01  1.00800000E+00  1.00800000E+00  1.60000000E+01
  1.00800000E+00  1.00800000E+00  1.60000000E+01  1.00800000E+00  1.00800000E+00
  1.60000000E+01  1.00800000E+00  1.00800000E+00  1.60000000E+01  1.00800000E+00
  1.00800000E+00  1.60000000E+01  1.00800000E+00  1.00800000E+00  1.60000000E+01
  1.00800000E+00  1.00800000E+00  1.60000000E+01  1.00800000E+00  1.00800000E+00
  1.60000000E+01  1.00800000E+00  1.00800000E+00  1.60000000E+01  1.00800000E+00
  1.00800000E+00  1.60000000E+01  1.00800000E+00  1.00800000E+00  1.60000000E+01
  1.00800000E+00  1.00800000E+00  1.60000000E+01  1.00800000E+00  1.00800000E+00
  1.60000000E+01  1.00800000E+00  1.00800000E+00  1.60000000E+01  1.00800000E+00
  1.00800000E+00  1.60000000E+01  1.00800000E+00  1.00800000E+00  1.60000000E+01
  1.00800000E+00  1.00800000E+00  1.60000000E+01  1.00800000E+00  1.00800000E+00
  1.60000000E+01  1.00800000E+00  1.00800000E+00  1.60000000E+01  1.00800000E+00
  1.00800000E+00  1.60000000E+01  1.00800000E+00  1.00800000E+00  1.60000000E+01
  1.00800000E+00  1.00800000E+00  1.60000000E+01  1.00800000E+00  1.00800000E+00
  1.60000000E+01  1.00800000E+00  1.00800000E+00  1.60000000E+01  1.00800000E+00
  1.00800000E+00  1.60000000E+01  1.00800000E+00  1.00800000E+00  1.60000000E+01
  1.00800000E+00  1.00800000E+00  1.60000000E+01  1.00800000E+00  1.00800000E+00
  1.60000000E+01  1.00800000E+00  1.00800000E+00  1.60000000E+01  1.00800000E+00
  1.00800000E+00  1.60000000E+01  1.00800000E+00  1.00800000E+00  1.60000000E+01
  1.00800000E+00  1.00800000E+00  1.60000000E+01  1.00800000E+00  1.00800000E+00
  1.60000000E+01  1.00800000E+00  1.00800000E+00  1.60000000E+01  1.00800000E+00
  1.00800000E+00  1.60000000E+01  1.00800000E+00  1.00800000E+00  1.60000000E+01
  1.00800000E+00  1.00800000E+00  1.60000000E+01  1.00800000E+00  1.00800000E+00
  1.60000000E+01  1.00800000E+00  1.00800000E+00  1.60000000E+01  1.00800000E+00
  1.00800000E+00  1.60000000E+01  1.00800000E+00  1.00800000E+00  1.60000000E+01
  1.00800000E+00  1.00800000E+00  1.60000000E+01  1.00800000E+00  1.00800000E+00
  1.60000000E+01  1.00800000E+00  1.00800000E+00  1.60000000E+01  1.00800000E+00
  1.00800000E+00  1.60000000E+01  1.00800000E+00  1.00800000E+00  1.60000000E+01
  1.00800000E+00  1.00800000E+00  1.60000000E+01  1.00800000E+00  1.00800000E+00
  1.60000000E+01  1.00800000E+00  1.00800000E+00  1.60000000E+01  1.00800000E+00
  1.00800000E+00  1.60000000E+01  1.00800000E+00  1.00800000E+00  1.60000000E+01
  1.00800000E+00  1.00800000E+00  1.60000000E+01  1.00800000E+00  1.00800000E+00
  1.60000000E+01  1.00800000E+00  1.00800000E+00  1.60000000E+01  1.00800000E+00
  1.00800000E+00  1.60000000E+01  1.00800000E+00  1.00800000E+00  1.60000000E+01
  1.00800000E+00  1.00800000E+00  1.60000000E+01  1.00800000E+00  1.00800000E+00
  1.60000000E+01  1.00800000E+00  1.00800000E+00  1.60000000E+01  1.00800000E+00
  1.00800000E+00  1.60000000E+01  1.00800000E+00  1.00800000E+00  1.60000000E+01
  1.00800000E+00  1.00800000E+00  1.60000000E+01  1.00800000E+00  1.00800000E+00
  1.60000000E+01  1.00800000E+00  1.00800000E+00  1.60000000E+01  1.00800000E+00
  1.00800000E+00  1.60000000E+01  1.00800000E+00  1.00800000E+00  1.60000000E+01
  1.00800000E+00  1.00800000E+00  1.60000000E+01  1.00800000E+00  1.00800000E+00
  1.60000000E+01  1.00800000E+00  1.00800000E+00  1.60000000E+01  1.00800000E+00
  1.00800000E+00  1.60000000E+01  1.00800000E+00  1.00800000E+00  1.60000000E+01
  1.00800000E+00  1.00800000E+00  1.60000000E+01  1.00800000E+00  1.00800000E+00
  1.60000000E+01  1.00800000E+00  1.00800000E+00  1.60000000E+01  1.00800000E+00
  1.00800000E+00  1.60000000E+01  1.00800000E+00  1.00800000E+00  1.60000000E+01
  1.00800000E+00  1.00800000E+00  1.60000000E+01  1.00800000E+00  1.00800000E+00
  1.60000000E+01  1.00800000E+00  1.00800000E+00  1.60000000E+01  1.00800000E+00
  1.00800000E+00  1.60000000E+01  1.00800000E+00  1.00800000E+00  1.60000000E+01
  1.00800000E+00  1.00800000E+00  1.60000000E+01  1.00800000E+00  1.00800000E+00
  1.60000000E+01  1.00800000E+00  1.00800000E+00  1.60000000E+01  1.00800000E+00
  1.00800000E+00  1.60000000E+01  1.00800000E+00  1.00800000E+00  1.60000000E+01
  1.00800000E+00  1.00800000E+00  1.60000000E+01  1.00800000E+00  1.00800000E+00
  1.60000000E+01  1.00800000E+00  1.00800000E+00  1.60000000E+01  1.00800000E+00
  1.00800000E+00  1.60000000E+01  1.00800000E+00  1.00800000E+00  1.60000000E+01
  1.00800000E+00  1.00800000E+00  1.60000000E+01  1.00800000E+00  1.00800000E+00
  1.60000000E+01  1.00800000E+00  1.00800000E+00  1.60000000E+01  1.00800000E+00
  1.00800000E+00  1.60000000E+01  1.00800000E+00  1.00800000E+00  1.60000000E+01
  1.00800000E+00  1.00800000E+00  1.60000000E+01  1.00800000E+00  1.00800000E+00
  1.60000000E+01  1.00800000E+00  1.00800000E+00  1.60000000E+01  1.00800000E+00
  1.00800000E+00  1.60000000E+01  1.00800000E+00  1.00800000E+00  1.60000000E+01
  1.00800000E+00  1.00800000E+00  1.60000000E+01  1.00800000E+00  1.00800000E+00
  1.60000000E+01  1.00800000E+00  1.00800000E+00  1.60000000E+01  1.00800000E+00
  1.00800000E+00  1.60000000E+01  1.00800000E+00  1.00800000E+00  1.60000000E+01
  1.00800000E+00  1.00800000E+00  1.60000000E+01  1.00800000E+00  1.00800000E+00
  1.60000000E+01  1.00800000E+00  1.00800000E+00  1.60000000E+01  1.00800000E+00
  1.00800000E+00  1.60000000E+01  1.00800000E+00  1.00800000E+00  1.60000000E+01
  1.00800000E+00  1.00800000E+00  1.60000000E+01  1.00800000E+00  1.00800000E+00
  1.60000000E+01  1.00800000E+00  1.00800000E+00  1.60000000E+01  1.00800000E+00
  1.00800000E+00  1.60000000E+01  1.00800000E+00  1.00800000E+00  1.60000000E+01
  1.00800000E+00  1.00800000E+00  1.60000000E+01  1.00800000E+00  1.00800000E+00
  1.60000000E+01  1.00800000E+00  1.00800000E+00  1.60000000E+01  1.00800000E+00
  1.00800000E+00  1.60000000E+01  1.00800000E+00  1.00800000E+00  1.60000000E+01
  1.00800000E+00  1.00800000E+00  1.60000000E+01  1.00800000E+00  1.00800000E+00
  1.60000000E+01  1.00800000E+00  1.00800000E+00  1.60000000E+01  1.00800000E+00
  1.00800000E+00  1.60000000E+01  1.00800000E+00  1.00800000E+00  1.60000000E+01
  1.00800000E+00  1.00800000E+00  1.60000000E+01  1.00800000E+00  1.00800000E+00
  1.60000000E+01  1.00800000E+00  1.00800000E+00  1.60000000E+01  1.00800000E+00
  1.00800000E+00  1.60000000E+01  1.00800000E+00  1.00800000E+00  1.60000000E+01
  1.00800000E+00  1.00800000E+00  1.60000000E+01  1.00800000E+00  1.00800000E+00
  1.60000000E+01  1.00800000E+00  1.00800000E+00  1.60000000E+01  1.00800000E+00
  1.00800000E+00  1.60000000E+01  1.00800000E+00  1.00800000E+00  1.60000000E+01
  1.00800000E+00  1.00800000E+00  1.60000000E+01  1.00800000E+00  1.00800000E+00
  1.60000000E+01  1.00800000E+00  1.00800000E+00  1.60000000E+01  1.00800000E+00
  1.00800000E+00  1.60000000E+01  1.00800000E+00  1.00800000E+00  1.60000000E+01
  1.00800000E+00  1.00800000E+00  1.60000000E+01  1.00800000E+00  1.00800000E+00
  1.60000000E+01  1.00800000E+00  1.00800000E+00  1.60000000E+01  1.00800000E+00
  1.00800000E+00  1.60000000E+01  1.00800000E+00  1.00800000E+00  1.60000000E+01
  1.00800000E+00  1.00800000E+00  1.60000000E+01  1.00800000E+00  1.00800000E+00
  1.60000000E+01  1.00800000E+00  1.00800000E+00  1.60000000E+01  1.00800000E+00
  1.00800000E+00  1.60000000E+01  1.00800000E+00  1.00800000E+00  1.60000000E+01
  1.00800000E+00  1.00800000E+00  1.60000000E+01  1.00800000E+00  1.00800000E+00
  1.60000000E+01  1.00800000E+00  1.00800000E+00  1.60000000E+01  1.00800000E+00
  1.00800000E+00  1.60000000E+01  1.00800000E+00  1.00800000E+00  1.60000000E+01
  1.00800000E+00  1.00800000E+00  1.60000000E+01  1.00800000E+00  1.00800000E+00
  1.60000000E+01  1.00800000E+00  1.00800000E+00  1.60000000E+01  1.00800000E+00
  1.00800000E+00  1.60000000E+01  1.00800000E+00  1.00800000E+00  1.60000000E+01
  1.00800000E+00  1.00800000E+00  1.60000000E+01  1.00800000E+00  1.00800000E+00
  1.60000000E+01  1.00800000E+00  1.00800000E+00  1.60000000E+01  1.00800000E+00
  1.00800000E+00  1.60000000E+01  1.00800000E+00  1.00800000E+00  1.60000000E+01
  1.00800000E+00  1.00800000E+00  1.60000000E+01  1.00800000E+00  1.00800000E+00
  1.60000000E+01  1.00800000E+00  1.00800000E+00  1.60000000E+01  1.00800000E+00
  1.00800000E+00  1.60000000E+01  1.00800000E+00  1.00800000E+00  1.60000000E+01
  1.00800000E+00  1.00800000E+00  1.60000000E+01  1.00800000E+00  1.00800000E+00
  1.60000000E+01  1.00800000E+00  1.00800000E+00  1.60000000E+01  1.00800000E+00
  1.00800000E+00  1.60000000E+01  1.00800000E+00  1.00800000E+00  1.60000000E+01
  1.00800000E+00  1.00800000E+00  1.60000000E+01  1.00800000E+00  1.00800000E+00
  1.60000000E+01  1.00800000E+00  1.00800000E+00  1.60000000E+01  1.00800000E+00
  1.00800000E+00  1.60000000E+01  1.00800000E+00  1.00800000E+00  1.60000000E+01
  1.00800000E+00  1.00800000E+00  1.60000000E+01  1.00800000E+00  1.00800000E+00
  1.60000000E+01  1.00800000E+00  1.00800000E+00  1.60000000E+01  1.00800000E+00
  1.00800000E+00  1.60000000E+01  1.00800000E+00  1.00800000E+00  1.60000000E+01
  1.00800000E+00  1.00800000E+00  1.60000000E+01  1.00800000E+00  1.00800000E+00
  1.60000000E+01  1.00800000E+00  1.00800000E+00  1.60000000E+01  1.00800000E+00
  1.00800000E+00  1.60000000E+01  1.00800000E+00  1.00800000E+00  1.60000000E+01
  1.00800000E+00  1.00800000E+00  1.60000000E+01  1.00800000E+00  1.00800000E+00
  1.60000000E+01  1.00800000E+00  1.00800000E+00  1.60000000E+01  1.00800000E+00
  1.00800000E+00  1.60000000E+01  1.00800000E+00  1.00800000E+00  1.60000000E+01
  1.00800000E+00  1.00800000E+00  1.60000000E+01  1.00800000E+00  1.00800000E+00
  1.60000000E+01  1.00800000E+00  1.00800000E+00  1.60000000E+01  1.00800000E+00
  1.00800000E+00  1.60000000E+01  1.00800000E+00  1.00800000E+00  1.60000000E+01
  1.00800000E+00  1.00800000E+00  1.60000000E+01  1.00800000E+00  1.00800000E+00
  1.60000000E+01  1.00800000E+00  1.00800000E+00  1.60000000E+01  1.00800000E+00
  1.00800000E+00  1.60000000E+01  1.00800000E+00  1.00800000E+00  1.60000000E+01
  1.00800000E+00  1.00800000E+00  1.60000000E+01  1.00800000E+00  1.00800000E+00
  1.60000000E+01  1.00800000E+00  1.00800000E+00  1.60000000E+01  1.00800000E+00
  1.00800000E+00  1.60000000E+01  1.00800000E+00  1.00800000E+00  1.60000000E+01
  1.00800000E+00  1.00800000E+00  1.60000000E+01  1.00800000E+00  1.00800000E+00
  1.60000000E+01  1.00800000E+00  1.00800000E+00  1.60000000E+01  1.00800000E+00
  1.00800000E+00  1.60000000E+01  1.00800000E+00  1.00800000E+00  1.60000000E+01
  1.00800000E+00  1.00800000E+00  1.60000000E+01  1.00800000E+00  1.00800000E+00
  1.60000000E+01  1.00800000E+00  1.00800000E+00  1.60000000E+01  1.00800000E+00
  1.00800000E+00  1.60000000E+01  1.00800000E+00  1.00800000E+00  1.60000000E+01
  1.00800000E+00  1.00800000E+00  1.60000000E+01  1.00800000E+00  1.00800000E+00
  1.60000000E+01  1.00800000E+00  1.00800000E+00  1.60000000E+01  1.00800000E+00
  1.00800000E+00  1.60000000E+01  1.00800000E+00  1.00800000E+00  1.60000000E+01
  1.00800000E+00  1.00800000E+00  1.60000000E+01  1.00800000E+00  1.00800000E+00
  1.60000000E+01  1.00800000E+00  1.00800000E+00  1.60000000E+01  1.00800000E+00
  1.00800000E+00  1.60000000E+01  1.00800000E+00  1.00800000E+00  1.60000000E+01
  1.00800000E+00  1.00800000E+00  1.60000000E+01  1.00800000E+00  1.00800000E+00
  1.60000000E+01  1.00800000E+00  1.00800000E+00  1.60000000E+01  1.00800000E+00
  1.00800000E+00  1.60000000E+01  1.00800000E+00  1.00800000E+00  1.60000000E+01
  1.00800000E+00  1.00800000E+00  1.60000000E+01  1.00800000E+00  1.00800000E+00
  1.60000000E+01  1.00800000E+00  1.00800000E+00  1.60000000E+01  1.00800000E+00
  1.00800000E+00  1.60000000E+01  1.00800000E+00  1.00800000E+00  1.60000000E+01
  1.00800000E+00  1.00800000E+00  1.60000000E+01  1.00800000E+00  1.00800000E+00
  1.60000000E+01  1.00800000E+00  1.00800000E+00  1.60000000E+01  1.00800000E+00
  1.00800000E+00  1.60000000E+01  1.00800000E+00  1.00800000E+00  1.60000000E+01
  1.00800000E+00  1.00800000E+00  1.60000000E+01  1.00800000E+00  1.00800000E+00
  1.60000000E+01  1.00800000E+00  1.00800000E+00  1.60000000E+01  1.00800000E+00
  1.00800000E+00  1.60000000E+01  1.00800000E+00  1.00800000E+00  1.60000000E+01
  1.00800000E+00  1.00800000E+00  1.60000000E+01  1.00800000E+00  1.00800000E+00
  1.60000000E+01  1.00800000E+00  1.00800000E+00  1.60000000E+01  1.00800000E+00
  1.00800000E+00  1.60000000E+01  1.00800000E+00  1.00800000E+00  1.60000000E+01
  1.00800000E+00  1.00800000E+00  1.60000000E+01  1.00800000E+00  1.00800000E+00
  1.60000000E+01  1.00800000E+00  1.00800000E+00  1.60000000E+01  1.00800000E+00
  1.00800000E+00  1.60000000E+01  1.00800000E+00  1.00800000E+00  1.60000000E+01
  1.00800000E+00  1.00800000E+00  1.60000000E+01  1.00800000E+00  1.00800000E+00
  1.60000000E+01  1.00800000E+00  1.00800000E+00  1.60000000E+01  1.00800000E+00
  1.00800000E+00  1.60000000E+01  1.00800000E+00  1.00800000E+00  1.60000000E+01
  1.00800000E+00  1.00800000E+00  1.60000000E+01  1.00800000E+00  1.00800000E+00
  1.60000000E+01  1.00800000E+00  1.00800000E+00  1.60000000E+01  1.00800000E+00
  1.00800000E+00  1.60000000E+01  1.00800000E+00  1.00800000E+00  1.60000000E+01
  1.00800000E+00  1.00800000E+00  1.60000000E+01  1.00800000E+00  1.00800000E+00
  1.60000000E+01  1.00800000E+00  1.00800000E+00  1.60000000E+01  1.00800000E+00
  1.00800000E+00  1.60000000E+01  1.00800000E+00  1.00800000E+00  1.60000000E+01
  1.00800000E+00  1.00800000E+00  1.60000000E+01  1.00800000E+00  1.00800000E+00
  1.60000000E+01  1.00800000E+00  1.00800000E+00  1.60000000E+01  1.00800000E+00
  1.00800000E+00  1.60000000E+01  1.00800000E+00  1.00800000E+00  1.60000000E+01
  1.00800000E+00  1.00800000E+00  1.60000000E+01  1.00800000E+00  1.00800000E+00
  1.60000000E+01  1.00800000E+00  1.00800000E+00  1.60000000E+01  1.00800000E+00
  1.00800000E+00  1.60000000E+01  1.00800000E+00  1.00800000E+00  1.60000000E+01
  1.00800000E+00  1.00800000E+00  1.60000000E+01  1.00800000E+00  1.00800000E+00
  1.60000000E+01  1.00800000E+00  1.00800000E+00  1.60000000E+01  1.00800000E+00
  1.00800000E+00  1.60000000E+01  1.00800000E+00  1.00800000E+00  1.60000000E+01
  1.00800000E+00  1.00800000E+00  1.60000000E+01  1.00800000E+00  1.00800000E+00
  1.60000000E+01  1.00800000E+00  1.00800000E+00  1.60000000E+01  1.00800000E+00
  1.00800000E+00  1.60000000E+01  1.00800000E+00  1.00800000E+00  1.60000000E+01
  1.00800000E+00  1.00800000E+00  1.60000000E+01  1.00800000E+00  1.00800000E+00
  1.60000000E+01  1.00800000E+00  1.00800000E+00  1.60000000E+01  1.00800000E+00
  1.00800000E+00  1.60000000E+01  1.00800000E+00  1.00800000E+00  1.60000000E+01
  1.00800000E+00  1.00800000E+00  1.60000000E+01  1.00800000E+00  1.00800000E+00
  1.60000000E+01  1.00800000E+00  1.00800000E+00  1.60000000E+01  1.00800000E+00
  1.00800000E+00  1.60000000E+01  1.00800000E+00  1.00800000E+00  1.60000000E+01
  1.00800000E+00  1.00800000E+00  1.60000000E+01  1.00800000E+00  1.00800000E+00
  1.60000000E+01  1.00800000E+00  1.00800000E+00  1.60000000E+01  1.00800000E+00
  1.00800000E+00  1.60000000E+01  1.00800000E+00  1.00800000E+00  1.60000000E+01
  1.00800000E+00  1.00800000E+00  1.60000000E+01  1.00800000E+00  1.00800000E+00
  1.60000000E+01  1.00800000E+00  1.00800000E+00  1.60000000E+01  1.00800000E+00
  1.00800000E+00  1.60000000E+01  1.00800000E+00  1.00800000E+00  1.60000000E+01
  1.00800000E+00  1.00800000E+00  1.60000000E+01  1.00800000E+00  1.00800000E+00
  1.60000000E+01  1.00800000E+00  1.00800000E+00  1.60000000E+01  1.00800000E+00
  1.00800000E+00  1.60000000E+01  1.00800000E+00  1.00800000E+00  1.60000000E+01
  1.00800000E+00  1.00800000E+00  1.60000000E+01  1.00800000E+00  1.00800000E+00
  1.60000000E+01  1.00800000E+00  1.00800000E+00  1.60000000E+01  1.00800000E+00
  1.00800000E+00  1.60000000E+01  1.00800000E+00  1.00800000E+00  1.60000000E+01
  1.00800000E+00  1.00800000E+00  1.60000000E+01  1.00800000E+00  1.00800000E+00
  1.60000000E+01  1.00800000E+00  1.00800000E+00  1.60000000E+01  1.00800000E+00
  1.00800000E+00  1.60000000E+01  1.00800000E+00  1.00800000E+00  1.60000000E+01
  1.00800000E+00  1.00800000E+00  1.60000000E+01  1.00800000E+00  1.00800000E+00
  1.60000000E+01  1.00800000E+00  1.00800000E+00  1.60000000E+01  1.00800000E+00
  1.00800000E+00  1.60000000E+01  1.00800000E+00  1.00800000E+00  1.60000000E+01
  1.00800000E+00  1.00800000E+00  1.60000000E+01  1.00800000E+00  1.00800000E+00
  1.60000000E+01  1.00800000E+00  1.00800000E+00  1.60000000E+01  1.00800000E+00
  1.00800000E+00  1.60000000E+01  1.00800000E+00  1.00800000E+00  1.60000000E+01
  1.00800000E+00  1.00800000E+00  1.60000000E+01  1.00800000E+00  1.00800000E+00
  1.60000000E+01  1.00800000E+00  1.00800000E+00  1.60000000E+01  1.00800000E+00
  1.00800000E+00  1.60000000E+01  1.00800000E+00  1.00800000E+00  1.60000000E+01
  1.00800000E+00  1.00800000E+00  1.60000000E+01  1.00800000E+00  1.00800000E+00
  1.60000000E+01  1.00800000E+00  1.00800000E+00  1.60000000E+01  1.00800000E+00
  1.00800000E+00  1.60000000E+01  1.00800000E+00  1.00800000E+00  1.60000000E+01
  1.00800000E+00  1.00800000E+00  1.60000000E+01  1.00800000E+00  1.00800000E+00
  1.60000000E+01  1.00800000E+00  1.00800000E+00  1.60000000E+01  1.00800000E+00
  1.00800000E+00  1.60000000E+01  1.00800000E+00  1.00800000E+00  1.60000000E+01
  1.00800000E+00  1.00800000E+00  1.60000000E+01  1.00800000E+00  1.00800000E+00
  1.60000000E+01  1.00800000E+00  1.00800000E+00  1.60000000E+01  1.00800000E+00
  1.00800000E+00  1.60000000E+01  1.00800000E+00  1.00800000E+00  1.60000000E+01
  1.00800000E+00  1.00800000E+00  1.60000000E+01  1.00800000E+00  1.00800000E+00
  1.60000000E+01  1.00800000E+00  1.00800000E+00  1.60000000E+01  1.00800000E+00
  1.00800000E+00  1.60000000E+01  1.00800000E+00  1.00800000E+00  1.60000000E+01
  1.00800000E+00  1.00800000E+00  1.60000000E+01  1.00800000E+00  1.00800000E+00
  1.60000000E+01  1.00800000E+00  1.00800000E+00  1.60000000E+01  1.00800000E+00
  1.00800000E+00  1.60000000E+01  1.00800000E+00  1.00800000E+00  1.60000000E+01
  1.00800000E+00  1.00800000E+00  1.60000000E+01  1.00800000E+00  1.00800000E+00
  1.60000000E+01  1.00800000E+00  1.00800000E+00  1.60000000E+01  1.00800000E+00
  1.00800000E+00  1.60000000E+01  1.00800000E+00  1.00800000E+00  1.60000000E+01
  1.00800000E+00  1.00800000E+00  1.60000000E+01  1.00800000E+00  1.00800000E+00
  1.60000000E+01  1.00800000E+00  1.00800000E+00  1.60000000E+01  1.00800000E+00
  1.00800000E+00  1.60000000E+01  1.00800000E+00  1.00800000E+00  1.60000000E+01
  1.00800000E+00  1.00800000E+00  1.60000000E+01  1.00800000E+00  1.00800000E+00
  1.60000000E+01  1.00800000E+00  1.00800000E+00  1.60000000E+01  1.00800000E+00
  1.00800000E+00  1.60000000E+01  1.00800000E+00  1.00800000E+00  1.60000000E+01
  1.00800000E+00  1.00800000E+00  1.60000000E+01  1.00800000E+00  1.00800000E+00
  1.60000000E+01  1.00800000E+00  1.00800000E+00  1.60000000E+01  1.00800000E+00
  1.00800000E+00  1.60000000E+01  1.00800000E+00  1.00800000E+00  1.60000000E+01
  1.00800000E+00  1.00800000E+00  1.60000000E+01  1.00800000E+00  1.00800000E+00
  1.60000000E+01  1.00800000E+00  1.00800000E+00  1.60000000E+01  1.00800000E+00
  1.00800000E+00  1.60000000E+01  1.00800000E+00  1.00800000E+00  1.60000000E+01
  1.00800000E+00  1.00800000E+00  1.60000000E+01  1.00800000E+00  1.00800000E+00
  1.60000000E+01  1.00800000E+00  1.00800000E+00  1.60000000E+01  1.00800000E+00
  1.00800000E+00  1.60000000E+01  1.00800000E+00  1.00800000E+00  1.60000000E+01
  1.00800000E+00  1.00800000E+00  1.60000000E+01  1.00800000E+00  1.00800000E+00
  1.60000000E+01  1.00800000E+00  1.00800000E+00  1.60000000E+01  1.00800000E+00
  1.00800000E+00  1.60000000E+01  1.00800000E+00  1.00800000E+00  1.60000000E+01
  1.00800000E+00  1.00800000E+00  1.60000000E+01  1.00800000E+00  1.00800000E+00
  1.60000000E+01  1.00800000E+00  1.00800000E+00  1.60000000E+01  1.00800000E+00
  1.00800000E+00  1.60000000E+01  1.00800000E+00  1.00800000E+00  1.60000000E+01
  1.00800000E+00  1.00800000E+00  1.60000000E+01  1.00800000E+00  1.00800000E+00
  1.60000000E+01  1.00800000E+00  1.00800000E+00  1.60000000E+01  1.00800000E+00
  1.00800000E+00  1.60000000E+01  1.00800000E+00  1.00800000E+00  1.60000000E+01
  1.00800000E+00  1.00800000E+00  1.60000000E+01  1.00800000E+00  1.00800000E+00
  1.60000000E+01  1.00800000E+00  1.00800000E+00  1.60000000E+01  1.00800000E+00
  1.00800000E+00  1.60000000E+01  1.00800000E+00  1.00800000E+00  1.60000000E+01
  1.00800000E+00  1.00800000E+00  1.60000000E+01  1.00800000E+00  1.00800000E+00
  1.60000000E+01  1.00800000E+00  1.00800000E+00  1.60000000E+01  1.00800000E+00
  1.00800000E+00  1.60000000E+01  1.00800000E+00  1.00800000E+00  1.60000000E+01
  1.00800000E+00  1.00800000E+00  1.60000000E+01  1.00800000E+00  1.00800000E+00
  1.60000000E+01  1.00800000E+00  1.00800000E+00  1.60000000E+01  1.00800000E+00
  1.00800000E+00  1.60000000E+01  1.00800000E+00  1.00800000E+00  1.60000000E+01
  1.00800000E+00  1.00800000E+00  1.60000000E+01  1.00800000E+00  1.00800000E+00
  1.60000000E+01  1.00800000E+00  1.00800000E+00  1.60000000E+01  1.00800000E+00
  1.00800000E+00  1.60000000E+01  1.00800000E+00  1.00800000E+00  1.60000000E+01
  1.00800000E+00  1.00800000E+00  1.60000000E+01  1.00800000E+00  1.00800000E+00
  1.60000000E+01  1.00800000E+00  1.00800000E+00  1.60000000E+01  1.00800000E+00
  1.00800000E+00  1.60000000E+01  1.00800000E+00  1.00800000E+00  1.60000000E+01
  1.00800000E+00  1.00800000E+00  1.60000000E+01  1.00800000E+00  1.00800000E+00
  1.60000000E+01  1.00800000E+00  1.00800000E+00  1.60000000E+01  1.00800000E+00
  1.00800000E+00  1.60000000E+01  1.00800000E+00  1.00800000E+00  1.60000000E+01
  1.00800000E+00  1.00800000E+00  1.60000000E+01  1.00800000E+00  1.00800000E+00
  1.60000000E+01  1.00800000E+00  1.00800000E+00  1.60000000E+01  1.00800000E+00
  1.00800000E+00  1.60000000E+01  1.00800000E+00  1.00800000E+00  1.60000000E+01
  1.00800000E+00  1.00800000E+00  1.60000000E+01  1.00800000E+00  1.00800000E+00
  1.60000000E+01  1.00800000E+00  1.00800000E+00  1.60000000E+01  1.00800000E+00
  1.00800000E+00  1.60000000E+01  1.00800000E+00  1.00800000E+00  1.60000000E+01
  1.00800000E+00  1.00800000E+00  1.60000000E+01  1.00800000E+00  1.00800000E+00
  1.60000000E+01  1.00800000E+00  1.00800000E+00  1.60000000E+01  1.00800000E+00
  1.00800000E+00  1.60000000E+01  1.00800000E+00  1.00800000E+00  1.60000000E+01
  1.00800000E+00  1.00800000E+00  1.60000000E+01  1.00800000E+00  1.00800000E+00
  1.60000000E+01  1.00800000E+00  1.00800000E+00  1.60000000E+01  1.00800000E+00
  1.00800000E+00  1.60000000E+01  1.00800000E+00  1.00800000E+00  1.60000000E+01
  1.00800000E+00  1.00800000E+00  1.60000000E+01  1.00800000E+00  1.00800000E+00
  1.60000000E+01  1.00800000E+00  1.00800000E+00  1.60000000E+01  1.00800000E+00
  1.00800000E+00  1.60000000E+01  1.00800000E+00  1.00800000E+00  1.60000000E+01
  1.00800000E+00  1.00800000E+00  1.60000000E+01  1.00800000E+00  1.00800000E+00
  1.60000000E+01  1.00800000E+00  1.00800000E+00  1.60000000E+01  1.00800000E+00
  1.00800000E+00  1.60000000E+01  1.00800000E+00  1.00800000E+00  1.60000000E+01
  1.00800000E+00  1.00800000E+00  1.60000000E+01  1.00800000E+00  1.00800000E+00
  1.60000000E+01  1.00800000E+00  1.00800000E+00  1.60000000E+01  1.00800000E+00
  1.00800000E+00  1.60000000E+01  1.00800000E+00  1.00800000E+00  1.60000000E+01
  1.00800000E+00  1.00800000E+00  1.60000000E+01  1.00800000E+00  1.00800000E+00
  1.60000000E+01  1.00800000E+00  1.00800000E+00  1.60000000E+01  1.00800000E+00
  1.00800000E+00  1.60000000E+01  1.00800000E+00  1.00800000E+00  1.60000000E+01
  1.00800000E+00  1.00800000E+00  1.60000000E+01  1.00800000E+00  1.00800000E+00
  1.60000000E+01  1.00800000E+00  1.00800000E+00  1.60000000E+01  1.00800000E+00
  1.00800000E+00  1.60000000E+01  1.00800000E+00  1.00800000E+00  1.60000000E+01
  1.00800000E+00  1.00800000E+00  1.60000000E+01  1.00800000E+00  1.00800000E+00
  1.60000000E+01  1.00800000E+00  1.00800000E+00  1.60000000E+01  1.00800000E+00
  1.00800000E+00  1.60000000E+01  1.00800000E+00  1.00800000E+00  1.60000000E+01
  1.00800000E+00  1.00800000E+00  1.60000000E+01  1.00800000E+00  1.00800000E+00
  1.60000000E+01  1.00800000E+00  1.00800000E+00  1.60000000E+01  1.00800000E+00
  1.00800000E+00  1.60000000E+01  1.00800000E+00  1.00800000E+00  1.60000000E+01
  1.00800000E+00  1.00800000E+00  1.60000000E+01  1.00800000E+00  1.00800000E+00
  1.60000000E+01  1.00800000E+00  1.00800000E+00  1.60000000E+01  1.00800000E+00
  1.00800000E+00  1.60000000E+01  1.00800000E+00  1.00800000E+00  1.60000000E+01
  1.00800000E+00  1.00800000E+00  1.60000000E+01  1.00800000E+00  1.00800000E+00
  1.60000000E+01  1.00800000E+00  1.00800000E+00  1.60000000E+01  1.00800000E+00
  1.00800000E+00  1.60000000E+01  1.00800000E+00  1.00800000E+00  1.60000000E+01
  1.00800000E+00  1.00800000E+00  1.60000000E+01  1.00800000E+00  1.00800000E+00
  1.60000000E+01  1.00800000E+00  1.00800000E+00  1.60000000E+01  1.00800000E+00
  1.00800000E+00  1.60000000E+01  1.00800000E+00  1.00800000E+00  1.60000000E+01
  1.00800000E+00  1.00800000E+00  1.60000000E+01  1.00800000E+00  1.00800000E+00
  1.60000000E+01  1.00800000E+00  1.00800000E+00  1.60000000E+01  1.00800000E+00
  1.00800000E+00  1.60000000E+01  1.00800000E+00  1.00800000E+00  1.60000000E+01
  1.00800000E+00  1.00800000E+00  1.60000000E+01  1.00800000E+00  1.00800000E+00
  1.60000000E+01  1.00800000E+00  1.00800000E+00  1.60000000E+01  1.00800000E+00
  1.00800000E+00  1.60000000E+01  1.00800000E+00  1.00800000E+00  1.60000000E+01
  1.00800000E+00  1.00800000E+00  1.60000000E+01  1.00800000E+00  1.00800000E+00
  1.60000000E+01  1.00800000E+00  1.00800000E+00  1.60000000E+01  1.00800000E+00
  1.00800000E+00  1.60000000E+01  1.00800000E+00  1.00800000E+00  1.60000000E+01
  1.00800000E+00  1.00800000E+00  1.60000000E+01  1.00800000E+00  1.00800000E+00
  1.60000000E+01  1.00800000E+00  1.00800000E+00  1.60000000E+01  1.00800000E+00
  1.00800000E+00  1.60000000E+01  1.00800000E+00  1.00800000E+00  1.60000000E+01
  1.00800000E+00  1.00800000E+00  1.60000000E+01  1.00800000E+00  1.00800000E+00
  1.60000000E+01  1.00800000E+00  1.00800000E+00  1.60000000E+01  1.00800000E+00
  1.00800000E+00  1.60000000E+01  1.00800000E+00  1.00800000E+00  1.60000000E+01
  1.00800000E+00  1.00800000E+00  1.60000000E+01  1.00800000E+00  1.00800000E+00
  1.60000000E+01  1.00800000E+00  1.00800000E+00  1.60000000E+01  1.00800000E+00
  1.00800000E+00  1.60000000E+01  1.00800000E+00  1.00800000E+00  1.60000000E+01
  1.00800000E+00  1.00800000E+00  1.60000000E+01  1.00800000E+00  1.00800000E+00
  1.60000000E+01  1.00800000E+00  1.00800000E+00  1.60000000E+01  1.00800000E+00
  1.00800000E+00  1.60000000E+01  1.00800000E+00  1.00800000E+00  1.60000000E+01
  1.00800000E+00  1.00800000E+00  1.60000000E+01  1.00800000E+00  1.00800000E+00
  1.60000000E+01  1.00800000E+00  1.00800000E+00  1.60000000E+01  1.00800000E+00
  1.00800000E+00  1.60000000E+01  1.00800000E+00  1.00800000E+00  1.60000000E+01
  1.00800000E+00  1.00800000E+00  1.60000000E+01  1.00800000E+00  1.00800000E+00
  1.60000000E+01  1.00800000E+00  1.00800000E+00  1.60000000E+01  1.00800000E+00
  1.00800000E+00  1.60000000E+01  1.00800000E+00  1.00800000E+00  1.60000000E+01
  1.00800000E+00  1.00800000E+00  1.60000000E+01  1.00800000E+00  1.00800000E+00
  1.60000000E+01  1.00800000E+00  1.00800000E+00  1.60000000E+01  1.00800000E+00
  1.00800000E+00  1.60000000E+01  1.00800000E+00  1.00800000E+00  1.60000000E+01
  1.00800000E+00  1.00800000E+00  1.60000000E+01  1.00800000E+00  1.00800000E+00
  1.60000000E+01  1.00800000E+00  1.00800000E+00  1.60000000E+01  1.00800000E+00
  1.00800000E+00  1.60000000E+01  1.00800000E+00  1.00800000E+00  1.60000000E+01
  1.00800000E+00  1.00800000E+00  1.60000000E+01  1.00800000E+00  1.00800000E+00
  1.60000000E+01  1.00800000E+00  1.00800000E+00  1.60000000E+01  1.00800000E+00
  1.00800000E+00  1.60000000E+01  1.00800000E+00  1.00800000E+00  1.60000000E+01
  1.00800000E+00  1.00800000E+00  1.60000000E+01  1.00800000E+00  1.00800000E+00
  1.60000000E+01  1.00800000E+00  1.00800000E+00  1.60000000E+01  1.00800000E+00
  1.00800000E+00  1.60000000E+01  1.00800000E+00  1.00800000E+00  1.60000000E+01
  1.00800000E+00  1.00800000E+00  1.60000000E+01  1.00800000E+00  1.00800000E+00
  1.60000000E+01  1.00800000E+00  1.00800000E+00  1.60000000E+01  1.00800000E+00
  1.00800000E+00  1.60000000E+01  1.00800000E+00  1.00800000E+00  1.60000000E+01
  1.00800000E+00  1.00800000E+00  1.60000000E+01  1.00800000E+00  1.00800000E+00
  1.60000000E+01  1.00800000E+00  1.00800000E+00  1.60000000E+01  1.00800000E+00
  1.00800000E+00  1.60000000E+01  1.00800000E+00  1.00800000E+00  1.60000000E+01
  1.00800000E+00  1.00800000E+00  1.60000000E+01  1.00800000E+00  1.00800000E+00
  1.60000000E+01  1.00800000E+00  1.00800000E+00  1.60000000E+01  1.00800000E+00
  1.00800000E+00  1.60000000E+01  1.00800000E+00  1.00800000E+00  1.60000000E+01
  1.00800000E+00  1.00800000E+00  1.60000000E+01  1.00800000E+00  1.00800000E+00
  1.60000000E+01  1.00800000E+00  1.00800000E+00  1.60000000E+01  1.00800000E+00
  1.00800000E+00  1.60000000E+01  1.00800000E+00  1.00800000E+00  1.60000000E+01
  1.00800000E+00  1.00800000E+00  1.60000000E+01  1.00800000E+00  1.00800000E+00
  1.60000000E+01  1.00800000E+00  1.00800000E+00  1.60000000E+01  1.00800000E+00
  1.00800000E+00  1.60000000E+01  1.00800000E+00  1.00800000E+00  1.60000000E+01
  1.00800000E+00  1.00800000E+00  1.60000000E+01  1.00800000E+00  1.00800000E+00
  1.60000000E+01  1.00800000E+00  1.00800000E+00  1.60000000E+01  1.00800000E+00
  1.00800000E+00  1.60000000E+01  1.00800000E+00  1.00800000E+00  1.60000000E+01
  1.00800000E+00  1.00800000E+00  1.60000000E+01  1.00800000E+00  1.00800000E+00
  1.60000000E+01  1.00800000E+00  1.00800000E+00  1.60000000E+01  1.00800000E+00
  1.00800000E+00  1.60000000E+01  1.00800000E+00  1.00800000E+00  1.60000000E+01
  1.00800000E+00  1.00800000E+00  1.60000000E+01  1.00800000E+00  1.00800000E+00
  1.60000000E+01  1.00800000E+00  1.00800000E+00  1.60000000E+01  1.00800000E+00
  1.00800000E+00  1.60000000E+01  1.00800000E+00  1.00800000E+00  1.60000000E+01
  1.00800000E+00  1.00800000E+00  1.60000000E+01  1.00800000E+00  1.00800000E+00
  1.60000000E+01  1.00800000E+00  1.00800000E+00  1.60000000E+01  1.00800000E+00
  1.00800000E+00  1.60000000E+01  1.00800000E+00  1.00800000E+00  1.60000000E+01
  1.00800000E+00  1.00800000E+00  1.60000000E+01  1.00800000E+00  1.00800000E+00
  1.60000000E+01  1.00800000E+00  1.00800000E+00  1.60000000E+01  1.00800000E+00
  1.00800000E+00  1.60000000E+01  1.00800000E+00  1.00800000E+00  1.60000000E+01
  1.00800000E+00  1.00800000E+00  1.60000000E+01  1.00800000E+00  1.00800000E+00
  1.60000000E+01  1.00800000E+00  1.00800000E+00  1.60000000E+01  1.00800000E+00
  1.00800000E+00  1.60000000E+01  1.00800000E+00  1.00800000E+00  1.60000000E+01
  1.00800000E+00  1.00800000E+00  1.60000000E+01  1.00800000E+00  1.00800000E+00
  1.60000000E+01  1.00800000E+00  1.00800000E+00  1.60000000E+01  1.00800000E+00
  1.00800000E+00  1.60000000E+01  1.00800000E+00  1.00800000E+00  1.60000000E+01
  1.00800000E+00  1.00800000E+00  1.60000000E+01  1.00800000E+00  1.00800000E+00
  1.60000000E+01  1.00800000E+00  1.00800000E+00  1.60000000E+01  1.00800000E+00
  1.00800000E+00  1.60000000E+01  1.00800000E+00  1.00800000E+00  1.60000000E+01
  1.00800000E+00  1.00800000E+00  1.60000000E+01  1.00800000E+00  1.00800000E+00
  1.60000000E+01  1.00800000E+00  1.00800000E+00  1.60000000E+01  1.00800000E+00
  1.00800000E+00  1.60000000E+01  1.00800000E+00  1.00800000E+00  1.60000000E+01
  1.00800000E+00  1.00800000E+00  1.60000000E+01  1.00800000E+00  1.00800000E+00
  1.60000000E+01  1.00800000E+00  1.00800000E+00  1.60000000E+01  1.00800000E+00
  1.00800000E+00  1.60000000E+01  1.00800000E+00  1.00800000E+00  1.60000000E+01
  1.00800000E+00  1.00800000E+00  1.60000000E+01  1.00800000E+00  1.00800000E+00
  1.60000000E+01  1.00800000E+00  1.00800000E+00  1.60000000E+01  1.00800000E+00
  1.00800000E+00  1.60000000E+01  1.00800000E+00  1.00800000E+00  1.60000000E+01
  1.00800000E+00  1.00800000E+00  1.60000000E+01  1.00800000E+00  1.00800000E+00
  1.60000000E+01  1.00800000E+00  1.00800000E+00  1.60000000E+01  1.00800000E+00
  1.00800000E+00  1.60000000E+01  1.00800000E+00  1.00800000E+00  1.60000000E+01
  1.00800000E+00  1.00800000E+00  1.60000000E+01  1.00800000E+00  1.00800000E+00
  1.60000000E+01  1.00800000E+00  1.00800000E+00  1.60000000E+01  1.00800000E+00
  1.00800000E+00  1.60000000E+01  1.00800000E+00  1.00800000E+00  1.60000000E+01
  1.00800000E+00  1.00800000E+00  1.60000000E+01  1.00800000E+00  1.00800000E+00
  1.60000000E+01  1.00800000E+00  1.00800000E+00  1.60000000E+01  1.00800000E+00
  1.00800000E+00  1.60000000E+01  1.00800000E+00  1.00800000E+00  1.60000000E+01
  1.00800000E+00  1.00800000E+00  1.60000000E+01  1.00800000E+00  1.00800000E+00
  1.60000000E+01  1.00800000E+00  1.00800000E+00  1.60000000E+01  1.00800000E+00
  1.00800000E+00  1.60000000E+01  1.00800000E+00  1.00800000E+00  1.60000000E+01
  1.00800000E+00  1.00800000E+00  1.60000000E+01  1.00800000E+00  1.00800000E+00
  1.60000000E+01  1.00800000E+00  1.00800000E+00  1.60000000E+01  1.00800000E+00
  1.00800000E+00  1.60000000E+01  1.00800000E+00  1.00800000E+00  1.60000000E+01
  1.00800000E+00  1.00800000E+00  1.60000000E+01  1.00800000E+00  1.00800000E+00
  1.60000000E+01  1.00800000E+00  1.00800000E+00  1.60000000E+01  1.00800000E+00
  1.00800000E+00  1.60000000E+01  1.00800000E+00  1.00800000E+00  1.60000000E+01
  1.00800000E+00  1.00800000E+00  1.60000000E+01  1.00800000E+00  1.00800000E+00
  1.60000000E+01  1.00800000E+00  1.00800000E+00  1.60000000E+01  1.00800000E+00
  1.00800000E+00  1.60000000E+01  1.00800000E+00  1.00800000E+00  1.60000000E+01
  1.00800000E+00  1.00800000E+00  1.60000000E+01  1.00800000E+00  1.00800000E+00
  1.60000000E+01  1.00800000E+00  1.00800000E+00  1.60000000E+01  1.00800000E+00
  1.00800000E+00  1.60000000E+01  1.00800000E+00  1.00800000E+00  1.60000000E+01
  1.00800000E+00  1.00800000E+00  1.60000000E+01  1.00800000E+00  1.00800000E+00
  1.60000000E+01  1.00800000E+00  1.00800000E+00  1.60000000E+01  1.00800000E+00
  1.00800000E+00  1.60000000E+01  1.00800000E+00  1.00800000E+00  1.60000000E+01
  1.00800000E+00  1.00800000E+00  1.60000000E+01  1.00800000E+00  1.00800000E+00
  1.60000000E+01  1.00800000E+00  1.00800000E+00  1.60000000E+01  1.00800000E+00
  1.00800000E+00  1.60000000E+01  1.00800000E+00  1.00800000E+00  1.60000000E+01
  1.00800000E+00  1.00800000E+00  1.60000000E+01  1.00800000E+00  1.00800000E+00
  1.60000000E+01  1.00800000E+00  1.00800000E+00  1.60000000E+01  1.00800000E+00
  1.00800000E+00  1.60000000E+01  1.00800000E+00  1.00800000E+00  1.60000000E+01
  1.00800000E+00  1.00800000E+00  1.60000000E+01  1.00800000E+00  1.00800000E+00
  1.60000000E+01  1.00800000E+00  1.00800000E+00  1.60000000E+01  1.00800000E+00
  1.00800000E+00  1.60000000E+01  1.00800000E+00  1.00800000E+00  1.60000000E+01
  1.00800000E+00  1.00800000E+00  1.60000000E+01  1.00800000E+00  1.00800000E+00
  1.60000000E+01  1.00800000E+00  1.00800000E+00  1.60000000E+01  1.00800000E+00
  1.00800000E+00  1.60000000E+01  1.00800000E+00  1.00800000E+00  1.60000000E+01
  1.00800000E+00  1.00800000E+00  1.60000000E+01  1.00800000E+00  1.00800000E+00
  1.60000000E+01  1.00800000E+00  1.00800000E+00  1.60000000E+01  1.00800000E+00
  1.00800000E+00  1.60000000E+01  1.00800000E+00  1.00800000E+00  1.60000000E+01
  1.00800000E+00  1.00800000E+00  1.60000000E+01  1.00800000E+00  1.00800000E+00
  1.60000000E+01  1.00800000E+00  1.00800000E+00  1.60000000E+01  1.00800000E+00
  1.00800000E+00  1.60000000E+01  1.00800000E+00  1.00800000E+00  1.60000000E+01
  1.00800000E+00  1.00800000E+00  1.60000000E+01  1.00800000E+00  1.00800000E+00
  1.60000000E+01  1.00800000E+00  1.00800000E+00  1.60000000E+01  1.00800000E+00
  1.00800000E+00  1.60000000E+01  1.00800000E+00  1.00800000E+00  1.60000000E+01
  1.00800000E+00  1.00800000E+00  1.60000000E+01  1.00800000E+00  1.00800000E+00
  1.60000000E+01  1.00800000E+00  1.00800000E+00  1.60000000E+01  1.00800000E+00
  1.00800000E+00  1.60000000E+01  1.00800000E+00  1.00800000E+00  1.60000000E+01
  1.00800000E+00  1.00800000E+00  1.60000000E+01  1.00800000E+00  1.00800000E+00
  1.60000000E+01  1.00800000E+00  1.00800000E+00  1.60000000E+01  1.00800000E+00
  1.00800000E+00  1.60000000E+01  1.00800000E+00  1.00800000E+00  1.60000000E+01
  1.00800000E+00  1.00800000E+00  1.60000000E+01  1.00800000E+00  1.00800000E+00
  1.60000000E+01  1.00800000E+00  1.00800000E+00  1.60000000E+01  1.00800000E+00
  1.00800000E+00  1.60000000E+01  1.00800000E+00  1.00800000E+00  1.60000000E+01
  1.00800000E+00  1.00800000E+00  1.60000000E+01  1.00800000E+00  1.00800000E+00
  1.60000000E+01  1.00800000E+00  1.00800000E+00  1.60000000E+01  1.00800000E+00
  1.00800000E+00  1.60000000E+01  1.00800000E+00  1.00800000E+00  1.60000000E+01
  1.00800000E+00  1.00800000E+00  1.60000000E+01  1.00800000E+00  1.00800000E+00
  1.60000000E+01  1.00800000E+00  1.00800000E+00  1.60000000E+01  1.00800000E+00
  1.00800000E+00  1.60000000E+01  1.00800000E+00  1.00800000E+00  1.60000000E+01
  1.00800000E+00  1.00800000E+00  1.60000000E+01  1.00800000E+00  1.00800000E+00
  1.60000000E+01  1.00800000E+00  1.00800000E+00  1.60000000E+01  1.00800000E+00
  1.00800000E+00  1.60000000E+01  1.00800000E+00  1.00800000E+00  1.60000000E+01
  1.00800000E+00  1.00800000E+00  1.60000000E+01  1.00800000E+00  1.00800000E+00
  1.60000000E+01  1.00800000E+00  1.00800000E+00  1.60000000E+01  1.00800000E+00
  1.00800000E+00  1.60000000E+01  1.00800000E+00  1.00800000E+00  1.60000000E+01
  1.00800000E+00  1.00800000E+00  1.60000000E+01  1.00800000E+00  1.00800000E+00
  1.60000000E+01  1.00800000E+00  1.00800000E+00  1.60000000E+01  1.00800000E+00
  1.00800000E+00  1.60000000E+01  1.00800000E+00  1.00800000E+00  1.60000000E+01
  1.00800000E+00  1.00800000E+00  1.60000000E+01  1.00800000E+00  1.00800000E+00
  1.60000000E+01  1.00800000E+00  1.00800000E+00  1.60000000E+01  1.00800000E+00
  1.00800000E+00  1.60000000E+01  1.00800000E+00  1.00800000E+00  1.60000000E+01
  1.00800000E+00  1.00800000E+00  1.60000000E+01  1.00800000E+00  1.00800000E+00
  1.60000000E+01  1.00800000E+00  1.00800000E+00  1.60000000E+01  1.00800000E+00
  1.00800000E+00  1.60000000E+01  1.00800000E+00  1.00800000E+00  1.60000000E+01
  1.00800000E+00  1.00800000E+00  1.60000000E+01  1.00800000E+00  1.00800000E+00
  1.60000000E+01  1.00800000E+00  1.00800000E+00  1.60000000E+01  1.00800000E+00
  1.00800000E+00  1.60000000E+01  1.00800000E+00  1.00800000E+00  1.60000000E+01
  1.00800000E+00  1.00800000E+00  1.60000000E+01  1.00800000E+00  1.00800000E+00
  1.60000000E+01  1.00800000E+00  1.00800000E+00  1.60000000E+01  1.00800000E+00
  1.00800000E+00  1.60000000E+01  1.00800000E+00  1.00800000E+00  1.60000000E+01
  1.00800000E+00  1.00800000E+00  1.60000000E+01  1.00800000E+00  1.00800000E+00
  1.60000000E+01  1.00800000E+00  1.00800000E+00  1.60000000E+01  1.00800000E+00
  1.00800000E+00  1.60000000E+01  1.00800000E+00  1.00800000E+00  1.60000000E+01
  1.00800000E+00  1.00800000E+00  1.60000000E+01  1.00800000E+00  1.00800000E+00
  1.60000000E+01  1.00800000E+00  1.00800000E+00  1.60000000E+01  1.00800000E+00
  1.00800000E+00  1.60000000E+01  1.00800000E+00  1.00800000E+00  1.60000000E+01
  1.00800000E+00  1.00800000E+00  1.60000000E+01  1.00800000E+00  1.00800000E+00
  1.60000000E+01  1.00800000E+00  1.00800000E+00  1.60000000E+01  1.00800000E+00
  1.00800000E+00  1.60000000E+01  1.00800000E+00  1.00800000E+00  1.60000000E+01
  1.00800000E+00  1.00800000E+00  1.60000000E+01  1.00800000E+00  1.00800000E+00
  1.60000000E+01  1.00800000E+00  1.00800000E+00  1.60000000E+01  1.00800000E+00
  1.00800000E+00  1.60000000E+01  1.00800000E+00  1.00800000E+00  1.60000000E+01
  1.00800000E+00  1.00800000E+00  1.60000000E+01  1.00800000E+00  1.00800000E+00
  1.60000000E+01  1.00800000E+00  1.00800000E+00  1.60000000E+01  1.00800000E+00
  1.00800000E+00  1.60000000E+01  1.00800000E+00  1.00800000E+00  1.60000000E+01
  1.00800000E+00  1.00800000E+00  1.60000000E+01  1.00800000E+00  1.00800000E+00
  1.60000000E+01  1.00800000E+00  1.00800000E+00  1.60000000E+01  1.00800000E+00
  1.00800000E+00  1.60000000E+01  1.00800000E+00  1.00800000E+00  1.60000000E+01
  1.00800000E+00  1.00800000E+00  1.60000000E+01  1.00800000E+00  1.00800000E+00
  1.60000000E+01  1.00800000E+00  1.00800000E+00  1.60000000E+01  1.00800000E+00
  1.00800000E+00  1.60000000E+01  1.00800000E+00  1.00800000E+00  1.60000000E+01
  1.00800000E+00  1.00800000E+00  1.60000000E+01  1.00800000E+00  1.00800000E+00
  1.60000000E+01  1.00800000E+00  1.00800000E+00  1.60000000E+01  1.00800000E+00
  1.00800000E+00  1.60000000E+01  1.00800000E+00  1.00800000E+00  1.60000000E+01
  1.00800000E+00  1.00800000E+00  1.60000000E+01  1.00800000E+00  1.00800000E+00
  1.60000000E+01  1.00800000E+00  1.00800000E+00  1.60000000E+01  1.00800000E+00
  1.00800000E+00  1.60000000E+01  1.00800000E+00  1.00800000E+00  1.60000000E+01
  1.00800000E+00  1.00800000E+00  1.60000000E+01  1.00800000E+00  1.00800000E+00
  1.60000000E+01  1.00800000E+00  1.00800000E+00  1.60000000E+01  1.00800000E+00
  1.00800000E+00  1.60000000E+01  1.00800000E+00  1.00800000E+00  1.60000000E+01
  1.00800000E+00  1.00800000E+00  1.60000000E+01  1.00800000E+00  1.00800000E+00
  1.60000000E+01  1.00800000E+00  1.00800000E+00  1.60000000E+01  1.00800000E+00
  1.00800000E+00  1.60000000E+01  1.00800000E+00  1.00800000E+00  1.60000000E+01
  1.00800000E+00  1.00800000E+00  1.60000000E+01  1.00800000E+00  1.00800000E+00
  1.60000000E+01  1.00800000E+00  1.00800000E+00  1.60000000E+01  1.00800000E+00
  1.00800000E+00  1.60000000E+01  1.00800000E+00  1.00800000E+00  1.60000000E+01
  1.00800000E+00  1.00800000E+00  1.60000000E+01  1.00800000E+00  1.00800000E+00
  1.60000000E+01  1.00800000E+00  1.00800000E+00  1.60000000E+01  1.00800000E+00
  1.00800000E+00  1.60000000E+01  1.00800000E+00  1.00800000E+00  1.60000000E+01
  1.00800000E+00  1.00800000E+00  1.60000000E+01  1.00800000E+00  1.00800000E+00
  1.60000000E+01  1.00800000E+00  1.00800000E+00  1.60000000E+01  1.00800000E+00
  1.00800000E+00  1.60000000E+01  1.00800000E+00  1.00800000E+00  1.60000000E+01
  1.00800000E+00  1.00800000E+00  1.60000000E+01  1.00800000E+00  1.00800000E+00
  1.60000000E+01  1.00800000E+00  1.00800000E+00  1.60000000E+01  1.00800000E+00
  1.00800000E+00  1.60000000E+01  1.00800000E+00  1.00800000E+00  1.60000000E+01
  1.00800000E+00  1.00800000E+00  1.60000000E+01  1.00800000E+00  1.00800000E+00
  1.60000000E+01  1.00800000E+00  1.00800000E+00  1.60000000E+01  1.00800000E+00
  1.00800000E+00  1.60000000E+01  1.00800000E+00  1.00800000E+00  1.60000000E+01
  1.00800000E+00  1.00800000E+00  1.60000000E+01  1.00800000E+00  1.00800000E+00
  1.60000000E+01  1.00800000E+00  1.00800000E+00  1.60000000E+01  1.00800000E+00
  1.00800000E+00  1.60000000E+01  1.00800000E+00  1.00800000E+00  1.60000000E+01
  1.00800000E+00  1.00800000E+00  1.60000000E+01  1.00800000E+00  1.00800000E+00
  1.60000000E+01  1.00800000E+00  1.00800000E+00  1.60000000E+01  1.00800000E+00
  1.00800000E+00  1.60000000E+01  1.00800000E+00  1.00800000E+00  1.60000000E+01
  1.00800000E+00  1.00800000E+00  1.60000000E+01  1.00800000E+00  1.00800000E+00
  1.60000000E+01  1.00800000E+00  1.00800000E+00  1.60000000E+01  1.00800000E+00
  1.00800000E+00  1.60000000E+01  1.00800000E+00  1.00800000E+00  1.60000000E+01
  1.00800000E+00  1.00800000E+00  1.60000000E+01  1.00800000E+00  1.00800000E+00
  1.60000000E+01  1.00800000E+00  1.00800000E+00  1.60000000E+01  1.00800000E+00
  1.00800000E+00  1.60000000E+01  1.00800000E+00  1.00800000E+00  1.60000000E+01
  1.00800000E+00  1.00800000E+00  1.60000000E+01  1.00800000E+00  1.00800000E+00
  1.60000000E+01  1.00800000E+00  1.00800000E+00  1.60000000E+01  1.00800000E+00
  1.00800000E+00  1.60000000E+01  1.00800000E+00  1.00800000E+00  1.60000000E+01
  1.00800000E+00  1.00800000E+00  1.60000000E+01  1.00800000E+00  1.00800000E+00
  1.60000000E+01  1.00800000E+00  1.00800000E+00  1.60000000E+01  1.00800000E+00
  1.00800000E+00  1.60000000E+01  1.00800000E+00  1.00800000E+00  1.60000000E+01
  1.00800000E+00  1.00800000E+00  1.60000000E+01  1.00800000E+00  1.00800000E+00
  1.60000000E+01  1.00800000E+00  1.00800000E+00  1.60000000E+01  1.00800000E+00
  1.00800000E+00  1.60000000E+01  1.00800000E+00  1.00800000E+00  1.60000000E+01
  1.00800000E+00  1.00800000E+00  1.60000000E+01  1.00800000E+00  1.00800000E+00
  1.60000000E+01  1.00800000E+00  1.00800000E+00  1.60000000E+01  1.00800000E+00
  1.00800000E+00  1.60000000E+01  1.00800000E+00  1.00800000E+00  1.60000000E+01
  1.00800000E+00  1.00800000E+00  1.60000000E+01  1.00800000E+00  1.00800000E+00
  1.60000000E+01  1.00800000E+00  1.00800000E+00  1.60000000E+01  1.00800000E+00
  1.00800000E+00  1.60000000E+01  1.00800000E+00  1.00800000E+00  1.60000000E+01
  1.00800000E+00  1.00800000E+00  1.60000000E+01  1.00800000E+00  1.00800000E+00
  1.60000000E+01  1.00800000E+00  1.00800000E+00  1.60000000E+01  1.00800000E+00
  1.00800000E+00  1.60000000E+01  1.00800000E+00  1.00800000E+00  1.60000000E+01
  1.00800000E+00  1.00800000E+00  1.60000000E+01  1.00800000E+00  1.00800000E+00
  1.60000000E+01  1.00800000E+00  1.00800000E+00  1.60000000E+01  1.00800000E+00
  1.00800000E+00  1.60000000E+01  1.00800000E+00  1.00800000E+00  1.60000000E+01
  1.00800000E+00  1.00800000E+00  1.60000000E+01  1.00800000E+00  1.00800000E+00
  1.60000000E+01  1.00800000E+00  1.00800000E+00  1.60000000E+01  1.00800000E+00
  1.00800000E+00  1.60000000E+01  1.00800000E+00  1.00800000E+00  1.60000000E+01
  1.00800000E+00  1.00800000E+00  1.60000000E+01  1.00800000E+00  1.00800000E+00
  1.60000000E+01  1.00800000E+00  1.00800000E+00  1.60000000E+01  1.00800000E+00
  1.00800000E+00  1.60000000E+01  1.00800000E+00  1.00800000E+00  1.60000000E+01
  1.00800000E+00  1.00800000E+00  1.60000000E+01  1.00800000E+00  1.00800000E+00
  1.60000000E+01  1.00800000E+00  1.00800000E+00  1.60000000E+01  1.00800000E+00
  1.00800000E+00  1.60000000E+01  1.00800000E+00  1.00800000E+00  1.60000000E+01
  1.00800000E+00  1.00800000E+00  1.60000000E+01  1.00800000E+00  1.00800000E+00
  1.60000000E+01  1.00800000E+00  1.00800000E+00  1.60000000E+01  1.00800000E+00
  1.00800000E+00  1.60000000E+01  1.00800000E+00  1.00800000E+00  1.60000000E+01
  1.00800000E+00  1.00800000E+00  1.60000000E+01  1.00800000E+00  1.00800000E+00
  1.60000000E+01  1.00800000E+00  1.00800000E+00  1.60000000E+01  1.00800000E+00
  1.00800000E+00  1.60000000E+01  1.00800000E+00  1.00800000E+00  1.60000000E+01
  1.00800000E+00  1.00800000E+00  1.60000000E+01  1.00800000E+00  1.00800000E+00
  1.60000000E+01  1.00800000E+00  1.00800000E+00  1.60000000E+01  1.00800000E+00
  1.00800000E+00  1.60000000E+01  1.00800000E+00  1.00800000E+00  1.60000000E+01
  1.00800000E+00  1.00800000E+00  1.60000000E+01  1.00800000E+00  1.00800000E+00
  1.60000000E+01  1.00800000E+00  1.00800000E+00  1.60000000E+01  1.00800000E+00
  1.00800000E+00  1.60000000E+01  1.00800000E+00  1.00800000E+00  1.60000000E+01
  1.00800000E+00  1.00800000E+00  1.60000000E+01  1.00800000E+00  1.00800000E+00
  1.60000000E+01  1.00800000E+00  1.00800000E+00  1.60000000E+01  1.00800000E+00
  1.00800000E+00  1.60000000E+01  1.00800000E+00  1.00800000E+00  1.60000000E+01
  1.00800000E+00  1.00800000E+00  1.60000000E+01  1.00800000E+00  1.00800000E+00
  1.60000000E+01  1.00800000E+00  1.00800000E+00  1.60000000E+01  1.00800000E+00
  1.00800000E+00  1.60000000E+01  1.00800000E+00  1.00800000E+00  1.60000000E+01
  1.00800000E+00  1.00800000E+00  1.60000000E+01  1.00800000E+00  1.00800000E+00
  1.60000000E+01  1.00800000E+00  1.00800000E+00  1.60000000E+01  1.00800000E+00
  1.00800000E+00  1.60000000E+01  1.00800000E+00  1.00800000E+00  1.60000000E+01
  1.00800000E+00  1.00800000E+00  1.60000000E+01  1.00800000E+00  1.00800000E+00
  1.60000000E+01  1.00800000E+00  1.00800000E+00  1.60000000E+01  1.00800000E+00
  1.00800000E+00  1.60000000E+01  1.00800000E+00  1.00800000E+00  1.60000000E+01
  1.00800000E+00  1.00800000E+00  1.60000000E+01  1.00800000E+00  1.00800000E+00
  1.60000000E+01  1.00800000E+00  1.00800000E+00  1.60000000E+01  1.00800000E+00
  1.00800000E+00  1.60000000E+01  1.00800000E+00  1.00800000E+00  1.60000000E+01
  1.00800000E+00  1.00800000E+00  1.60000000E+01  1.00800000E+00  1.00800000E+00
  1.60000000E+01  1.00800000E+00  1.00800000E+00  1.60000000E+01  1.00800000E+00
  1.00800000E+00  1.60000000E+01  1.00800000E+00  1.00800000E+00  1.60000000E+01
  1.00800000E+00  1.00800000E+00  1.60000000E+01  1.00800000E+00  1.00800000E+00
  1.60000000E+01  1.00800000E+00  1.00800000E+00  1.60000000E+01  1.00800000E+00
  1.00800000E+00  1.60000000E+01  1.00800000E+00  1.00800000E+00  1.60000000E+01
  1.00800000E+00  1.00800000E+00  1.60000000E+01  1.00800000E+00  1.00800000E+00
  1.60000000E+01  1.00800000E+00  1.00800000E+00  1.60000000E+01  1.00800000E+00
  1.00800000E+00  1.60000000E+01  1.00800000E+00  1.00800000E+00  1.60000000E+01
  1.00800000E+00  1.00800000E+00  1.60000000E+01  1.00800000E+00  1.00800000E+00
  1.60000000E+01  1.00800000E+00  1.00800000E+00  1.60000000E+01  1.00800000E+00
  1.00800000E+00  1.60000000E+01  1.00800000E+00  1.00800000E+00  1.60000000E+01
  1.00800000E+00  1.00800000E+00  1.60000000E+01  1.00800000E+00  1.00800000E+00
  1.60000000E+01  1.00800000E+00  1.00800000E+00  1.60000000E+01  1.00800000E+00
  1.00800000E+00  1.60000000E+01  1.00800000E+00  1.00800000E+00  1.60000000E+01
  1.00800000E+00  1.00800000E+00  1.60000000E+01  1.00800000E+00  1.00800000E+00
  1.60000000E+01  1.00800000E+00  1.00800000E+00  1.60000000E+01  1.00800000E+00
  1.00800000E+00  1.60000000E+01  1.00800000E+00  1.00800000E+00  1.60000000E+01
  1.00800000E+00  1.00800000E+00  1.60000000E+01  1.00800000E+00  1.00800000E+00
  1.60000000E+01  1.00800000E+00  1.00800000E+00  1.60000000E+01  1.00800000E+00
  1.00800000E+00  1.60000000E+01  1.00800000E+00  1.00800000E+00  1.60000000E+01
  1.00800000E+00  1.00800000E+00  1.60000000E+01  1.00800000E+00  1.00800000E+00
  1.60000000E+01  1.00800000E+00  1.00800000E+00  1.60000000E+01  1.00800000E+00
  1.00800000E+00  1.60000000E+01  1.00800000E+00  1.00800000E+00  1.60000000E+01
  1.00800000E+00  1.00800000E+00  1.60000000E+01  1.00800000E+00  1.00800000E+00
  1.60000000E+01  1.00800000E+00  1.00800000E+00  1.60000000E+01  1.00800000E+00
  1.00800000E+00  1.60000000E+01  1.00800000E+00  1.00800000E+00  1.60000000E+01
  1.00800000E+00  1.00800000E+00  1.60000000E+01  1.00800000E+00  1.00800000E+00
  1.60000000E+01  1.00800000E+00  1.00800000E+00  1.60000000E+01  1.00800000E+00
  1.00800000E+00  1.60000000E+01  1.00800000E+00  1.00800000E+00  1.60000000E+01
  1.00800000E+00  1.00800000E+00  1.60000000E+01  1.00800000E+00  1.00800000E+00
  1.60000000E+01  1.00800000E+00  1.00800000E+00  1.60000000E+01  1.00800000E+00
  1.00800000E+00  1.60000000E+01  1.00800000E+00  1.00800000E+00  1.60000000E+01
  1.00800000E+00  1.00800000E+00  1.60000000E+01  1.00800000E+00  1.00800000E+00
  1.60000000E+01  1.00800000E+00  1.00800000E+00  1.60000000E+01  1.00800000E+00
  1.00800000E+00  1.60000000E+01  1.00800000E+00  1.00800000E+00  1.60000000E+01
  1.00800000E+00  1.00800000E+00  1.60000000E+01  1.00800000E+00  1.00800000E+00
  1.60000000E+01  1.00800000E+00  1.00800000E+00  1.60000000E+01  1.00800000E+00
  1.00800000E+00  1.60000000E+01  1.00800000E+00  1.00800000E+00  1.60000000E+01
  1.00800000E+00  1.00800000E+00  1.60000000E+01  1.00800000E+00  1.00800000E+00
  1.60000000E+01  1.00800000E+00  1.00800000E+00  1.60000000E+01  1.00800000E+00
  1.00800000E+00  1.60000000E+01  1.00800000E+00  1.00800000E+00  1.60000000E+01
  1.00800000E+00  1.00800000E+00  1.60000000E+01  1.00800000E+00  1.00800000E+00
  1.60000000E+01  1.00800000E+00  1.00800000E+00  1.60000000E+01  1.00800000E+00
  1.00800000E+00  1.60000000E+01  1.00800000E+00  1.00800000E+00  1.60000000E+01
  1.00800000E+00  1.00800000E+00  1.60000000E+01  1.00800000E+00  1.00800000E+00
  1.60000000E+01  1.00800000E+00  1.00800000E+00  1.60000000E+01  1.00800000E+00
  1.00800000E+00  1.60000000E+01  1.00800000E+00  1.00800000E+00  1.60000000E+01
  1.00800000E+00  1.00800000E+00  1.60000000E+01  1.00800000E+00  1.00800000E+00
  1.60000000E+01  1.00800000E+00  1.00800000E+00  1.60000000E+01  1.00800000E+00
  1.00800000E+00  1.60000000E+01  1.00800000E+00  1.00800000E+00  1.60000000E+01
  1.00800000E+00  1.00800000E+00  1.60000000E+01  1.00800000E+00  1.00800000E+00
  1.60000000E+01  1.00800000E+00  1.00800000E+00  1.60000000E+01  1.00800000E+00
  1.00800000E+00  1.60000000E+01  1.00800000E+00  1.00800000E+00  1.60000000E+01
  1.00800000E+00  1.00800000E+00  1.60000000E+01  1.00800000E+00  1.00800000E+00
  1.60000000E+01  1.00800000E+00  1.00800000E+00  1.60000000E+01  1.00800000E+00
  1.00800000E+00  1.60000000E+01  1.00800000E+00  1.00800000E+00  1.60000000E+01
  1.00800000E+00  1.00800000E+00  1.60000000E+01  1.00800000E+00  1.00800000E+00
  1.60000000E+01  1.00800000E+00  1.00800000E+00  1.60000000E+01  1.00800000E+00
  1.00800000E+00  1.60000000E+01  1.00800000E+00  1.00800000E+00  1.60000000E+01
  1.00800000E+00  1.00800000E+00  1.60000000E+01  1.00800000E+00  1.00800000E+00
  1.60000000E+01  1.00800000E+00  1.00800000E+00  1.60000000E+01  1.00800000E+00
  1.00800000E+00  1.60000000E+01  1.00800000E+00  1.00800000E+00  1.60000000E+01
  1.00800000E+00  1.00800000E+00  1.60000000E+01  1.00800000E+00  1.00800000E+00
  1.60000000E+01  1.00800000E+00  1.00800000E+00  1.60000000E+01  1.00800000E+00
  1.00800000E+00  1.60000000E+01  1.00800000E+00  1.00800000E+00  1.60000000E+01
  1.00800000E+00  1.00800000E+00  1.60000000E+01  1.00800000E+00  1.00800000E+00
  1.60000000E+01  1.00800000E+00  1.00800000E+00  1.60000000E+01  1.00800000E+00
  1.00800000E+00  1.60000000E+01  1.00800000E+00  1.00800000E+00  1.60000000E+01
  1.00800000E+00  1.00800000E+00  1.60000000E+01  1.00800000E+00  1.00800000E+00
  1.60000000E+01  1.00800000E+00  1.00800000E+00  1.60000000E+01  1.00800000E+00
  1.00800000E+00  1.60000000E+01  1.00800000E+00  1.00800000E+00  1.60000000E+01
  1.00800000E+00  1.00800000E+00  1.60000000E+01  1.00800000E+00  1.00800000E+00
  1.60000000E+01  1.00800000E+00  1.00800000E+00  1.60000000E+01  1.00800000E+00
  1.00800000E+00  1.60000000E+01  1.00800000E+00  1.00800000E+00  1.60000000E+01
  1.00800000E+00  1.00800000E+00  1.60000000E+01  1.00800000E+00  1.00800000E+00
  1.60000000E+01  1.00800000E+00  1.00800000E+00  1.60000000E+01  1.00800000E+00
  1.00800000E+00  1.60000000E+01  1.00800000E+00  1.00800000E+00  1.60000000E+01
  1.00800000E+00  1.00800000E+00  1.60000000E+01  1.00800000E+00  1.00800000E+00
  1.60000000E+01  1.00800000E+00  1.00800000E+00  1.60000000E+01  1.00800000E+00
  1.00800000E+00  1.60000000E+01  1.00800000E+00  1.00800000E+00  1.60000000E+01
  1.00800000E+00  1.00800000E+00  1.60000000E+01  1.00800000E+00  1.00800000E+00
  1.60000000E+01  1.00800000E+00  1.00800000E+00  1.60000000E+01  1.00800000E+00
  1.00800000E+00  1.60000000E+01  1.00800000E+00  1.00800000E+00  1.60000000E+01
  1.00800000E+00  1.00800000E+00  1.60000000E+01  1.00800000E+00  1.00800000E+00
  1.60000000E+01  1.00800000E+00  1.00800000E+00  1.60000000E+01  1.00800000E+00
  1.00800000E+00  1.60000000E+01  1.00800000E+00  1.00800000E+00  1.60000000E+01
  1.00800000E+00  1.00800000E+00  1.60000000E+01  1.00800000E+00  1.00800000E+00
  1.60000000E+01  1.00800000E+00  1.00800000E+00  1.60000000E+01  1.00800000E+00
  1.00800000E+00  1.60000000E+01  1.00800000E+00  1.00800000E+00  1.60000000E+01
  1.00800000E+00  1.00800000E+00  1.60000000E+01  1.00800000E+00  1.00800000E+00
  1.60000000E+01  1.00800000E+00  1.00800000E+00  1.60000000E+01  1.00800000E+00
  1.00800000E+00  1.60000000E+01  1.00800000E+00  1.00800000E+00  1.60000000E+01
  1.00800000E+00  1.00800000E+00  1.60000000E+01  1.00800000E+00  1.00800000E+00
  1.60000000E+01  1.00800000E+00  1.00800000E+00  1.60000000E+01  1.00800000E+00
  1.00800000E+00  1.60000000E+01  1.00800000E+00  1.00800000E+00  1.60000000E+01
  1.00800000E+00  1.00800000E+00  1.60000000E+01  1.00800000E+00  1.00800000E+00
  1.60000000E+01  1.00800000E+00  1.00800000E+00  1.60000000E+01  1.00800000E+00
  1.00800000E+00  1.60000000E+01  1.00800000E+00  1.00800000E+00  1.60000000E+01
  1.00800000E+00  1.00800000E+00  1.60000000E+01  1.00800000E+00  1.00800000E+00
  1.60000000E+01  1.00800000E+00  1.00800000E+00  1.60000000E+01  1.00800000E+00
  1.00800000E+00  1.60000000E+01  1.00800000E+00  1.00800000E+00  1.60000000E+01
  1.00800000E+00  1.00800000E+00  1.60000000E+01  1.00800000E+00  1.00800000E+00
  1.60000000E+01  1.00800000E+00  1.00800000E+00  1.60000000E+01  1.00800000E+00
  1.00800000E+00  1.60000000E+01  1.00800000E+00  1.00800000E+00  1.60000000E+01
  1.00800000E+00  1.00800000E+00  1.60000000E+01  1.00800000E+00  1.00800000E+00
  1.60000000E+01  1.00800000E+00  1.00800000E+00  1.60000000E+01  1.00800000E+00
  1.00800000E+00  1.60000000E+01  1.00800000E+00  1.00800000E+00  1.60000000E+01
  1.00800000E+00  1.00800000E+00  1.60000000E+01  1.00800000E+00  1.00800000E+00
  1.60000000E+01  1.00800000E+00  1.00800000E+00  1.60000000E+01  1.00800000E+00
  1.00800000E+00  1.60000000E+01  1.00800000E+00  1.00800000E+00  1.60000000E+01
  1.00800000E+00  1.00800000E+00  1.60000000E+01  1.00800000E+00  1.00800000E+00
  1.60000000E+01  1.00800000E+00  1.00800000E+00  1.60000000E+01  1.00800000E+00
  1.00800000E+00  1.60000000E+01  1.00800000E+00  1.00800000E+00  1.60000000E+01
  1.00800000E+00  1.00800000E+00  1.60000000E+01  1.00800000E+00  1.00800000E+00
  1.60000000E+01  1.00800000E+00  1.00800000E+00  1.60000000E+01  1.00800000E+00
  1.00800000E+00  1.60000000E+01  1.00800000E+00  1.00800000E+00  1.60000000E+01
  1.00800000E+00  1.00800000E+00  1.60000000E+01  1.00800000E+00  1.00800000E+00
  1.60000000E+01  1.00800000E+00  1.00800000E+00  1.60000000E+01  1.00800000E+00
  1.00800000E+00  1.60000000E+01  1.00800000E+00  1.00800000E+00  1.60000000E+01
  1.00800000E+00  1.00800000E+00  1.60000000E+01  1.00800000E+00  1.00800000E+00
  1.60000000E+01  1.00800000E+00  1.00800000E+00  1.60000000E+01  1.00800000E+00
  1.00800000E+00  1.60000000E+01  1.00800000E+00  1.00800000E+00  1.60000000E+01
  1.00800000E+00  1.00800000E+00  1.60000000E+01  1.00800000E+00  1.00800000E+00
  1.60000000E+01  1.00800000E+00  1.00800000E+00  1.60000000E+01  1.00800000E+00
  1.00800000E+00  1.60000000E+01  1.00800000E+00  1.00800000E+00  1.60000000E+01
  1.00800000E+00  1.00800000E+00  1.60000000E+01  1.00800000E+00  1.00800000E+00
  1.60000000E+01  1.00800000E+00  1.00800000E+00  1.60000000E+01  1.00800000E+00
  1.00800000E+00  1.60000000E+01  1.00800000E+00  1.00800000E+00  1.60000000E+01
  1.00800000E+00  1.00800000E+00  1.60000000E+01  1.00800000E+00  1.00800000E+00
  1.60000000E+01  1.00800000E+00  1.00800000E+00  1.60000000E+01  1.00800000E+00
  1.00800000E+00  1.60000000E+01  1.00800000E+00  1.00800000E+00  1.60000000E+01
  1.00800000E+00  1.00800000E+00  1.60000000E+01  1.00800000E+00  1.00800000E+00
  1.60000000E+01  1.00800000E+00  1.00800000E+00  1.60000000E+01  1.00800000E+00
  1.00800000E+00  1.60000000E+01  1.00800000E+00  1.00800000E+00  1.60000000E+01
  1.00800000E+00  1.00800000E+00  1.60000000E+01  1.00800000E+00  1.00800000E+00
  1.60000000E+01  1.00800000E+00  1.00800000E+00  1.60000000E+01  1.00800000E+00
  1.00800000E+00  1.60000000E+01  1.00800000E+00  1.00800000E+00  1.60000000E+01
  1.00800000E+00  1.00800000E+00  1.60000000E+01  1.00800000E+00  1.00800000E+00
  1.60000000E+01  1.00800000E+00  1.00800000E+00  1.60000000E+01  1.00800000E+00
  1.00800000E+00  1.60000000E+01  1.00800000E+00  1.00800000E+00  1.60000000E+01
  1.00800000E+00  1.00800000E+00  1.60000000E+01  1.00800000E+00  1.00800000E+00
  1.60000000E+01  1.00800000E+00  1.00800000E+00  1.60000000E+01  1.00800000E+00
  1.00800000E+00  1.60000000E+01  1.00800000E+00  1.00800000E+00  1.60000000E+01
  1.00800000E+00  1.00800000E+00  1.60000000E+01  1.00800000E+00  1.00800000E+00
  1.60000000E+01  1.00800000E+00  1.00800000E+00  1.60000000E+01  1.00800000E+00
  1.00800000E+00  1.60000000E+01  1.00800000E+00  1.00800000E+00  1.60000000E+01
  1.00800000E+00  1.00800000E+00  1.60000000E+01  1.00800000E+00  1.00800000E+00
  1.60000000E+01  1.00800000E+00  1.00800000E+00  1.60000000E+01  1.00800000E+00
  1.00800000E+00  1.60000000E+01  1.00800000E+00  1.00800000E+00  1.60000000E+01
  1.00800000E+00  1.00800000E+00  1.60000000E+01  1.00800000E+00  1.00800000E+00
  1.60000000E+01  1.00800000E+00  1.00800000E+00  1.60000000E+01  1.00800000E+00
  1.00800000E+00  1.60000000E+01  1.00800000E+00  1.00800000E+00  1.60000000E+01
  1.00800000E+00  1.00800000E+00  1.60000000E+01  1.00800000E+00  1.00800000E+00
  1.60000000E+01  1.00800000E+00  1.00800000E+00  1.60000000E+01  1.00800000E+00
  1.00800000E+00  1.60000000E+01  1.00800000E+00  1.00800000E+00  1.60000000E+01
  1.00800000E+00  1.00800000E+00  1.60000000E+01  1.00800000E+00  1.00800000E+00
  1.60000000E+01  1.00800000E+00  1.00800000E+00  1.60000000E+01  1.00800000E+00
  1.00800000E+00  1.60000000E+01  1.00800000E+00  1.00800000E+00  1.60000000E+01
  1.00800000E+00  1.00800000E+00  1.60000000E+01  1.00800000E+00  1.00800000E+00
  1.60000000E+01  1.00800000E+00  1.00800000E+00  1.60000000E+01  1.00800000E+00
  1.00800000E+00  1.60000000E+01  1.00800000E+00  1.00800000E+00  1.60000000E+01
  1.00800000E+00  1.00800000E+00  1.60000000E+01  1.00800000E+00  1.00800000E+00
  1.60000000E+01  1.00800000E+00  1.00800000E+00  1.60000000E+01  1.00800000E+00
  1.00800000E+00  1.60000000E+01  1.00800000E+00  1.00800000E+00  1.60000000E+01
  1.00800000E+00  1.00800000E+00  1.60000000E+01  1.00800000E+00  1.00800000E+00
  1.60000000E+01  1.00800000E+00  1.00800000E+00  1.60000000E+01  1.00800000E+00
  1.00800000E+00  1.60000000E+01  1.00800000E+00  1.00800000E+00  1.60000000E+01
  1.00800000E+00  1.00800000E+00  1.60000000E+01  1.00800000E+00  1.00800000E+00
  1.60000000E+01  1.00800000E+00  1.00800000E+00  1.60000000E+01  1.00800000E+00
  1.00800000E+00  1.60000000E+01  1.00800000E+00  1.00800000E+00  1.60000000E+01
  1.00800000E+00  1.00800000E+00  1.60000000E+01  1.00800000E+00  1.00800000E+00
  1.60000000E+01  1.00800000E+00  1.00800000E+00  1.60000000E+01  1.00800000E+00
  1.00800000E+00  1.60000000E+01  1.00800000E+00  1.00800000E+00  1.60000000E+01
  1.00800000E+00  1.00800000E+00  1.60000000E+01  1.00800000E+00  1.00800000E+00
  1.60000000E+01  1.00800000E+00  1.00800000E+00  1.60000000E+01  1.00800000E+00
  1.00800000E+00  1.60000000E+01  1.00800000E+00  1.00800000E+00  1.60000000E+01
  1.00800000E+00  1.00800000E+00  1.60000000E+01  1.00800000E+00  1.00800000E+00
  1.60000000E+01  1.00800000E+00  1.00800000E+00  1.60000000E+01  1.00800000E+00
  1.00800000E+00  1.60000000E+01  1.00800000E+00  1.00800000E+00  1.60000000E+01
  1.00800000E+00  1.00800000E+00  1.60000000E+01  1.00800000E+00  1.00800000E+00
  1.60000000E+01  1.00800000E+00  1.00800000E+00  1.60000000E+01  1.00800000E+00
  1.00800000E+00  1.60000000E+01  1.00800000E+00  1.00800000E+00  1.60000000E+01
  1.00800000E+00  1.00800000E+00  1.60000000E+01  1.00800000E+00  1.00800000E+00
  1.60000000E+01  1.00800000E+00  1.00800000E+00  1.60000000E+01  1.00800000E+00
  1.00800000E+00  1.60000000E+01  1.00800000E+00  1.00800000E+00  1.60000000E+01
  1.00800000E+00  1.00800000E+00  1.60000000E+01  1.00800000E+00  1.00800000E+00
  1.60000000E+01  1.00800000E+00  1.00800000E+00  1.60000000E+01  1.00800000E+00
  1.00800000E+00  1.60000000E+01  1.00800000E+00  1.00800000E+00  1.60000000E+01
  1.00800000E+00  1.00800000E+00  1.60000000E+01  1.00800000E+00  1.00800000E+00
  1.60000000E+01  1.00800000E+00  1.00800000E+00  1.60000000E+01  1.00800000E+00
  1.00800000E+00  1.60000000E+01  1.00800000E+00  1.00800000E+00  1.60000000E+01
  1.00800000E+00  1.00800000E+00  1.60000000E+01  1.00800000E+00  1.00800000E+00
  1.60000000E+01  1.00800000E+00  1.00800000E+00  1.60000000E+01  1.00800000E+00
  1.00800000E+00  1.60000000E+01  1.00800000E+00  1.00800000E+00  1.60000000E+01
  1.00800000E+00  1.00800000E+00  1.60000000E+01  1.00800000E+00  1.00800000E+00
  1.60000000E+01  1.00800000E+00  1.00800000E+00  1.60000000E+01  1.00800000E+00
  1.00800000E+00  1.60000000E+01  1.00800000E+00  1.00800000E+00  1.60000000E+01
  1.00800000E+00  1.00800000E+00  1.60000000E+01  1.00800000E+00  1.00800000E+00
  1.60000000E+01  1.00800000E+00  1.00800000E+00  1.60000000E+01  1.00800000E+00
  1.00800000E+00  1.60000000E+01  1.00800000E+00  1.00800000E+00  1.60000000E+01
  1.00800000E+00  1.00800000E+00  1.60000000E+01  1.00800000E+00  1.00800000E+00
  1.60000000E+01  1.00800000E+00  1.00800000E+00  1.60000000E+01  1.00800000E+00
  1.00800000E+00  1.60000000E+01  1.00800000E+00  1.00800000E+00  1.60000000E+01
  1.00800000E+00  1.00800000E+00  1.60000000E+01  1.00800000E+00  1.00800000E+00
  1.60000000E+01  1.00800000E+00  1.00800000E+00  1.60000000E+01  1.00800000E+00
  1.00800000E+00  1.60000000E+01  1.00800000E+00  1.00800000E+00  1.60000000E+01
  1.00800000E+00  1.00800000E+00  1.60000000E+01  1.00800000E+00  1.00800000E+00
  1.60000000E+01  1.00800000E+00  1.00800000E+00  1.60000000E+01  1.00800000E+00
  1.00800000E+00  1.60000000E+01  1.00800000E+00  1.00800000E+00  1.60000000E+01
  1.00800000E+00  1.00800000E+00  1.60000000E+01  1.00800000E+00  1.00800000E+00
  1.60000000E+01  1.00800000E+00  1.00800000E+00  1.60000000E+01  1.00800000E+00
  1.00800000E+00  1.60000000E+01  1.00800000E+00  1.00800000E+00  1.60000000E+01
  1.00800000E+00  1.00800000E+00  1.60000000E+01  1.00800000E+00  1.00800000E+00
  1.60000000E+01  1.00800000E+00  1.00800000E+00  1.60000000E+01  1.00800000E+00
  1.00800000E+00  1.60000000E+01  1.00800000E+00  1.00800000E+00  1.60000000E+01
  1.00800000E+00  1.00800000E+00  1.60000000E+01  1.00800000E+00  1.00800000E+00
  1.60000000E+01  1.00800000E+00  1.00800000E+00  1.60000000E+01  1.00800000E+00
  1.00800000E+00  1.60000000E+01  1.00800000E+00  1.00800000E+00  1.60000000E+01
  1.00800000E+00  1.00800000E+00  1.60000000E+01  1.00800000E+00  1.00800000E+00
  1.60000000E+01  1.00800000E+00  1.00800000E+00  1.60000000E+01  1.00800000E+00
  1.00800000E+00  1.60000000E+01  1.00800000E+00  1.00800000E+00  1.60000000E+01
  1.00800000E+00  1.00800000E+00  1.60000000E+01  1.00800000E+00  1.00800000E+00
  1.60000000E+01  1.00800000E+00  1.00800000E+00  1.60000000E+01  1.00800000E+00
  1.00800000E+00  1.60000000E+01  1.00800000E+00  1.00800000E+00  1.60000000E+01
  1.00800000E+00  1.00800000E+00  1.60000000E+01  1.00800000E+00  1.00800000E+00
  1.60000000E+01  1.00800000E+00  1.00800000E+00  1.60000000E+01  1.00800000E+00
  1.00800000E+00  1.60000000E+01  1.00800000E+00  1.00800000E+00  1.60000000E+01
  1.00800000E+00  1.00800000E+00  1.60000000E+01  1.00800000E+00  1.00800000E+00
  1.60000000E+01  1.00800000E+00  1.00800000E+00  1.60000000E+01  1.00800000E+00
  1.00800000E+00  1.60000000E+01  1.00800000E+00  1.00800000E+00  1.60000000E+01
  1.00800000E+00  1.00800000E+00  1.60000000E+01  1.00800000E+00  1.00800000E+00
  1.60000000E+01  1.00800000E+00  1.00800000E+00  1.60000000E+01  1.00800000E+00
  1.00800000E+00  1.60000000E+01  1.00800000E+00  1.00800000E+00  1.60000000E+01
  1.00800000E+00  1.00800000E+00  1.60000000E+01  1.00800000E+00  1.00800000E+00
  1.60000000E+01  1.00800000E+00  1.00800000E+00  1.60000000E+01  1.00800000E+00
  1.00800000E+00  1.60000000E+01  1.00800000E+00  1.00800000E+00  1.60000000E+01
  1.00800000E+00  1.00800000E+00  1.60000000E+01  1.00800000E+00  1.00800000E+00
  1.60000000E+01  1.00800000E+00  1.00800000E+00  1.60000000E+01  1.00800000E+00
  1.00800000E+00  1.60000000E+01  1.00800000E+00  1.00800000E+00  1.60000000E+01
  1.00800000E+00  1.00800000E+00  1.60000000E+01  1.00800000E+00  1.00800000E+00
  1.60000000E+01  1.00800000E+00  1.00800000E+00  1.60000000E+01  1.00800000E+00
  1.00800000E+00  1.60000000E+01  1.00800000E+00  1.00800000E+00  1.60000000E+01
  1.00800000E+00  1.00800000E+00  1.60000000E+01  1.00800000E+00  1.00800000E+00
  1.60000000E+01  1.00800000E+00  1.00800000E+00  1.60000000E+01  1.00800000E+00
  1.00800000E+00  1.60000000E+01  1.00800000E+00  1.00800000E+00  1.60000000E+01
  1.00800000E+00  1.00800000E+00  1.60000000E+01  1.00800000E+00  1.00800000E+00
  1.60000000E+01  1.00800000E+00  1.00800000E+00  1.60000000E+01  1.00800000E+00
  1.00800000E+00  1.60000000E+01  1.00800000E+00  1.00800000E+00  1.60000000E+01
  1.00800000E+00  1.00800000E+00  1.60000000E+01  1.00800000E+00  1.00800000E+00
  1.60000000E+01  1.00800000E+00  1.00800000E+00  1.60000000E+01  1.00800000E+00
  1.00800000E+00  1.60000000E+01  1.00800000E+00  1.00800000E+00  1.60000000E+01
  1.00800000E+00  1.00800000E+00  1.60000000E+01  1.00800000E+00  1.00800000E+00
  1.60000000E+01  1.00800000E+00  1.00800000E+00  1.60000000E+01  1.00800000E+00
  1.00800000E+00  1.60000000E+01  1.00800000E+00  1.00800000E+00  1.60000000E+01
  1.00800000E+00  1.00800000E+00  1.60000000E+01  1.00800000E+00  1.00800000E+00
  1.60000000E+01  1.00800000E+00  1.00800000E+00  1.60000000E+01  1.00800000E+00
  1.00800000E+00  1.60000000E+01  1.00800000E+00  1.00800000E+00  1.60000000E+01
  1.00800000E+00  1.00800000E+00  1.60000000E+01  1.00800000E+00  1.00800000E+00
  1.60000000E+01  1.00800000E+00  1.00800000E+00  1.60000000E+01  1.00800000E+00
  1.00800000E+00  1.60000000E+01  1.00800000E+00  1.00800000E+00  1.60000000E+01
  1.00800000E+00  1.00800000E+00  1.60000000E+01  1.00800000E+00  1.00800000E+00
  1.60000000E+01  1.00800000E+00  1.00800000E+00  1.60000000E+01  1.00800000E+00
  1.00800000E+00  1.60000000E+01  1.00800000E+00  1.00800000E+00  1.60000000E+01
  1.00800000E+00  1.00800000E+00  1.60000000E+01  1.00800000E+00  1.00800000E+00
  1.60000000E+01  1.00800000E+00  1.00800000E+00  1.60000000E+01  1.00800000E+00
  1.00800000E+00  1.60000000E+01  1.00800000E+00  1.00800000E+00  1.60000000E+01
  1.00800000E+00  1.00800000E+00  1.60000000E+01  1.00800000E+00  1.00800000E+00
  1.60000000E+01  1.00800000E+00  1.00800000E+00  1.60000000E+01  1.00800000E+00
  1.00800000E+00  1.60000000E+01  1.00800000E+00  1.00800000E+00  1.60000000E+01
  1.00800000E+00  1.00800000E+00  1.60000000E+01  1.00800000E+00  1.00800000E+00
  1.60000000E+01  1.00800000E+00  1.00800000E+00  1.60000000E+01  1.00800000E+00
  1.00800000E+00  1.60000000E+01  1.00800000E+00  1.00800000E+00  1.60000000E+01
  1.00800000E+00  1.00800000E+00  1.60000000E+01  1.00800000E+00  1.00800000E+00
  1.60000000E+01  1.00800000E+00  1.00800000E+00  1.60000000E+01  1.00800000E+00
  1.00800000E+00  1.60000000E+01  1.00800000E+00  1.00800000E+00  1.60000000E+01
  1.00800000E+00  1.00800000E+00  1.60000000E+01  1.00800000E+00  1.00800000E+00
  1.60000000E+01  1.00800000E+00  1.00800000E+00  1.60000000E+01  1.00800000E+00
  1.00800000E+00  1.60000000E+01  1.00800000E+00  1.00800000E+00  1.60000000E+01
  1.00800000E+00  1.00800000E+00  1.60000000E+01  1.00800000E+00  1.00800000E+00
  1.60000000E+01  1.00800000E+00  1.00800000E+00  1.60000000E+01  1.00800000E+00
  1.00800000E+00  1.60000000E+01  1.00800000E+00  1.00800000E+00  1.60000000E+01
  1.00800000E+00  1.00800000E+00  1.60000000E+01  1.00800000E+00  1.00800000E+00
  1.60000000E+01  1.00800000E+00  1.00800000E+00  1.60000000E+01  1.00800000E+00
  1.00800000E+00  1.60000000E+01  1.00800000E+00  1.00800000E+00  1.60000000E+01
  1.00800000E+00  1.00800000E+00  1.60000000E+01  1.00800000E+00  1.00800000E+00
  1.60000000E+01  1.00800000E+00  1.00800000E+00  1.60000000E+01  1.00800000E+00
  1.00800000E+00  1.60000000E+01  1.00800000E+00  1.00800000E+00  1.60000000E+01
  1.00800000E+00  1.00800000E+00  1.60000000E+01  1.00800000E+00  1.00800000E+00
  1.60000000E+01  1.00800000E+00  1.00800000E+00  1.60000000E+01  1.00800000E+00
  1.00800000E+00  1.60000000E+01  1.00800000E+00  1.00800000E+00  1.60000000E+01
  1.00800000E+00  1.00800000E+00  1.60000000E+01  1.00800000E+00  1.00800000E+00
  1.60000000E+01  1.00800000E+00  1.00800000E+00  1.60000000E+01  1.00800000E+00
  1.00800000E+00  1.60000000E+01  1.00800000E+00  1.00800000E+00  1.60000000E+01
  1.00800000E+00  1.00800000E+00  1.60000000E+01  1.00800000E+00  1.00800000E+00
  1.60000000E+01  1.00800000E+00  1.00800000E+00  1.60000000E+01  1.00800000E+00
  1.00800000E+00  1.60000000E+01  1.00800000E+00  1.00800000E+00  1.60000000E+01
  1.00800000E+00  1.00800000E+00  1.60000000E+01  1.00800000E+00  1.00800000E+00
  1.60000000E+01  1.00800000E+00  1.00800000E+00  1.60000000E+01  1.00800000E+00
  1.00800000E+00  1.60000000E+01  1.00800000E+00  1.00800000E+00  1.60000000E+01
  1.00800000E+00  1.00800000E+00  1.60000000E+01  1.00800000E+00  1.00800000E+00
  1.60000000E+01  1.00800000E+00  1.00800000E+00  1.60000000E+01  1.00800000E+00
  1.00800000E+00  1.60000000E+01  1.00800000E+00  1.00800000E+00  1.60000000E+01
  1.00800000E+00  1.00800000E+00  1.60000000E+01  1.00800000E+00  1.00800000E+00
  1.60000000E+01  1.00800000E+00  1.00800000E+00  1.60000000E+01  1.00800000E+00
  1.00800000E+00  1.60000000E+01  1.00800000E+00  1.00800000E+00  1.60000000E+01
  1.00800000E+00  1.00800000E+00  1.60000000E+01  1.00800000E+00  1.00800000E+00
  1.60000000E+01  1.00800000E+00  1.00800000E+00  1.60000000E+01  1.00800000E+00
  1.00800000E+00  1.60000000E+01  1.00800000E+00  1.00800000E+00  1.60000000E+01
  1.00800000E+00  1.00800000E+00  1.60000000E+01  1.00800000E+00  1.00800000E+00
  1.60000000E+01  1.00800000E+00  1.00800000E+00  1.60000000E+01  1.00800000E+00
  1.00800000E+00  1.60000000E+01  1.00800000E+00  1.00800000E+00  1.60000000E+01
  1.00800000E+00  1.00800000E+00  1.60000000E+01  1.00800000E+00  1.00800000E+00
  1.60000000E+01  1.00800000E+00  1.00800000E+00  1.60000000E+01  1.00800000E+00
  1.00800000E+00  1.60000000E+01  1.00800000E+00  1.00800000E+00  1.60000000E+01
  1.00800000E+00  1.00800000E+00  1.60000000E+01  1.00800000E+00  1.00800000E+00
  1.60000000E+01  1.00800000E+00  1.00800000E+00  1.60000000E+01  1.00800000E+00
  1.00800000E+00  1.60000000E+01  1.00800000E+00  1.00800000E+00  1.60000000E+01
  1.00800000E+00  1.00800000E+00  1.60000000E+01  1.00800000E+00  1.00800000E+00
  1.60000000E+01  1.00800000E+00  1.00800000E+00  1.60000000E+01  1.00800000E+00
  1.00800000E+00  1.60000000E+01  1.00800000E+00  1.00800000E+00  1.60000000E+01
  1.00800000E+00  1.00800000E+00  1.60000000E+01  1.00800000E+00  1.00800000E+00
  1.60000000E+01  1.00800000E+00  1.00800000E+00  1.60000000E+01  1.00800000E+00
  1.00800000E+00  1.60000000E+01  1.00800000E+00  1.00800000E+00  1.60000000E+01
  1.00800000E+00  1.00800000E+00  1.60000000E+01  1.00800000E+00  1.00800000E+00
  1.60000000E+01  1.00800000E+00  1.00800000E+00  1.60000000E+01  1.00800000E+00
  1.00800000E+00  1.60000000E+01  1.00800000E+00  1.00800000E+00  1.60000000E+01
  1.00800000E+00  1.00800000E+00  1.60000000E+01  1.00800000E+00  1.00800000E+00
  1.60000000E+01  1.00800000E+00  1.00800000E+00  1.60000000E+01  1.00800000E+00
  1.00800000E+00  1.60000000E+01  1.00800000E+00  1.00800000E+00  1.60000000E+01
  1.00800000E+00  1.00800000E+00  1.60000000E+01  1.00800000E+00  1.00800000E+00
  1.60000000E+01  1.00800000E+00  1.00800000E+00  1.60000000E+01  1.00800000E+00
  1.00800000E+00  1.60000000E+01  1.00800000E+00  1.00800000E+00  1.60000000E+01
  1.00800000E+00  1.00800000E+00  1.60000000E+01  1.00800000E+00  1.00800000E+00
  1.60000000E+01  1.00800000E+00  1.00800000E+00  1.60000000E+01  1.00800000E+00
  1.00800000E+00  1.60000000E+01  1.00800000E+00  1.00800000E+00  1.60000000E+01
  1.00800000E+00  1.00800000E+00  1.60000000E+01  1.00800000E+00  1.00800000E+00
  1.60000000E+01  1.00800000E+00  1.00800000E+00  1.60000000E+01  1.00800000E+00
  1.00800000E+00  1.60000000E+01  1.00800000E+00  1.00800000E+00  1.60000000E+01
  1.00800000E+00  1.00800000E+00  1.60000000E+01  1.00800000E+00  1.00800000E+00
  1.60000000E+01  1.00800000E+00  1.00800000E+00  1.60000000E+01  1.00800000E+00
  1.00800000E+00  1.60000000E+01  1.00800000E+00  1.00800000E+00  1.60000000E+01
  1.00800000E+00  1.00800000E+00  1.60000000E+01  1.00800000E+00  1.00800000E+00
  1.60000000E+01  1.00800000E+00  1.00800000E+00  1.60000000E+01  1.00800000E+00
  1.00800000E+00  1.60000000E+01  1.00800000E+00  1.00800000E+00  1.60000000E+01
  1.00800000E+00  1.00800000E+00  1.60000000E+01  1.00800000E+00  1.00800000E+00
  1.60000000E+01  1.00800000E+00  1.00800000E+00  1.60000000E+01  1.00800000E+00
  1.00800000E+00  1.60000000E+01  1.00800000E+00  1.00800000E+00  1.60000000E+01
  1.00800000E+00  1.00800000E+00  1.60000000E+01  1.00800000E+00  1.00800000E+00
  1.60000000E+01  1.00800000E+00  1.00800000E+00  1.60000000E+01  1.00800000E+00
  1.00800000E+00  1.60000000E+01  1.00800000E+00  1.00800000E+00  1.60000000E+01
  1.00800000E+00  1.00800000E+00  1.60000000E+01  1.00800000E+00  1.00800000E+00
  1.60000000E+01  1.00800000E+00  1.00800000E+00  1.60000000E+01  1.00800000E+00
  1.00800000E+00  1.60000000E+01  1.00800000E+00  1.00800000E+00  1.60000000E+01
  1.00800000E+00  1.00800000E+00  1.60000000E+01  1.00800000E+00  1.00800000E+00
  1.60000000E+01  1.00800000E+00  1.00800000E+00  1.60000000E+01  1.00800000E+00
  1.00800000E+00  1.60000000E+01  1.00800000E+00  1.00800000E+00  1.60000000E+01
  1.00800000E+00  1.00800000E+00  1.60000000E+01  1.00800000E+00  1.00800000E+00
  1.60000000E+01  1.00800000E+00  1.00800000E+00  1.60000000E+01  1.00800000E+00
  1.00800000E+00  1.60000000E+01  1.00800000E+00  1.00800000E+00  1.60000000E+01
  1.00800000E+00  1.00800000E+00  1.60000000E+01  1.00800000E+00  1.00800000E+00
  1.60000000E+01  1.00800000E+00  1.00800000E+00  1.60000000E+01  1.00800000E+00
  1.00800000E+00  1.60000000E+01  1.00800000E+00  1.00800000E+00  1.60000000E+01
  1.00800000E+00  1.00800000E+00  1.60000000E+01  1.00800000E+00  1.00800000E+00
  1.60000000E+01  1.00800000E+00  1.00800000E+00  1.60000000E+01  1.00800000E+00
  1.00800000E+00  1.60000000E+01  1.00800000E+00  1.00800000E+00  1.60000000E+01
  1.00800000E+00  1.00800000E+00  1.60000000E+01  1.00800000E+00  1.00800000E+00
  1.60000000E+01  1.00800000E+00  1.00800000E+00  1.60000000E+01  1.00800000E+00
  1.00800000E+00  1.60000000E+01  1.00800000E+00  1.00800000E+00  1.60000000E+01
  1.00800000E+00  1.00800000E+00  1.60000000E+01  1.00800000E+00  1.00800000E+00
  1.60000000E+01  1.00800000E+00  1.00800000E+00  1.60000000E+01  1.00800000E+00
  1.00800000E+00  1.60000000E+01  1.00800000E+00  1.00800000E+00  1.60000000E+01
  1.00800000E+00  1.00800000E+00  1.60000000E+01  1.00800000E+00  1.00800000E+00
  1.60000000E+01  1.00800000E+00  1.00800000E+00  1.60000000E+01  1.00800000E+00
  1.00800000E+00  1.60000000E+01  1.00800000E+00  1.00800000E+00  1.60000000E+01
  1.00800000E+00  1.00800000E+00  1.60000000E+01  1.00800000E+00  1.00800000E+00
  1.60000000E+01  1.00800000E+00  1.00800000E+00  1.60000000E+01  1.00800000E+00
  1.00800000E+00  1.60000000E+01  1.00800000E+00  1.00800000E+00  1.60000000E+01
  1.00800000E+00  1.00800000E+00  1.60000000E+01  1.00800000E+00  1.00800000E+00
  1.60000000E+01  1.00800000E+00  1.00800000E+00  1.60000000E+01  1.00800000E+00
  1.00800000E+00  1.60000000E+01  1.00800000E+00  1.00800000E+00  1.60000000E+01
  1.00800000E+00  1.00800000E+00  1.60000000E+01  1.00800000E+00  1.00800000E+00
  1.60000000E+01  1.00800000E+00  1.00800000E+00  1.60000000E+01  1.00800000E+00
  1.00800000E+00  1.60000000E+01  1.00800000E+00  1.00800000E+00  1.60000000E+01
  1.00800000E+00  1.00800000E+00  1.60000000E+01  1.00800000E+00  1.00800000E+00
  1.60000000E+01  1.00800000E+00  1.00800000E+00  1.60000000E+01  1.00800000E+00
  1.00800000E+00  1.60000000E+01  1.00800000E+00  1.00800000E+00  1.60000000E+01
  1.00800000E+00  1.00800000E+00  1.60000000E+01  1.00800000E+00  1.00800000E+00
  1.60000000E+01  1.00800000E+00  1.00800000E+00  1.60000000E+01  1.00800000E+00
  1.00800000E+00  1.60000000E+01  1.00800000E+00  1.00800000E+00  1.60000000E+01
  1.00800000E+00  1.00800000E+00  1.60000000E+01  1.00800000E+00  1.00800000E+00
  1.60000000E+01  1.00800000E+00  1.00800000E+00  1.60000000E+01  1.00800000E+00
  1.00800000E+00  1.60000000E+01  1.00800000E+00  1.00800000E+00  1.60000000E+01
  1.00800000E+00  1.00800000E+00  1.60000000E+01  1.00800000E+00  1.00800000E+00
  1.60000000E+01  1.00800000E+00  1.00800000E+00  1.60000000E+01  1.00800000E+00
  1.00800000E+00  1.60000000E+01  1.00800000E+00  1.00800000E+00  1.60000000E+01
  1.00800000E+00  1.00800000E+00  1.60000000E+01  1.00800000E+00  1.00800000E+00
  1.60000000E+01  1.00800000E+00  1.00800000E+00  1.60000000E+01  1.00800000E+00
  1.00800000E+00  1.60000000E+01  1.00800000E+00  1.00800000E+00  1.60000000E+01
  1.00800000E+00  1.00800000E+00  1.60000000E+01  1.00800000E+00  1.00800000E+00
  1.60000000E+01  1.00800000E+00  1.00800000E+00  1.60000000E+01  1.00800000E+00
  1.00800000E+00  1.60000000E+01  1.00800000E+00  1.00800000E+00  1.60000000E+01
  1.00800000E+00  1.00800000E+00  1.60000000E+01  1.00800000E+00  1.00800000E+00
  1.60000000E+01  1.00800000E+00  1.00800000E+00  1.60000000E+01  1.00800000E+00
  1.00800000E+00  1.60000000E+01  1.00800000E+00  1.00800000E+00  1.60000000E+01
  1.00800000E+00  1.00800000E+00  1.60000000E+01  1.00800000E+00  1.00800000E+00
  1.60000000E+01  1.00800000E+00  1.00800000E+00  1.60000000E+01  1.00800000E+00
  1.00800000E+00  1.60000000E+01  1.00800000E+00  1.00800000E+00  1.60000000E+01
  1.00800000E+00  1.00800000E+00  1.60000000E+01  1.00800000E+00  1.00800000E+00
  1.60000000E+01  1.00800000E+00  1.00800000E+00  1.60000000E+01  1.00800000E+00
  1.00800000E+00  1.60000000E+01  1.00800000E+00  1.00800000E+00  1.60000000E+01
  1.00800000E+00  1.00800000E+00  1.60000000E+01  1.00800000E+00  1.00800000E+00
  1.60000000E+01  1.00800000E+00  1.00800000E+00  1.60000000E+01  1.00800000E+00
  1.00800000E+00  1.60000000E+01  1.00800000E+00  1.00800000E+00  1.60000000E+01
  1.00800000E+00  1.00800000E+00  1.60000000E+01  1.00800000E+00  1.00800000E+00
  1.60000000E+01  1.00800000E+00  1.00800000E+00  1.60000000E+01  1.00800000E+00
  1.00800000E+00  1.60000000E+01  1.00800000E+00  1.00800000E+00  1.60000000E+01
  1.00800000E+00  1.00800000E+00  1.60000000E+01  1.00800000E+00  1.00800000E+00
  1.60000000E+01  1.00800000E+00  1.00800000E+00  1.60000000E+01  1.00800000E+00
  1.00800000E+00  1.60000000E+01  1.00800000E+00  1.00800000E+00  1.60000000E+01
  1.00800000E+00  1.00800000E+00  1.60000000E+01  1.00800000E+00  1.00800000E+00
  1.60000000E+01  1.00800000E+00  1.00800000E+00  1.60000000E+01  1.00800000E+00
  1.00800000E+00  1.60000000E+01  1.00800000E+00  1.00800000E+00  1.60000000E+01
  1.00800000E+00  1.00800000E+00  1.60000000E+01  1.00800000E+00  1.00800000E+00
  1.60000000E+01  1.00800000E+00  1.00800000E+00  1.60000000E+01  1.00800000E+00
  1.00800000E+00  1.60000000E+01  1.00800000E+00  1.00800000E+00  1.60000000E+01
  1.00800000E+00  1.00800000E+00  1.60000000E+01  1.00800000E+00  1.00800000E+00
  1.60000000E+01  1.00800000E+00  1.00800000E+00  1.60000000E+01  1.00800000E+00
  1.00800000E+00  1.60000000E+01  1.00800000E+00  1.00800000E+00  1.60000000E+01
  1.00800000E+00  1.00800000E+00  1.60000000E+01  1.00800000E+00  1.00800000E+00
  1.60000000E+01  1.00800000E+00  1.00800000E+00  1.60000000E+01  1.00800000E+00
  1.00800000E+00  1.60000000E+01  1.00800000E+00  1.00800000E+00  1.60000000E+01
  1.00800000E+00  1.00800000E+00  1.60000000E+01  1.00800000E+00  1.00800000E+00
  1.60000000E+01  1.00800000E+00  1.00800000E+00  1.60000000E+01  1.00800000E+00
  1.00800000E+00  1.60000000E+01  1.00800000E+00  1.00800000E+00  1.60000000E+01
  1.00800000E+00  1.00800000E+00  1.60000000E+01  1.00800000E+00  1.00800000E+00
  1.60000000E+01  1.00800000E+00  1.00800000E+00  1.60000000E+01  1.00800000E+00
  1.00800000E+00  1.60000000E+01  1.00800000E+00  1.00800000E+00  1.60000000E+01
  1.00800000E+00  1.00800000E+00  1.60000000E+01  1.00800000E+00  1.00800000E+00
  1.60000000E+01  1.00800000E+00  1.00800000E+00  1.60000000E+01  1.00800000E+00
  1.00800000E+00  1.60000000E+01  1.00800000E+00  1.00800000E+00  1.60000000E+01
  1.00800000E+00  1.00800000E+00  1.60000000E+01  1.00800000E+00  1.00800000E+00
  1.60000000E+01  1.00800000E+00  1.00800000E+00  1.60000000E+01  1.00800000E+00
  1.00800000E+00  1.60000000E+01  1.00800000E+00  1.00800000E+00  1.60000000E+01
  1.00800000E+00  1.00800000E+00  1.60000000E+01  1.00800000E+00  1.00800000E+00
  1.60000000E+01  1.00800000E+00  1.00800000E+00  1.60000000E+01  1.00800000E+00
  1.00800000E+00  1.60000000E+01  1.00800000E+00  1.00800000E+00  1.60000000E+01
  1.00800000E+00  1.00800000E+00  1.60000000E+01  1.00800000E+00  1.00800000E+00
  1.60000000E+01  1.00800000E+00  1.00800000E+00  1.60000000E+01  1.00800000E+00
  1.00800000E+00  1.60000000E+01  1.00800000E+00  1.00800000E+00  1.60000000E+01
  1.00800000E+00  1.00800000E+00  1.60000000E+01  1.00800000E+00  1.00800000E+00
  1.60000000E+01  1.00800000E+00  1.00800000E+00  1.60000000E+01  1.00800000E+00
  1.00800000E+00  1.60000000E+01  1.00800000E+00  1.00800000E+00  1.60000000E+01
  1.00800000E+00  1.00800000E+00  1.60000000E+01  1.00800000E+00  1.00800000E+00
  1.60000000E+01  1.00800000E+00  1.00800000E+00  1.60000000E+01  1.00800000E+00
  1.00800000E+00  1.60000000E+01  1.00800000E+00  1.00800000E+00  1.60000000E+01
  1.00800000E+00  1.00800000E+00  1.60000000E+01  1.00800000E+00  1.00800000E+00
  1.60000000E+01  1.00800000E+00  1.00800000E+00  1.60000000E+01  1.00800000E+00
  1.00800000E+00  1.60000000E+01  1.00800000E+00  1.00800000E+00  1.60000000E+01
  1.00800000E+00  1.00800000E+00  1.60000000E+01  1.00800000E+00  1.00800000E+00
  1.60000000E+01  1.00800000E+00  1.00800000E+00  1.60000000E+01  1.00800000E+00
  1.00800000E+00  1.60000000E+01  1.00800000E+00  1.00800000E+00  1.60000000E+01
  1.00800000E+00  1.00800000E+00  1.60000000E+01  1.00800000E+00  1.00800000E+00
  1.60000000E+01  1.00800000E+00  1.00800000E+00  1.60000000E+01  1.00800000E+00
  1.00800000E+00  1.60000000E+01  1.00800000E+00  1.00800000E+00  1.60000000E+01
  1.00800000E+00  1.00800000E+00  1.60000000E+01  1.00800000E+00  1.00800000E+00
  1.60000000E+01  1.00800000E+00  1.00800000E+00  1.60000000E+01  1.00800000E+00
  1.00800000E+00  1.60000000E+01  1.00800000E+00  1.00800000E+00  1.60000000E+01
  1.00800000E+00  1.00800000E+00  1.60000000E+01  1.00800000E+00  1.00800000E+00
  1.60000000E+01  1.00800000E+00  1.00800000E+00  1.60000000E+01  1.00800000E+00
  1.00800000E+00  1.60000000E+01  1.00800000E+00  1.00800000E+00  1.60000000E+01
  1.00800000E+00  1.00800000E+00  1.60000000E+01  1.00800000E+00  1.00800000E+00
  1.60000000E+01  1.00800000E+00  1.00800000E+00  1.60000000E+01  1.00800000E+00
  1.00800000E+00  1.60000000E+01  1.00800000E+00  1.00800000E+00  1.60000000E+01
  1.00800000E+00  1.00800000E+00  1.60000000E+01  1.00800000E+00  1.00800000E+00
  1.60000000E+01  1.00800000E+00  1.00800000E+00  1.60000000E+01  1.00800000E+00
  1.00800000E+00  1.60000000E+01  1.00800000E+00  1.00800000E+00  1.60000000E+01
  1.00800000E+00  1.00800000E+00  1.60000000E+01  1.00800000E+00  1.00800000E+00
  1.60000000E+01  1.00800000E+00  1.00800000E+00  1.60000000E+01  1.00800000E+00
  1.00800000E+00  1.60000000E+01  1.00800000E+00  1.00800000E+00  1.60000000E+01
  1.00800000E+00  1.00800000E+00  1.60000000E+01  1.00800000E+00  1.00800000E+00
  1.60000000E+01  1.00800000E+00  1.00800000E+00  1.60000000E+01  1.00800000E+00
  1.00800000E+00  1.60000000E+01  1.00800000E+00  1.00800000E+00  1.60000000E+01
  1.00800000E+00  1.00800000E+00  1.60000000E+01  1.00800000E+00  1.00800000E+00
  1.60000000E+01  1.00800000E+00  1.00800000E+00  1.60000000E+01  1.00800000E+00
  1.00800000E+00  1.60000000E+01  1.00800000E+00  1.00800000E+00  1.60000000E+01
  1.00800000E+00  1.00800000E+00  1.60000000E+01  1.00800000E+00  1.00800000E+00
  1.60000000E+01  1.00800000E+00  1.00800000E+00  1.60000000E+01  1.00800000E+00
  1.00800000E+00  1.60000000E+01  1.00800000E+00  1.00800000E+00  1.60000000E+01
  1.00800000E+00  1.00800000E+00  1.60000000E+01  1.00800000E+00  1.00800000E+00
  1.60000000E+01  1.00800000E+00  1.00800000E+00  1.60000000E+01  1.00800000E+00
  1.00800000E+00  1.60000000E+01  1.00800000E+00  1.00800000E+00  1.60000000E+01
  1.00800000E+00  1.00800000E+00  1.60000000E+01  1.00800000E+00  1.00800000E+00
  1.60000000E+01  1.00800000E+00  1.00800000E+00  1.60000000E+01  1.00800000E+00
  1.00800000E+00  1.60000000E+01  1.00800000E+00  1.00800000E+00  1.60000000E+01
  1.00800000E+00  1.00800000E+00  1.60000000E+01  1.00800000E+00  1.00800000E+00
  1.60000000E+01  1.00800000E+00  1.00800000E+00  1.60000000E+01  1.00800000E+00
  1.00800000E+00  1.60000000E+01  1.00800000E+00  1.00800000E+00  1.60000000E+01
  1.00800000E+00  1.00800000E+00  1.60000000E+01  1.00800000E+00  1.00800000E+00
  1.60000000E+01  1.00800000E+00  1.00800000E+00  1.60000000E+01  1.00800000E+00
  1.00800000E+00  1.60000000E+01  1.00800000E+00  1.00800000E+00  1.60000000E+01
  1.00800000E+00  1.00800000E+00  1.60000000E+01  1.00800000E+00  1.00800000E+00
  1.60000000E+01  1.00800000E+00  1.00800000E+00  1.60000000E+01  1.00800000E+00
  1.00800000E+00  1.60000000E+01  1.00800000E+00  1.00800000E+00  1.60000000E+01
  1.00800000E+00  1.00800000E+00  1.60000000E+01  1.00800000E+00  1.00800000E+00
  1.60000000E+01  1.00800000E+00  1.00800000E+00  1.60000000E+01  1.00800000E+00
  1.00800000E+00  1.60000000E+01  1.00800000E+00  1.00800000E+00  1.60000000E+01
  1.00800000E+00  1.00800000E+00  1.60000000E+01  1.00800000E+00  1.00800000E+00
  1.60000000E+01  1.00800000E+00  1.00800000E+00  1.60000000E+01  1.00800000E+00
  1.00800000E+00  1.60000000E+01  1.00800000E+00  1.00800000E+00  1.60000000E+01
  1.00800000E+00  1.00800000E+00  1.60000000E+01  1.00800000E+00  1.00800000E+00
  1.60000000E+01  1.00800000E+00  1.00800000E+00  1.60000000E+01  1.00800000E+00
  1.00800000E+00  1.60000000E+01  1.00800000E+00  1.00800000E+00  1.60000000E+01
  1.00800000E+00  1.00800000E+00  1.60000000E+01  1.00800000E+00  1.00800000E+00
  1.60000000E+01  1.00800000E+00  1.00800000E+00  1.60000000E+01  1.00800000E+00
  1.00800000E+00  1.60000000E+01  1.00800000E+00  1.00800000E+00  1.60000000E+01
  1.00800000E+00  1.00800000E+00  1.60000000E+01  1.00800000E+00  1.00800000E+00
  1.60000000E+01  1.00800000E+00  1.00800000E+00  1.60000000E+01  1.00800000E+00
  1.00800000E+00  1.60000000E+01  1.00800000E+00  1.00800000E+00  1.60000000E+01
  1.00800000E+00  1.00800000E+00  1.60000000E+01  1.00800000E+00  1.00800000E+00
  1.60000000E+01  1.00800000E+00  1.00800000E+00  1.60000000E+01  1.00800000E+00
  1.00800000E+00  1.60000000E+01  1.00800000E+00  1.00800000E+00  1.60000000E+01
  1.00800000E+00  1.00800000E+00  1.60000000E+01  1.00800000E+00  1.00800000E+00
  1.60000000E+01  1.00800000E+00  1.00800000E+00  1.60000000E+01  1.00800000E+00
  1.00800000E+00  1.60000000E+01  1.00800000E+00  1.00800000E+00  1.60000000E+01
  1.00800000E+00  1.00800000E+00  1.60000000E+01  1.00800000E+00  1.00800000E+00
  1.60000000E+01  1.00800000E+00  1.00800000E+00  1.60000000E+01  1.00800000E+00
  1.00800000E+00  1.60000000E+01  1.00800000E+00  1.00800000E+00  1.60000000E+01
  1.00800000E+00  1.00800000E+00  1.60000000E+01  1.00800000E+00  1.00800000E+00
  1.60000000E+01  1.00800000E+00  1.00800000E+00  1.60000000E+01  1.00800000E+00
  1.00800000E+00  1.60000000E+01  1.00800000E+00  1.00800000E+00  1.60000000E+01
  1.00800000E+00  1.00800000E+00  1.60000000E+01  1.00800000E+00  1.00800000E+00
  1.60000000E+01  1.00800000E+00  1.00800000E+00  1.60000000E+01  1.00800000E+00
  1.00800000E+00  1.60000000E+01  1.00800000E+00  1.00800000E+00  1.60000000E+01
  1.00800000E+00  1.00800000E+00  1.60000000E+01  1.00800000E+00  1.00800000E+00
  1.60000000E+01  1.00800000E+00  1.00800000E+00  1.60000000E+01  1.00800000E+00
  1.00800000E+00  1.60000000E+01  1.00800000E+00  1.00800000E+00  1.60000000E+01
  1.00800000E+00  1.00800000E+00  1.60000000E+01  1.00800000E+00  1.00800000E+00
  1.60000000E+01  1.00800000E+00  1.00800000E+00  1.60000000E+01  1.00800000E+00
  1.00800000E+00  1.60000000E+01  1.00800000E+00  1.00800000E+00  1.60000000E+01
  1.00800000E+00  1.00800000E+00  1.60000000E+01  1.00800000E+00  1.00800000E+00
  1.60000000E+01  1.00800000E+00  1.00800000E+00  1.60000000E+01  1.00800000E+00
  1.00800000E+00  1.60000000E+01  1.00800000E+00  1.00800000E+00  1.60000000E+01
  1.00800000E+00  1.00800000E+00  1.60000000E+01  1.00800000E+00  1.00800000E+00
  1.60000000E+01  1.00800000E+00  1.00800000E+00  1.60000000E+01  1.00800000E+00
  1.00800000E+00  1.60000000E+01  1.00800000E+00  1.00800000E+00  1.60000000E+01
  1.00800000E+00  1.00800000E+00  1.60000000E+01  1.00800000E+00  1.00800000E+00
  1.60000000E+01  1.00800000E+00  1.00800000E+00  1.60000000E+01  1.00800000E+00
  1.00800000E+00  1.60000000E+01  1.00800000E+00  1.00800000E+00  1.60000000E+01
  1.00800000E+00  1.00800000E+00  1.60000000E+01  1.00800000E+00  1.00800000E+00
  1.60000000E+01  1.00800000E+00  1.00800000E+00  1.60000000E+01  1.00800000E+00
  1.00800000E+00  1.60000000E+01  1.00800000E+00  1.00800000E+00  1.60000000E+01
  1.00800000E+00  1.00800000E+00  1.60000000E+01  1.00800000E+00  1.00800000E+00
  1.60000000E+01  1.00800000E+00  1.00800000E+00  1.60000000E+01  1.00800000E+00
  1.00800000E+00  1.60000000E+01  1.00800000E+00  1.00800000E+00  1.60000000E+01
  1.00800000E+00  1.00800000E+00  1.60000000E+01  1.00800000E+00  1.00800000E+00
  1.60000000E+01  1.00800000E+00  1.00800000E+00  1.60000000E+01  1.00800000E+00
  1.00800000E+00  1.60000000E+01  1.00800000E+00  1.00800000E+00  1.60000000E+01
  1.00800000E+00  1.00800000E+00  1.60000000E+01  1.00800000E+00  1.00800000E+00
  1.60000000E+01  1.00800000E+00  1.00800000E+00  1.60000000E+01  1.00800000E+00
  1.00800000E+00  1.60000000E+01  1.00800000E+00  1.00800000E+00  1.60000000E+01
  1.00800000E+00  1.00800000E+00  1.60000000E+01  1.00800000E+00  1.00800000E+00
  1.60000000E+01  1.00800000E+00  1.00800000E+00  1.60000000E+01  1.00800000E+00
  1.00800000E+00  1.60000000E+01  1.00800000E+00  1.00800000E+00  1.60000000E+01
  1.00800000E+00  1.00800000E+00  1.60000000E+01  1.00800000E+00  1.00800000E+00
  1.60000000E+01  1.00800000E+00  1.00800000E+00  1.60000000E+01  1.00800000E+00
  1.00800000E+00  1.60000000E+01  1.00800000E+00  1.00800000E+00  1.60000000E+01
  1.00800000E+00  1.00800000E+00  1.60000000E+01  1.00800000E+00  1.00800000E+00
  1.60000000E+01  1.00800000E+00  1.00800000E+00  1.60000000E+01  1.00800000E+00
  1.00800000E+00  1.60000000E+01  1.00800000E+00  1.00800000E+00  1.60000000E+01
  1.00800000E+00  1.00800000E+00  1.60000000E+01  1.00800000E+00  1.00800000E+00
  1.60000000E+01  1.00800000E+00  1.00800000E+00  1.60000000E+01  1.00800000E+00
  1.00800000E+00  1.60000000E+01  1.00800000E+00  1.00800000E+00  1.60000000E+01
  1.00800000E+00  1.00800000E+00  1.60000000E+01  1.00800000E+00  1.00800000E+00
  1.60000000E+01  1.00800000E+00  1.00800000E+00  1.60000000E+01  1.00800000E+00
  1.00800000E+00  1.60000000E+01  1.00800000E+00  1.00800000E+00  1.60000000E+01
  1.00800000E+00  1.00800000E+00  1.60000000E+01  1.00800000E+00  1.00800000E+00
  1.60000000E+01  1.00800000E+00  1.00800000E+00  1.60000000E+01  1.00800000E+00
  1.00800000E+00  1.60000000E+01  1.00800000E+00  1.00800000E+00  1.60000000E+01
  1.00800000E+00  1.00800000E+00  1.60000000E+01  1.00800000E+00  1.00800000E+00
  1.60000000E+01  1.00800000E+00  1.00800000E+00  1.60000000E+01  1.00800000E+00
  1.00800000E+00  1.60000000E+01  1.00800000E+00  1.00800000E+00  1.60000000E+01
  1.00800000E+00  1.00800000E+00  1.60000000E+01  1.00800000E+00  1.00800000E+00
  1.60000000E+01  1.00800000E+00  1.00800000E+00  1.60000000E+01  1.00800000E+00
  1.00800000E+00  1.60000000E+01  1.00800000E+00  1.00800000E+00  1.60000000E+01
  1.00800000E+00  1.00800000E+00  1.60000000E+01  1.00800000E+00  1.00800000E+00
  1.60000000E+01  1.00800000E+00  1.00800000E+00  1.60000000E+01  1.00800000E+00
  1.00800000E+00  1.60000000E+01  1.00800000E+00  1.00800000E+00  1.60000000E+01
  1.00800000E+00  1.00800000E+00  1.60000000E+01  1.00800000E+00  1.00800000E+00
  1.60000000E+01  1.00800000E+00  1.00800000E+00  1.60000000E+01  1.00800000E+00
  1.00800000E+00  1.60000000E+01  1.00800000E+00  1.00800000E+00  1.60000000E+01
  1.00800000E+00  1.00800000E+00  1.60000000E+01  1.00800000E+00  1.00800000E+00
  1.60000000E+01  1.00800000E+00  1.00800000E+00  1.60000000E+01  1.00800000E+00
  1.00800000E+00  1.60000000E+01  1.00800000E+00  1.00800000E+00  1.60000000E+01
  1.00800000E+00  1.00800000E+00  1.60000000E+01  1.00800000E+00  1.00800000E+00
  1.60000000E+01  1.00800000E+00  1.00800000E+00  1.60000000E+01  1.00800000E+00
  1.00800000E+00  1.60000000E+01  1.00800000E+00  1.00800000E+00  1.60000000E+01
  1.00800000E+00  1.00800000E+00  1.60000000E+01  1.00800000E+00  1.00800000E+00
  1.60000000E+01  1.00800000E+00  1.00800000E+00  1.60000000E+01  1.00800000E+00
  1.00800000E+00  1.60000000E+01  1.00800000E+00  1.00800000E+00  1.60000000E+01
  1.00800000E+00  1.00800000E+00  1.60000000E+01  1.00800000E+00  1.00800000E+00
  1.60000000E+01  1.00800000E+00  1.00800000E+00  1.60000000E+01  1.00800000E+00
  1.00800000E+00  1.60000000E+01  1.00800000E+00  1.00800000E+00  1.60000000E+01
  1.00800000E+00  1.00800000E+00  1.60000000E+01  1.00800000E+00  1.00800000E+00
  1.60000000E+01  1.00800000E+00  1.00800000E+00  1.60000000E+01  1.00800000E+00
  1.00800000E+00  1.60000000E+01  1.00800000E+00  1.00800000E+00  1.60000000E+01
  1.00800000E+00  1.00800000E+00  1.60000000E+01  1.00800000E+00  1.00800000E+00
  1.60000000E+01  1.00800000E+00  1.00800000E+00  1.60000000E+01  1.00800000E+00
  1.00800000E+00  1.60000000E+01  1.00800000E+00  1.00800000E+00  1.60000000E+01
  1.00800000E+00  1.00800000E+00  1.60000000E+01  1.00800000E+00  1.00800000E+00
  1.60000000E+01  1.00800000E+00  1.00800000E+00  1.60000000E+01  1.00800000E+00
  1.00800000E+00  1.60000000E+01  1.00800000E+00  1.00800000E+00  1.60000000E+01
  1.00800000E+00  1.00800000E+00  1.60000000E+01  1.00800000E+00  1.00800000E+00
  1.60000000E+01  1.00800000E+00  1.00800000E+00  1.60000000E+01  1.00800000E+00
  1.00800000E+00  1.60000000E+01  1.00800000E+00  1.00800000E+00  1.60000000E+01
  1.00800000E+00  1.00800000E+00  1.60000000E+01  1.00800000E+00  1.00800000E+00
  1.60000000E+01  1.00800000E+00  1.00800000E+00  1.60000000E+01  1.00800000E+00
  1.00800000E+00  1.60000000E+01  1.00800000E+00  1.00800000E+00  1.60000000E+01
  1.00800000E+00  1.00800000E+00  1.60000000E+01  1.00800000E+00  1.00800000E+00
  1.60000000E+01  1.00800000E+00  1.00800000E+00  1.60000000E+01  1.00800000E+00
  1.00800000E+00  1.60000000E+01  1.00800000E+00  1.00800000E+00  1.60000000E+01
  1.00800000E+00  1.00800000E+00  1.60000000E+01  1.00800000E+00  1.00800000E+00
  1.60000000E+01  1.00800000E+00  1.00800000E+00  1.60000000E+01  1.00800000E+00
  1.00800000E+00  1.60000000E+01  1.00800000E+00  1.00800000E+00  1.60000000E+01
  1.00800000E+00  1.00800000E+00  1.60000000E+01  1.00800000E+00  1.00800000E+00
  1.60000000E+01  1.00800000E+00  1.00800000E+00  1.60000000E+01  1.00800000E+00
  1.00800000E+00  1.60000000E+01  1.00800000E+00  1.00800000E+00  1.60000000E+01
  1.00800000E+00  1.00800000E+00  1.60000000E+01  1.00800000E+00  1.00800000E+00
  1.60000000E+01  1.00800000E+00  1.00800000E+00  1.60000000E+01  1.00800000E+00
  1.00800000E+00  1.60000000E+01  1.00800000E+00  1.00800000E+00  1.60000000E+01
  1.00800000E+00  1.00800000E+00  1.60000000E+01  1.00800000E+00  1.00800000E+00
  1.60000000E+01  1.00800000E+00  1.00800000E+00  1.60000000E+01  1.00800000E+00
  1.00800000E+00  1.60000000E+01  1.00800000E+00  1.00800000E+00  1.60000000E+01
  1.00800000E+00  1.00800000E+00  1.60000000E+01  1.00800000E+00  1.00800000E+00
  1.60000000E+01  1.00800000E+00  1.00800000E+00  1.60000000E+01  1.00800000E+00
  1.00800000E+00  1.60000000E+01  1.00800000E+00  1.00800000E+00  1.60000000E+01
  1.00800000E+00  1.00800000E+00  1.60000000E+01  1.00800000E+00  1.00800000E+00
  1.60000000E+01  1.00800000E+00  1.00800000E+00  1.60000000E+01  1.00800000E+00
  1.00800000E+00  1.60000000E+01  1.00800000E+00  1.00800000E+00  1.60000000E+01
  1.00800000E+00  1.00800000E+00  1.60000000E+01  1.00800000E+00  1.00800000E+00
  1.60000000E+01  1.00800000E+00  1.00800000E+00  1.60000000E+01  1.00800000E+00
  1.00800000E+00  1.60000000E+01  1.00800000E+00  1.00800000E+00  1.60000000E+01
  1.00800000E+00  1.00800000E+00  1.60000000E+01  1.00800000E+00  1.00800000E+00
  1.60000000E+01  1.00800000E+00  1.00800000E+00  1.60000000E+01  1.00800000E+00
  1.00800000E+00  1.60000000E+01  1.00800000E+00  1.00800000E+00  1.60000000E+01
  1.00800000E+00  1.00800000E+00  1.60000000E+01  1.00800000E+00  1.00800000E+00
  1.60000000E+01  1.00800000E+00  1.00800000E+00  1.60000000E+01  1.00800000E+00
  1.00800000E+00  1.60000000E+01  1.00800000E+00  1.00800000E+00  1.60000000E+01
  1.00800000E+00  1.00800000E+00  1.60000000E+01  1.00800000E+00  1.00800000E+00
  1.60000000E+01  1.00800000E+00  1.00800000E+00  1.60000000E+01  1.00800000E+00
  1.00800000E+00  1.60000000E+01  1.00800000E+00  1.00800000E+00  1.60000000E+01
  1.00800000E+00  1.00800000E+00  1.60000000E+01  1.00800000E+00  1.00800000E+00
  1.60000000E+01  1.00800000E+00  1.00800000E+00  1.60000000E+01  1.00800000E+00
  1.00800000E+00  1.60000000E+01  1.00800000E+00  1.00800000E+00  1.60000000E+01
  1.00800000E+00  1.00800000E+00  1.60000000E+01  1.00800000E+00  1.00800000E+00
  1.60000000E+01  1.00800000E+00  1.00800000E+00  1.60000000E+01  1.00800000E+00
  1.00800000E+00  1.60000000E+01  1.00800000E+00  1.00800000E+00  1.60000000E+01
  1.00800000E+00  1.00800000E+00  1.60000000E+01  1.00800000E+00  1.00800000E+00
  1.60000000E+01  1.00800000E+00  1.00800000E+00  1.60000000E+01  1.00800000E+00
  1.00800000E+00  1.60000000E+01  1.00800000E+00  1.00800000E+00  1.60000000E+01
  1.00800000E+00  1.00800000E+00  1.60000000E+01  1.00800000E+00  1.00800000E+00
  1.60000000E+01  1.00800000E+00  1.00800000E+00  1.60000000E+01  1.00800000E+00
  1.00800000E+00  1.60000000E+01  1.00800000E+00  1.00800000E+00  1.60000000E+01
  1.00800000E+00  1.00800000E+00  1.60000000E+01  1.00800000E+00  1.00800000E+00
  1.60000000E+01  1.00800000E+00  1.00800000E+00  1.60000000E+01  1.00800000E+00
  1.00800000E+00  1.60000000E+01  1.00800000E+00  1.00800000E+00  1.60000000E+01
  1.00800000E+00  1.00800000E+00  1.60000000E+01  1.00800000E+00  1.00800000E+00
  1.60000000E+01  1.00800000E+00  1.00800000E+00  1.60000000E+01  1.00800000E+00
  1.00800000E+00  1.60000000E+01  1.00800000E+00  1.00800000E+00  1.60000000E+01
  1.00800000E+00  1.00800000E+00  1.60000000E+01  1.00800000E+00  1.00800000E+00
  1.60000000E+01  1.00800000E+00  1.00800000E+00  1.60000000E+01  1.00800000E+00
  1.00800000E+00  1.60000000E+01  1.00800000E+00  1.00800000E+00  1.60000000E+01
  1.00800000E+00  1.00800000E+00  1.60000000E+01  1.00800000E+00  1.00800000E+00
  1.60000000E+01  1.00800000E+00  1.00800000E+00  1.60000000E+01  1.00800000E+00
  1.00800000E+00  1.60000000E+01  1.00800000E+00  1.00800000E+00  1.60000000E+01
  1.00800000E+00  1.00800000E+00  1.60000000E+01  1.00800000E+00  1.00800000E+00
  1.60000000E+01  1.00800000E+00  1.00800000E+00  1.60000000E+01  1.00800000E+00
  1.00800000E+00  1.60000000E+01  1.00800000E+00  1.00800000E+00  1.60000000E+01
  1.00800000E+00  1.00800000E+00  1.60000000E+01  1.00800000E+00  1.00800000E+00
  1.60000000E+01  1.00800000E+00  1.00800000E+00  1.60000000E+01  1.00800000E+00
  1.00800000E+00  1.60000000E+01  1.00800000E+00  1.00800000E+00  1.60000000E+01
  1.00800000E+00  1.00800000E+00  1.60000000E+01  1.00800000E+00  1.00800000E+00
  1.60000000E+01  1.00800000E+00  1.00800000E+00  1.60000000E+01  1.00800000E+00
  1.00800000E+00  1.60000000E+01  1.00800000E+00  1.00800000E+00  1.60000000E+01
  1.00800000E+00  1.00800000E+00  1.60000000E+01  1.00800000E+00  1.00800000E+00
  1.60000000E+01  1.00800000E+00  1.00800000E+00  1.60000000E+01  1.00800000E+00
  1.00800000E+00  1.60000000E+01  1.00800000E+00  1.00800000E+00  1.60000000E+01
  1.00800000E+00  1.00800000E+00  1.60000000E+01  1.00800000E+00  1.00800000E+00
  1.60000000E+01  1.00800000E+00  1.00800000E+00  1.60000000E+01  1.00800000E+00
  1.00800000E+00  1.60000000E+01  1.00800000E+00  1.00800000E+00  1.60000000E+01
  1.00800000E+00  1.00800000E+00  1.60000000E+01  1.00800000E+00  1.00800000E+00
  1.60000000E+01  1.00800000E+00  1.00800000E+00  1.60000000E+01  1.00800000E+00
  1.00800000E+00  1.60000000E+01  1.00800000E+00  1.00800000E+00  1.60000000E+01
  1.00800000E+00  1.00800000E+00  1.60000000E+01  1.00800000E+00  1.00800000E+00
  1.60000000E+01  1.00800000E+00  1.00800000E+00  1.60000000E+01  1.00800000E+00
  1.00800000E+00  1.60000000E+01  1.00800000E+00  1.00800000E+00  1.60000000E+01
  1.00800000E+00  1.00800000E+00  1.60000000E+01  1.00800000E+00  1.00800000E+00
  1.60000000E+01  1.00800000E+00  1.00800000E+00  1.60000000E+01  1.00800000E+00
  1.00800000E+00  1.60000000E+01  1.00800000E+00  1.00800000E+00  1.60000000E+01
  1.00800000E+00  1.00800000E+00  1.60000000E+01  1.00800000E+00  1.00800000E+00
  1.60000000E+01  1.00800000E+00  1.00800000E+00  1.60000000E+01  1.00800000E+00
  1.00800000E+00  1.60000000E+01  1.00800000E+00  1.00800000E+00  1.60000000E+01
  1.00800000E+00  1.00800000E+00  1.60000000E+01  1.00800000E+00  1.00800000E+00
  1.60000000E+01  1.00800000E+00  1.00800000E+00  1.60000000E+01  1.00800000E+00
  1.00800000E+00  1.60000000E+01  1.00800000E+00  1.00800000E+00  1.60000000E+01
  1.00800000E+00  1.00800000E+00  1.60000000E+01  1.00800000E+00  1.00800000E+00
  1.60000000E+01  1.00800000E+00  1.00800000E+00  1.60000000E+01  1.00800000E+00
  1.00800000E+00  1.60000000E+01  1.00800000E+00  1.00800000E+00  1.60000000E+01
  1.00800000E+00  1.00800000E+00  1.60000000E+01  1.00800000E+00  1.00800000E+00
  1.60000000E+01  1.00800000E+00  1.00800000E+00  1.60000000E+01  1.00800000E+00
  1.00800000E+00  1.60000000E+01  1.00800000E+00  1.00800000E+00  1.60000000E+01
  1.00800000E+00  1.00800000E+00  1.60000000E+01  1.00800000E+00  1.00800000E+00
  1.60000000E+01  1.00800000E+00  1.00800000E+00  1.60000000E+01  1.00800000E+00
  1.00800000E+00  1.60000000E+01  1.00800000E+00  1.00800000E+00  1.60000000E+01
  1.00800000E+00  1.00800000E+00  1.60000000E+01  1.00800000E+00  1.00800000E+00
  1.60000000E+01  1.00800000E+00  1.00800000E+00  1.60000000E+01  1.00800000E+00
  1.00800000E+00  1.60000000E+01  1.00800000E+00  1.00800000E+00  1.60000000E+01
  1.00800000E+00  1.00800000E+00  1.60000000E+01  1.00800000E+00  1.00800000E+00
  1.60000000E+01  1.00800000E+00  1.00800000E+00  1.60000000E+01  1.00800000E+00
  1.00800000E+00  1.60000000E+01  1.00800000E+00  1.00800000E+00  1.60000000E+01
  1.00800000E+00  1.00800000E+00  1.60000000E+01  1.00800000E+00  1.00800000E+00
  1.60000000E+01  1.00800000E+00  1.00800000E+00  1.60000000E+01  1.00800000E+00
  1.00800000E+00  1.60000000E+01  1.00800000E+00  1.00800000E+00  1.60000000E+01
  1.00800000E+00  1.00800000E+00  1.60000000E+01  1.00800000E+00  1.00800000E+00
  1.60000000E+01  1.00800000E+00  1.00800000E+00  1.60000000E+01  1.00800000E+00
  1.00800000E+00  1.60000000E+01  1.00800000E+00  1.00800000E+00  1.60000000E+01
  1.00800000E+00  1.00800000E+00  1.60000000E+01  1.00800000E+00  1.00800000E+00
  1.60000000E+01  1.00800000E+00  1.00800000E+00  1.60000000E+01  1.00800000E+00
  1.00800000E+00  1.60000000E+01  1.00800000E+00  1.00800000E+00  1.60000000E+01
  1.00800000E+00  1.00800000E+00  1.60000000E+01  1.00800000E+00  1.00800000E+00
  1.60000000E+01  1.00800000E+00  1.00800000E+00  1.60000000E+01  1.00800000E+00
  1.00800000E+00  1.60000000E+01  1.00800000E+00  1.00800000E+00  1.60000000E+01
  1.00800000E+00  1.00800000E+00  1.60000000E+01  1.00800000E+00  1.00800000E+00
  1.60000000E+01  1.00800000E+00  1.00800000E+00  1.60000000E+01  1.00800000E+00
  1.00800000E+00  1.60000000E+01  1.00800000E+00  1.00800000E+00  1.60000000E+01
  1.00800000E+00  1.00800000E+00  1.60000000E+01  1.00800000E+00  1.00800000E+00
  1.60000000E+01  1.00800000E+00  1.00800000E+00  1.60000000E+01  1.00800000E+00
  1.00800000E+00  1.60000000E+01  1.00800000E+00  1.00800000E+00  1.60000000E+01
  1.00800000E+00  1.00800000E+00  1.60000000E+01  1.00800000E+00  1.00800000E+00
  1.60000000E+01  1.00800000E+00  1.00800000E+00  1.60000000E+01  1.00800000E+00
  1.00800000E+00  1.60000000E+01  1.00800000E+00  1.00800000E+00  1.60000000E+01
  1.00800000E+00  1.00800000E+00  1.60000000E+01  1.00800000E+00  1.00800000E+00
  1.60000000E+01  1.00800000E+00  1.00800000E+00  1.60000000E+01  1.00800000E+00
  1.00800000E+00  1.60000000E+01  1.00800000E+00  1.00800000E+00  1.60000000E+01
  1.00800000E+00  1.00800000E+00  1.60000000E+01  1.00800000E+00  1.00800000E+00
  1.60000000E+01  1.00800000E+00  1.00800000E+00  1.60000000E+01  1.00800000E+00
  1.00800000E+00  1.60000000E+01  1.00800000E+00  1.00800000E+00  1.60000000E+01
  1.00800000E+00  1.00800000E+00  1.60000000E+01  1.00800000E+00  1.00800000E+00
  1.60000000E+01  1.00800000E+00  1.00800000E+00  1.60000000E+01  1.00800000E+00
  1.00800000E+00  1.60000000E+01  1.00800000E+00  1.00800000E+00  1.60000000E+01
  1.00800000E+00  1.00800000E+00  1.60000000E+01  1.00800000E+00  1.00800000E+00
  1.60000000E+01  1.00800000E+00  1.00800000E+00  1.60000000E+01  1.00800000E+00
  1.00800000E+00  1.60000000E+01  1.00800000E+00  1.00800000E+00  1.60000000E+01
  1.00800000E+00  1.00800000E+00  1.60000000E+01  1.00800000E+00  1.00800000E+00
  1.60000000E+01  1.00800000E+00  1.00800000E+00  1.60000000E+01  1.00800000E+00
  1.00800000E+00  1.60000000E+01  1.00800000E+00  1.00800000E+00  1.60000000E+01
  1.00800000E+00  1.00800000E+00  1.60000000E+01  1.00800000E+00  1.00800000E+00
  1.60000000E+01  1.00800000E+00  1.00800000E+00  1.60000000E+01  1.00800000E+00
  1.00800000E+00  1.60000000E+01  1.00800000E+00  1.00800000E+00  1.60000000E+01
  1.00800000E+00  1.00800000E+00  1.60000000E+01  1.00800000E+00  1.00800000E+00
  1.60000000E+01  1.00800000E+00  1.00800000E+00  1.60000000E+01  1.00800000E+00
  1.00800000E+00  1.60000000E+01  1.00800000E+00  1.00800000E+00  1.60000000E+01
  1.00800000E+00  1.00800000E+00  1.60000000E+01  1.00800000E+00  1.00800000E+00
  1.60000000E+01  1.00800000E+00  1.00800000E+00  1.60000000E+01  1.00800000E+00
  1.00800000E+00  1.60000000E+01  1.00800000E+00  1.00800000E+00  1.60000000E+01
  1.00800000E+00  1.00800000E+00  1.60000000E+01  1.00800000E+00  1.00800000E+00
  1.60000000E+01  1.00800000E+00  1.00800000E+00  1.60000000E+01  1.00800000E+00
  1.00800000E+00  1.60000000E+01  1.00800000E+00  1.00800000E+00  1.60000000E+01
  1.00800000E+00  1.00800000E+00  1.60000000E+01  1.00800000E+00  1.00800000E+00
  1.60000000E+01  1.00800000E+00  1.00800000E+00  1.60000000E+01  1.00800000E+00
  1.00800000E+00  1.60000000E+01  1.00800000E+00  1.00800000E+00  1.60000000E+01
  1.00800000E+00  1.00800000E+00  1.60000000E+01  1.00800000E+00  1.00800000E+00
  1.60000000E+01  1.00800000E+00  1.00800000E+00  1.60000000E+01  1.00800000E+00
  1.00800000E+00  1.60000000E+01  1.00800000E+00  1.00800000E+00  1.60000000E+01
  1.00800000E+00  1.00800000E+00  1.60000000E+01  1.00800000E+00  1.00800000E+00
  1.60000000E+01  1.00800000E+00  1.00800000E+00  1.60000000E+01  1.00800000E+00
  1.00800000E+00  1.60000000E+01  1.00800000E+00  1.00800000E+00  1.60000000E+01
  1.00800000E+00  1.00800000E+00  1.60000000E+01  1.00800000E+00  1.00800000E+00
  1.60000000E+01  1.00800000E+00  1.00800000E+00  1.60000000E+01  1.00800000E+00
  1.00800000E+00  1.60000000E+01  1.00800000E+00  1.00800000E+00  1.60000000E+01
  1.00800000E+00  1.00800000E+00  1.60000000E+01  1.00800000E+00  1.00800000E+00
  1.60000000E+01  1.00800000E+00  1.00800000E+00  1.60000000E+01  1.00800000E+00
  1.00800000E+00  1.60000000E+01  1.00800000E+00  1.00800000E+00  1.60000000E+01
  1.00800000E+00  1.00800000E+00  1.60000000E+01  1.00800000E+00  1.00800000E+00
  1.60000000E+01  1.00800000E+00  1.00800000E+00  1.60000000E+01  1.00800000E+00
  1.00800000E+00  1.60000000E+01  1.00800000E+00  1.00800000E+00  1.60000000E+01
  1.00800000E+00  1.00800000E+00  1.60000000E+01  1.00800000E+00  1.00800000E+00
  1.60000000E+01  1.00800000E+00  1.00800000E+00  1.60000000E+01  1.00800000E+00
  1.00800000E+00  1.60000000E+01  1.00800000E+00  1.00800000E+00  1.60000000E+01
  1.00800000E+00  1.00800000E+00  1.60000000E+01  1.00800000E+00  1.00800000E+00
  1.60000000E+01  1.00800000E+00  1.00800000E+00  1.60000000E+01  1.00800000E+00
  1.00800000E+00  1.60000000E+01  1.00800000E+00  1.00800000E+00  1.60000000E+01
  1.00800000E+00  1.00800000E+00  1.60000000E+01  1.00800000E+00  1.00800000E+00
  1.60000000E+01  1.00800000E+00  1.00800000E+00  1.60000000E+01  1.00800000E+00
  1.00800000E+00  1.60000000E+01  1.00800000E+00  1.00800000E+00  1.60000000E+01
  1.00800000E+00  1.00800000E+00  1.60000000E+01  1.00800000E+00  1.00800000E+00
  1.60000000E+01  1.00800000E+00  1.00800000E+00  1.60000000E+01  1.00800000E+00
  1.00800000E+00  1.60000000E+01  1.00800000E+00  1.00800000E+00  1.60000000E+01
  1.00800000E+00  1.00800000E+00  1.60000000E+01  1.00800000E+00  1.00800000E+00
  1.60000000E+01  1.00800000E+00  1.00800000E+00  1.60000000E+01  1.00800000E+00
  1.00800000E+00  1.60000000E+01  1.00800000E+00  1.00800000E+00  1.60000000E+01
  1.00800000E+00  1.00800000E+00  1.60000000E+01  1.00800000E+00  1.00800000E+00
  1.60000000E+01  1.00800000E+00  1.00800000E+00  1.60000000E+01  1.00800000E+00
  1.00800000E+00  1.60000000E+01  1.00800000E+00  1.00800000E+00  1.60000000E+01
  1.00800000E+00  1.00800000E+00  1.60000000E+01  1.00800000E+00  1.00800000E+00
  1.60000000E+01  1.00800000E+00  1.00800000E+00  1.60000000E+01  1.00800000E+00
  1.00800000E+00  1.60000000E+01  1.00800000E+00  1.00800000E+00  1.60000000E+01
  1.00800000E+00  1.00800000E+00  1.60000000E+01  1.00800000E+00  1.00800000E+00
  1.60000000E+01  1.00800000E+00  1.00800000E+00  1.60000000E+01  1.00800000E+00
  1.00800000E+00  1.60000000E+01  1.00800000E+00  1.00800000E+00  1.60000000E+01
  1.00800000E+00  1.00800000E+00  1.60000000E+01  1.00800000E+00  1.00800000E+00
  1.60000000E+01  1.00800000E+00  1.00800000E+00  1.60000000E+01  1.00800000E+00
  1.00800000E+00  1.60000000E+01  1.00800000E+00  1.00800000E+00  1.60000000E+01
  1.00800000E+00  1.00800000E+00  1.60000000E+01  1.00800000E+00  1.00800000E+00
  1.60000000E+01  1.00800000E+00  1.00800000E+00  1.60000000E+01  1.00800000E+00
  1.00800000E+00  1.60000000E+01  1.00800000E+00  1.00800000E+00  1.60000000E+01
  1.00800000E+00  1.00800000E+00  1.60000000E+01  1.00800000E+00  1.00800000E+00
  1.60000000E+01  1.00800000E+00  1.00800000E+00  1.60000000E+01  1.00800000E+00
  1.00800000E+00  1.60000000E+01  1.00800000E+00  1.00800000E+00  1.60000000E+01
  1.00800000E+00  1.00800000E+00  1.60000000E+01  1.00800000E+00  1.00800000E+00
  1.60000000E+01  1.00800000E+00  1.00800000E+00  1.60000000E+01  1.00800000E+00
  1.00800000E+00  1.60000000E+01  1.00800000E+00  1.00800000E+00  1.60000000E+01
  1.00800000E+00  1.00800000E+00  1.60000000E+01  1.00800000E+00  1.00800000E+00
  1.60000000E+01  1.00800000E+00  1.00800000E+00  1.60000000E+01  1.00800000E+00
  1.00800000E+00  1.60000000E+01  1.00800000E+00  1.00800000E+00  1.60000000E+01
  1.00800000E+00  1.00800000E+00  1.60000000E+01  1.00800000E+00  1.00800000E+00
  1.60000000E+01  1.00800000E+00  1.00800000E+00  1.60000000E+01  1.00800000E+00
  1.00800000E+00  1.60000000E+01  1.00800000E+00  1.00800000E+00  1.60000000E+01
  1.00800000E+00  1.00800000E+00  1.60000000E+01  1.00800000E+00  1.00800000E+00
  1.60000000E+01  1.00800000E+00  1.00800000E+00  1.60000000E+01  1.00800000E+00
  1.00800000E+00  1.60000000E+01  1.00800000E+00  1.00800000E+00  1.60000000E+01
  1.00800000E+00  1.00800000E+00  1.60000000E+01  1.00800000E+00  1.00800000E+00
  1.60000000E+01  1.00800000E+00  1.00800000E+00  1.60000000E+01  1.00800000E+00
  1.00800000E+00  1.60000000E+01  1.00800000E+00  1.00800000E+00  1.60000000E+01
  1.00800000E+00  1.00800000E+00  1.60000000E+01  1.00800000E+00  1.00800000E+00
  1.60000000E+01  1.00800000E+00  1.00800000E+00  1.60000000E+01  1.00800000E+00
  1.00800000E+00  1.60000000E+01  1.00800000E+00  1.00800000E+00  1.60000000E+01
  1.00800000E+00  1.00800000E+00  1.60000000E+01  1.00800000E+00  1.00800000E+00
  1.60000000E+01  1.00800000E+00  1.00800000E+00  1.60000000E+01  1.00800000E+00
  1.00800000E+00  1.60000000E+01  1.00800000E+00  1.00800000E+00  1.60000000E+01
  1.00800000E+00  1.00800000E+00  1.60000000E+01  1.00800000E+00  1.00800000E+00
  1.60000000E+01  1.00800000E+00  1.00800000E+00  1.60000000E+01  1.00800000E+00
  1.00800000E+00  1.60000000E+01  1.00800000E+00  1.00800000E+00  1.60000000E+01
  1.00800000E+00  1.00800000E+00  1.60000000E+01  1.00800000E+00  1.00800000E+00
  1.60000000E+01  1.00800000E+00  1.00800000E+00  1.60000000E+01  1.00800000E+00
  1.00800000E+00  1.60000000E+01  1.00800000E+00  1.00800000E+00  1.60000000E+01
  1.00800000E+00  1.00800000E+00  1.60000000E+01  1.00800000E+00  1.00800000E+00
  1.60000000E+01  1.00800000E+00  1.00800000E+00  1.60000000E+01  1.00800000E+00
  1.00800000E+00  1.60000000E+01  1.00800000E+00  1.00800000E+00  1.60000000E+01
  1.00800000E+00  1.00800000E+00  1.60000000E+01  1.00800000E+00  1.00800000E+00
  1.60000000E+01  1.00800000E+00  1.00800000E+00  1.60000000E+01  1.00800000E+00
  1.00800000E+00  1.60000000E+01  1.00800000E+00  1.00800000E+00  1.60000000E+01
  1.00800000E+00  1.00800000E+00  1.60000000E+01  1.00800000E+00  1.00800000E+00
  1.60000000E+01  1.00800000E+00  1.00800000E+00  1.60000000E+01  1.00800000E+00
  1.00800000E+00  1.60000000E+01  1.00800000E+00  1.00800000E+00  1.60000000E+01
  1.00800000E+00  1.00800000E+00  1.60000000E+01  1.00800000E+00  1.00800000E+00
  1.60000000E+01  1.00800000E+00  1.00800000E+00  1.60000000E+01  1.00800000E+00
  1.00800000E+00  1.60000000E+01  1.00800000E+00  1.00800000E+00  1.60000000E+01
  1.00800000E+00  1.00800000E+00  1.60000000E+01  1.00800000E+00  1.00800000E+00
  1.60000000E+01  1.00800000E+00  1.00800000E+00  1.60000000E+01  1.00800000E+00
  1.00800000E+00  1.60000000E+01  1.00800000E+00  1.00800000E+00  1.60000000E+01
  1.00800000E+00  1.00800000E+00  1.60000000E+01  1.00800000E+00  1.00800000E+00
  1.60000000E+01  1.00800000E+00  1.00800000E+00  1.60000000E+01  1.00800000E+00
  1.00800000E+00  1.60000000E+01  1.00800000E+00  1.00800000E+00  1.60000000E+01
  1.00800000E+00  1.00800000E+00  1.60000000E+01  1.00800000E+00  1.00800000E+00
  1.60000000E+01  1.00800000E+00  1.00800000E+00  1.60000000E+01  1.00800000E+00
  1.00800000E+00  1.60000000E+01  1.00800000E+00  1.00800000E+00  1.60000000E+01
  1.00800000E+00  1.00800000E+00  1.60000000E+01  1.00800000E+00  1.00800000E+00
  1.60000000E+01  1.00800000E+00  1.00800000E+00  1.60000000E+01  1.00800000E+00
  1.00800000E+00  1.60000000E+01  1.00800000E+00  1.00800000E+00  1.60000000E+01
  1.00800000E+00  1.00800000E+00  1.60000000E+01  1.00800000E+00  1.00800000E+00
  1.60000000E+01  1.00800000E+00  1.00800000E+00  1.60000000E+01  1.00800000E+00
  1.00800000E+00  1.60000000E+01  1.00800000E+00  1.00800000E+00  1.60000000E+01
  1.00800000E+00  1.00800000E+00  1.60000000E+01  1.00800000E+00  1.00800000E+00
  1.60000000E+01  1.00800000E+00  1.00800000E+00  1.60000000E+01  1.00800000E+00
  1.00800000E+00  1.60000000E+01  1.00800000E+00  1.00800000E+00  1.60000000E+01
  1.00800000E+00  1.00800000E+00  1.60000000E+01  1.00800000E+00  1.00800000E+00
  1.60000000E+01  1.00800000E+00  1.00800000E+00  1.60000000E+01  1.00800000E+00
  1.00800000E+00  1.60000000E+01  1.00800000E+00  1.00800000E+00  1.60000000E+01
  1.00800000E+00  1.00800000E+00  1.60000000E+01  1.00800000E+00  1.00800000E+00
  1.60000000E+01  1.00800000E+00  1.00800000E+00  1.60000000E+01  1.00800000E+00
  1.00800000E+00  1.60000000E+01  1.00800000E+00  1.00800000E+00  1.60000000E+01
  1.00800000E+00  1.00800000E+00  1.60000000E+01  1.00800000E+00  1.00800000E+00
  1.60000000E+01  1.00800000E+00  1.00800000E+00  1.60000000E+01  1.00800000E+00
  1.00800000E+00  1.60000000E+01  1.00800000E+00  1.00800000E+00  1.60000000E+01
  1.00800000E+00  1.00800000E+00  1.60000000E+01  1.00800000E+00  1.00800000E+00
  1.60000000E+01  1.00800000E+00  1.00800000E+00  1.60000000E+01  1.00800000E+00
  1.00800000E+00  1.60000000E+01  1.00800000E+00  1.00800000E+00  1.60000000E+01
  1.00800000E+00  1.00800000E+00  1.60000000E+01  1.00800000E+00  1.00800000E+00
  1.60000000E+01  1.00800000E+00  1.00800000E+00  1.60000000E+01  1.00800000E+00
  1.00800000E+00  1.60000000E+01  1.00800000E+00  1.00800000E+00  1.60000000E+01
  1.00800000E+00  1.00800000E+00  1.60000000E+01  1.00800000E+00  1.00800000E+00
  1.60000000E+01  1.00800000E+00  1.00800000E+00  1.60000000E+01  1.00800000E+00
  1.00800000E+00  1.60000000E+01  1.00800000E+00  1.00800000E+00  1.60000000E+01
  1.00800000E+00  1.00800000E+00  1.60000000E+01  1.00800000E+00  1.00800000E+00
  1.60000000E+01  1.00800000E+00  1.00800000E+00  1.60000000E+01  1.00800000E+00
  1.00800000E+00  1.60000000E+01  1.00800000E+00  1.00800000E+00  1.60000000E+01
  1.00800000E+00  1.00800000E+00  1.60000000E+01  1.00800000E+00  1.00800000E+00
  1.60000000E+01  1.00800000E+00  1.00800000E+00  1.60000000E+01  1.00800000E+00
  1.00800000E+00  1.60000000E+01  1.00800000E+00  1.00800000E+00  1.60000000E+01
  1.00800000E+00  1.00800000E+00  1.60000000E+01  1.00800000E+00  1.00800000E+00
  1.60000000E+01  1.00800000E+00  1.00800000E+00  1.60000000E+01  1.00800000E+00
  1.00800000E+00  1.60000000E+01  1.00800000E+00  1.00800000E+00  1.60000000E+01
  1.00800000E+00  1.00800000E+00  1.60000000E+01  1.00800000E+00  1.00800000E+00
  1.60000000E+01  1.00800000E+00  1.00800000E+00  1.60000000E+01  1.00800000E+00
  1.00800000E+00  1.60000000E+01  1.00800000E+00  1.00800000E+00  1.60000000E+01
  1.00800000E+00  1.00800000E+00  1.60000000E+01  1.00800000E+00  1.00800000E+00
  1.60000000E+01  1.00800000E+00  1.00800000E+00  1.60000000E+01  1.00800000E+00
  1.00800000E+00  1.60000000E+01  1.00800000E+00  1.00800000E+00  1.60000000E+01
  1.00800000E+00  1.00800000E+00  1.60000000E+01  1.00800000E+00  1.00800000E+00
  1.60000000E+01  1.00800000E+00  1.00800000E+00  1.60000000E+01  1.00800000E+00
  1.00800000E+00  1.60000000E+01  1.00800000E+00  1.00800000E+00  1.60000000E+01
  1.00800000E+00  1.00800000E+00  1.60000000E+01  1.00800000E+00  1.00800000E+00
  1.60000000E+01  1.00800000E+00  1.00800000E+00  1.60000000E+01  1.00800000E+00
  1.00800000E+00  1.60000000E+01  1.00800000E+00  1.00800000E+00  1.60000000E+01
  1.00800000E+00  1.00800000E+00  1.60000000E+01  1.00800000E+00  1.00800000E+00
  1.60000000E+01  1.00800000E+00  1.00800000E+00  1.60000000E+01  1.00800000E+00
  1.00800000E+00  1.60000000E+01  1.00800000E+00  1.00800000E+00  1.60000000E+01
  1.00800000E+00  1.00800000E+00  1.60000000E+01  1.00800000E+00  1.00800000E+00
  1.60000000E+01  1.00800000E+00  1.00800000E+00  1.60000000E+01  1.00800000E+00
  1.00800000E+00  1.60000000E+01  1.00800000E+00  1.00800000E+00  1.60000000E+01
  1.00800000E+00  1.00800000E+00  1.60000000E+01  1.00800000E+00  1.00800000E+00
  1.60000000E+01  1.00800000E+00  1.00800000E+00  1.60000000E+01  1.00800000E+00
  1.00800000E+00  1.60000000E+01  1.00800000E+00  1.00800000E+00  1.60000000E+01
  1.00800000E+00  1.00800000E+00  1.60000000E+01  1.00800000E+00  1.00800000E+00
  1.60000000E+01  1.00800000E+00  1.00800000E+00  1.60000000E+01  1.00800000E+00
  1.00800000E+00  1.60000000E+01  1.00800000E+00  1.00800000E+00  1.60000000E+01
  1.00800000E+00  1.00800000E+00  1.60000000E+01  1.00800000E+00  1.00800000E+00
  1.60000000E+01  1.00800000E+00  1.00800000E+00  1.60000000E+01  1.00800000E+00
  1.00800000E+00  1.60000000E+01  1.00800000E+00  1.00800000E+00  1.60000000E+01
  1.00800000E+00  1.00800000E+00  1.60000000E+01  1.00800000E+00  1.00800000E+00
  1.60000000E+01  1.00800000E+00  1.00800000E+00  1.60000000E+01  1.00800000E+00
  1.00800000E+00  1.60000000E+01  1.00800000E+00  1.00800000E+00  1.60000000E+01
  1.00800000E+00  1.00800000E+00  1.60000000E+01  1.00800000E+00  1.00800000E+00
  1.60000000E+01  1.00800000E+00  1.00800000E+00  1.60000000E+01  1.00800000E+00
  1.00800000E+00  1.60000000E+01  1.00800000E+00  1.00800000E+00  1.60000000E+01
  1.00800000E+00  1.00800000E+00  1.60000000E+01  1.00800000E+00  1.00800000E+00
  1.60000000E+01  1.00800000E+00  1.00800000E+00  1.60000000E+01  1.00800000E+00
  1.00800000E+00  1.60000000E+01  1.00800000E+00  1.00800000E+00  1.60000000E+01
  1.00800000E+00  1.00800000E+00  1.60000000E+01  1.00800000E+00  1.00800000E+00
  1.60000000E+01  1.00800000E+00  1.00800000E+00  1.60000000E+01  1.00800000E+00
  1.00800000E+00  1.60000000E+01  1.00800000E+00  1.00800000E+00  1.60000000E+01
  1.00800000E+00  1.00800000E+00  1.60000000E+01  1.00800000E+00  1.00800000E+00
  1.60000000E+01  1.00800000E+00  1.00800000E+00  1.60000000E+01  1.00800000E+00
  1.00800000E+00  1.60000000E+01  1.00800000E+00  1.00800000E+00  1.60000000E+01
  1.00800000E+00  1.00800000E+00  1.60000000E+01  1.00800000E+00  1.00800000E+00
  1.60000000E+01  1.00800000E+00  1.00800000E+00  1.60000000E+01  1.00800000E+00
  1.00800000E+00  1.60000000E+01  1.00800000E+00  1.00800000E+00  1.60000000E+01
  1.00800000E+00  1.00800000E+00  1.60000000E+01  1.00800000E+00  1.00800000E+00
  1.60000000E+01  1.00800000E+00  1.00800000E+00  1.60000000E+01  1.00800000E+00
  1.00800000E+00  1.60000000E+01  1.00800000E+00  1.00800000E+00  1.60000000E+01
  1.00800000E+00  1.00800000E+00  1.60000000E+01  1.00800000E+00  1.00800000E+00
  1.60000000E+01  1.00800000E+00  1.00800000E+00  1.60000000E+01  1.00800000E+00
  1.00800000E+00  1.60000000E+01  1.00800000E+00  1.00800000E+00  1.60000000E+01
  1.00800000E+00  1.00800000E+00  1.60000000E+01  1.00800000E+00  1.00800000E+00
  1.60000000E+01  1.00800000E+00  1.00800000E+00  1.60000000E+01  1.00800000E+00
  1.00800000E+00  1.60000000E+01  1.00800000E+00  1.00800000E+00  1.60000000E+01
  1.00800000E+00  1.00800000E+00  1.60000000E+01  1.00800000E+00  1.00800000E+00
  1.60000000E+01  1.00800000E+00  1.00800000E+00  1.60000000E+01  1.00800000E+00
  1.00800000E+00  1.60000000E+01  1.00800000E+00  1.00800000E+00  1.60000000E+01
  1.00800000E+00  1.00800000E+00  1.60000000E+01  1.00800000E+00  1.00800000E+00
  1.60000000E+01  1.00800000E+00  1.00800000E+00  1.60000000E+01  1.00800000E+00
  1.00800000E+00  1.60000000E+01  1.00800000E+00  1.00800000E+00  1.60000000E+01
  1.00800000E+00  1.00800000E+00  1.60000000E+01  1.00800000E+00  1.00800000E+00
  1.60000000E+01  1.00800000E+00  1.00800000E+00  1.60000000E+01  1.00800000E+00
  1.00800000E+00  1.60000000E+01  1.00800000E+00  1.00800000E+00  1.60000000E+01
  1.00800000E+00  1.00800000E+00  1.60000000E+01  1.00800000E+00  1.00800000E+00
  1.60000000E+01  1.00800000E+00  1.00800000E+00  1.60000000E+01  1.00800000E+00
  1.00800000E+00  1.60000000E+01  1.00800000E+00  1.00800000E+00  1.60000000E+01
  1.00800000E+00  1.00800000E+00  1.60000000E+01  1.00800000E+00  1.00800000E+00
  1.60000000E+01  1.00800000E+00  1.00800000E+00  1.60000000E+01  1.00800000E+00
  1.00800000E+00  1.60000000E+01  1.00800000E+00  1.00800000E+00  1.60000000E+01
  1.00800000E+00  1.00800000E+00  1.60000000E+01  1.00800000E+00  1.00800000E+00
  1.60000000E+01  1.00800000E+00  1.00800000E+00  1.60000000E+01  1.00800000E+00
  1.00800000E+00  1.60000000E+01  1.00800000E+00  1.00800000E+00  1.60000000E+01
  1.00800000E+00  1.00800000E+00  1.60000000E+01  1.00800000E+00  1.00800000E+00
  1.60000000E+01  1.00800000E+00  1.00800000E+00  1.60000000E+01  1.00800000E+00
  1.00800000E+00  1.60000000E+01  1.00800000E+00  1.00800000E+00  1.60000000E+01
  1.00800000E+00  1.00800000E+00  1.60000000E+01  1.00800000E+00  1.00800000E+00
  1.60000000E+01  1.00800000E+00  1.00800000E+00  1.60000000E+01  1.00800000E+00
  1.00800000E+00  1.60000000E+01  1.00800000E+00  1.00800000E+00  1.60000000E+01
  1.00800000E+00  1.00800000E+00  1.60000000E+01  1.00800000E+00  1.00800000E+00
  1.60000000E+01  1.00800000E+00  1.00800000E+00  1.60000000E+01  1.00800000E+00
  1.00800000E+00  1.60000000E+01  1.00800000E+00  1.00800000E+00  1.60000000E+01
  1.00800000E+00  1.00800000E+00  1.60000000E+01  1.00800000E+00  1.00800000E+00
  1.60000000E+01  1.00800000E+00  1.00800000E+00  1.60000000E+01  1.00800000E+00
  1.00800000E+00  1.60000000E+01  1.00800000E+00  1.00800000E+00  1.60000000E+01
  1.00800000E+00  1.00800000E+00  1.60000000E+01  1.00800000E+00  1.00800000E+00
  1.60000000E+01  1.00800000E+00  1.00800000E+00  1.60000000E+01  1.00800000E+00
  1.00800000E+00  1.60000000E+01  1.00800000E+00  1.00800000E+00  1.60000000E+01
  1.00800000E+00  1.00800000E+00  1.60000000E+01  1.00800000E+00  1.00800000E+00
  1.60000000E+01  1.00800000E+00  1.00800000E+00  1.60000000E+01  1.00800000E+00
  1.00800000E+00  1.60000000E+01  1.00800000E+00  1.00800000E+00  1.60000000E+01
  1.00800000E+00  1.00800000E+00  1.60000000E+01  1.00800000E+00  1.00800000E+00
  1.60000000E+01  1.00800000E+00  1.00800000E+00  1.60000000E+01  1.00800000E+00
  1.00800000E+00  1.60000000E+01  1.00800000E+00  1.00800000E+00  1.60000000E+01
  1.00800000E+00  1.00800000E+00  1.60000000E+01  1.00800000E+00  1.00800000E+00
  1.60000000E+01  1.00800000E+00  1.00800000E+00  1.60000000E+01  1.00800000E+00
  1.00800000E+00  1.60000000E+01  1.00800000E+00  1.00800000E+00  1.60000000E+01
  1.00800000E+00  1.00800000E+00  1.60000000E+01  1.00800000E+00  1.00800000E+00
  1.60000000E+01  1.00800000E+00  1.00800000E+00  1.60000000E+01  1.00800000E+00
  1.00800000E+00  1.60000000E+01  1.00800000E+00  1.00800000E+00  1.60000000E+01
  1.00800000E+00  1.00800000E+00  1.60000000E+01  1.00800000E+00  1.00800000E+00
  1.60000000E+01  1.00800000E+00  1.00800000E+00  1.60000000E+01  1.00800000E+00
  1.00800000E+00  1.60000000E+01  1.00800000E+00  1.00800000E+00  1.60000000E+01
  1.00800000E+00  1.00800000E+00  1.60000000E+01  1.00800000E+00  1.00800000E+00
  1.60000000E+01  1.00800000E+00  1.00800000E+00  1.60000000E+01  1.00800000E+00
  1.00800000E+00  1.60000000E+01  1.00800000E+00  1.00800000E+00  1.60000000E+01
  1.00800000E+00  1.00800000E+00  1.60000000E+01  1.00800000E+00  1.00800000E+00
  1.60000000E+01  1.00800000E+00  1.00800000E+00  1.60000000E+01  1.00800000E+00
  1.00800000E+00  1.60000000E+01  1.00800000E+00  1.00800000E+00  1.60000000E+01
  1.00800000E+00  1.00800000E+00  1.60000000E+01  1.00800000E+00  1.00800000E+00
  1.60000000E+01  1.00800000E+00  1.00800000E+00  1.60000000E+01  1.00800000E+00
  1.00800000E+00  1.60000000E+01  1.00800000E+00  1.00800000E+00  1.60000000E+01
  1.00800000E+00  1.00800000E+00  1.60000000E+01  1.00800000E+00  1.00800000E+00
  1.60000000E+01  1.00800000E+00  1.00800000E+00  1.60000000E+01  1.00800000E+00
  1.00800000E+00  1.60000000E+01  1.00800000E+00  1.00800000E+00  1.60000000E+01
  1.00800000E+00  1.00800000E+00  1.60000000E+01  1.00800000E+00  1.00800000E+00
  1.60000000E+01  1.00800000E+00  1.00800000E+00  1.60000000E+01  1.00800000E+00
  1.00800000E+00  1.60000000E+01  1.00800000E+00  1.00800000E+00  1.60000000E+01
  1.00800000E+00  1.00800000E+00  1.60000000E+01  1.00800000E+00  1.00800000E+00
  1.60000000E+01  1.00800000E+00  1.00800000E+00  1.60000000E+01  1.00800000E+00
  1.00800000E+00  1.60000000E+01  1.00800000E+00  1.00800000E+00  1.60000000E+01
  1.00800000E+00  1.00800000E+00  1.60000000E+01  1.00800000E+00  1.00800000E+00
  1.60000000E+01  1.00800000E+00  1.00800000E+00  1.60000000E+01  1.00800000E+00
  1.00800000E+00  1.60000000E+01  1.00800000E+00  1.00800000E+00  1.60000000E+01
  1.00800000E+00  1.00800000E+00  1.60000000E+01  1.00800000E+00  1.00800000E+00
  1.60000000E+01  1.00800000E+00  1.00800000E+00  1.60000000E+01  1.00800000E+00
  1.00800000E+00  1.60000000E+01  1.00800000E+00  1.00800000E+00  1.60000000E+01
  1.00800000E+00  1.00800000E+00  1.60000000E+01  1.00800000E+00  1.00800000E+00
  1.60000000E+01  1.00800000E+00  1.00800000E+00  1.60000000E+01  1.00800000E+00
  1.00800000E+00  1.60000000E+01  1.00800000E+00  1.00800000E+00  1.60000000E+01
  1.00800000E+00  1.00800000E+00  1.60000000E+01  1.00800000E+00  1.00800000E+00
  1.60000000E+01  1.00800000E+00  1.00800000E+00  1.60000000E+01  1.00800000E+00
  1.00800000E+00  1.60000000E+01  1.00800000E+00  1.00800000E+00  1.60000000E+01
  1.00800000E+00  1.00800000E+00  1.60000000E+01  1.00800000E+00  1.00800000E+00
  1.60000000E+01  1.00800000E+00  1.00800000E+00  1.60000000E+01  1.00800000E+00
  1.00800000E+00  1.60000000E+01  1.00800000E+00  1.00800000E+00  1.60000000E+01
  1.00800000E+00  1.00800000E+00  1.60000000E+01  1.00800000E+00  1.00800000E+00
  1.60000000E+01  1.00800000E+00  1.00800000E+00  1.60000000E+01  1.00800000E+00
  1.00800000E+00  1.60000000E+01  1.00800000E+00  1.00800000E+00  1.60000000E+01
  1.00800000E+00  1.00800000E+00  1.60000000E+01  1.00800000E+00  1.00800000E+00
  1.60000000E+01  1.00800000E+00  1.00800000E+00  1.60000000E+01  1.00800000E+00
  1.00800000E+00  1.60000000E+01  1.00800000E+00  1.00800000E+00  1.60000000E+01
  1.00800000E+00  1.00800000E+00  1.60000000E+01  1.00800000E+00  1.00800000E+00
  1.60000000E+01  1.00800000E+00  1.00800000E+00  1.60000000E+01  1.00800000E+00
  1.00800000E+00  1.60000000E+01  1.00800000E+00  1.00800000E+00  1.60000000E+01
  1.00800000E+00  1.00800000E+00  1.60000000E+01  1.00800000E+00  1.00800000E+00
  1.60000000E+01  1.00800000E+00  1.00800000E+00  1.60000000E+01  1.00800000E+00
  1.00800000E+00  1.60000000E+01  1.00800000E+00  1.00800000E+00  1.60000000E+01
  1.00800000E+00  1.00800000E+00  1.60000000E+01  1.00800000E+00  1.00800000E+00
  1.60000000E+01  1.00800000E+00  1.00800000E+00  1.60000000E+01  1.00800000E+00
  1.00800000E+00  1.60000000E+01  1.00800000E+00  1.00800000E+00  1.60000000E+01
  1.00800000E+00  1.00800000E+00  1.60000000E+01  1.00800000E+00  1.00800000E+00
  1.60000000E+01  1.00800000E+00  1.00800000E+00  1.60000000E+01  1.00800000E+00
  1.00800000E+00  1.60000000E+01  1.00800000E+00  1.00800000E+00  1.60000000E+01
  1.00800000E+00  1.00800000E+00  1.60000000E+01  1.00800000E+00  1.00800000E+00
  1.60000000E+01  1.00800000E+00  1.00800000E+00  1.60000000E+01  1.00800000E+00
  1.00800000E+00  1.60000000E+01  1.00800000E+00  1.00800000E+00  1.60000000E+01
  1.00800000E+00  1.00800000E+00  1.60000000E+01  1.00800000E+00  1.00800000E+00
  1.60000000E+01  1.00800000E+00  1.00800000E+00  1.60000000E+01  1.00800000E+00
  1.00800000E+00  1.60000000E+01  1.00800000E+00  1.00800000E+00  1.60000000E+01
  1.00800000E+00  1.00800000E+00  1.60000000E+01  1.00800000E+00  1.00800000E+00
  1.60000000E+01  1.00800000E+00  1.00800000E+00  1.60000000E+01  1.00800000E+00
  1.00800000E+00  1.60000000E+01  1.00800000E+00  1.00800000E+00  1.60000000E+01
  1.00800000E+00  1.00800000E+00  1.60000000E+01  1.00800000E+00  1.00800000E+00
  1.60000000E+01  1.00800000E+00  1.00800000E+00  1.60000000E+01  1.00800000E+00
  1.00800000E+00  1.60000000E+01  1.00800000E+00  1.00800000E+00  1.60000000E+01
  1.00800000E+00  1.00800000E+00  1.60000000E+01  1.00800000E+00  1.00800000E+00
  1.60000000E+01  1.00800000E+00  1.00800000E+00  1.60000000E+01  1.00800000E+00
  1.00800000E+00  1.60000000E+01  1.00800000E+00  1.00800000E+00  1.60000000E+01
  1.00800000E+00  1.00800000E+00  1.60000000E+01  1.00800000E+00  1.00800000E+00
  1.60000000E+01  1.00800000E+00  1.00800000E+00  1.60000000E+01  1.00800000E+00
  1.00800000E+00  1.60000000E+01  1.00800000E+00  1.00800000E+00  1.60000000E+01
  1.00800000E+00  1.00800000E+00  1.60000000E+01  1.00800000E+00  1.00800000E+00
  1.60000000E+01  1.00800000E+00  1.00800000E+00  1.60000000E+01  1.00800000E+00
  1.00800000E+00  1.60000000E+01  1.00800000E+00  1.00800000E+00  1.60000000E+01
  1.00800000E+00  1.00800000E+00  1.60000000E+01  1.00800000E+00  1.00800000E+00
  1.60000000E+01  1.00800000E+00  1.00800000E+00  1.60000000E+01  1.00800000E+00
  1.00800000E+00  1.60000000E+01  1.00800000E+00  1.00800000E+00  1.60000000E+01
  1.00800000E+00  1.00800000E+00  1.60000000E+01  1.00800000E+00  1.00800000E+00
  1.60000000E+01  1.00800000E+00  1.00800000E+00  1.60000000E+01  1.00800000E+00
  1.00800000E+00  1.60000000E+01  1.00800000E+00  1.00800000E+00  1.60000000E+01
  1.00800000E+00  1.00800000E+00  1.60000000E+01  1.00800000E+00  1.00800000E+00
  1.60000000E+01  1.00800000E+00  1.00800000E+00  1.60000000E+01  1.00800000E+00
  1.00800000E+00  1.60000000E+01  1.00800000E+00  1.00800000E+00  1.60000000E+01
  1.00800000E+00  1.00800000E+00  1.60000000E+01  1.00800000E+00  1.00800000E+00
  1.60000000E+01  1.00800000E+00  1.00800000E+00  1.60000000E+01  1.00800000E+00
  1.00800000E+00  1.60000000E+01  1.00800000E+00  1.00800000E+00  1.60000000E+01
  1.00800000E+00  1.00800000E+00  1.60000000E+01  1.00800000E+00  1.00800000E+00
  1.60000000E+01  1.00800000E+00  1.00800000E+00  1.60000000E+01  1.00800000E+00
  1.00800000E+00  1.60000000E+01  1.00800000E+00  1.00800000E+00  1.60000000E+01
  1.00800000E+00  1.00800000E+00  1.60000000E+01  1.00800000E+00  1.00800000E+00
  1.60000000E+01  1.00800000E+00  1.00800000E+00  1.60000000E+01  1.00800000E+00
  1.00800000E+00  1.60000000E+01  1.00800000E+00  1.00800000E+00  1.60000000E+01
  1.00800000E+00  1.00800000E+00  1.60000000E+01  1.00800000E+00  1.00800000E+00
  1.60000000E+01  1.00800000E+00  1.00800000E+00  1.60000000E+01  1.00800000E+00
  1.00800000E+00  1.60000000E+01  1.00800000E+00  1.00800000E+00  1.60000000E+01
  1.00800000E+00  1.00800000E+00  1.60000000E+01  1.00800000E+00  1.00800000E+00
  1.60000000E+01  1.00800000E+00  1.00800000E+00  1.60000000E+01  1.00800000E+00
  1.00800000E+00  1.60000000E+01  1.00800000E+00  1.00800000E+00  1.60000000E+01
  1.00800000E+00  1.00800000E+00  1.60000000E+01  1.00800000E+00  1.00800000E+00
  1.60000000E+01  1.00800000E+00  1.00800000E+00  1.60000000E+01  1.00800000E+00
  1.00800000E+00  1.60000000E+01  1.00800000E+00  1.00800000E+00  1.60000000E+01
  1.00800000E+00  1.00800000E+00  1.60000000E+01  1.00800000E+00  1.00800000E+00
  1.60000000E+01  1.00800000E+00  1.00800000E+00  1.60000000E+01  1.00800000E+00
  1.00800000E+00  1.60000000E+01  1.00800000E+00  1.00800000E+00  1.60000000E+01
  1.00800000E+00  1.00800000E+00  1.60000000E+01  1.00800000E+00  1.00800000E+00
  1.60000000E+01  1.00800000E+00  1.00800000E+00  1.60000000E+01  1.00800000E+00
  1.00800000E+00  1.60000000E+01  1.00800000E+00  1.00800000E+00  1.60000000E+01
  1.00800000E+00  1.00800000E+00  1.60000000E+01  1.00800000E+00  1.00800000E+00
  1.60000000E+01  1.00800000E+00  1.00800000E+00  1.60000000E+01  1.00800000E+00
  1.00800000E+00  1.60000000E+01  1.00800000E+00  1.00800000E+00  1.60000000E+01
  1.00800000E+00  1.00800000E+00  1.60000000E+01  1.00800000E+00  1.00800000E+00
  1.60000000E+01  1.00800000E+00  1.00800000E+00  1.60000000E+01  1.00800000E+00
  1.00800000E+00  1.60000000E+01  1.00800000E+00  1.00800000E+00  1.60000000E+01
  1.00800000E+00  1.00800000E+00  1.60000000E+01  1.00800000E+00  1.00800000E+00
  1.60000000E+01  1.00800000E+00  1.00800000E+00  1.60000000E+01  1.00800000E+00
  1.00800000E+00  1.60000000E+01  1.00800000E+00  1.00800000E+00  1.60000000E+01
  1.00800000E+00  1.00800000E+00  1.60000000E+01  1.00800000E+00  1.00800000E+00
  1.60000000E+01  1.00800000E+00  1.00800000E+00  1.60000000E+01  1.00800000E+00
  1.00800000E+00  1.60000000E+01  1.00800000E+00  1.00800000E+00  1.60000000E+01
  1.00800000E+00  1.00800000E+00  1.60000000E+01  1.00800000E+00  1.00800000E+00
  1.60000000E+01  1.00800000E+00  1.00800000E+00  1.60000000E+01  1.00800000E+00
  1.00800000E+00  1.60000000E+01  1.00800000E+00  1.00800000E+00  1.60000000E+01
  1.00800000E+00  1.00800000E+00  1.60000000E+01  1.00800000E+00  1.00800000E+00
  1.60000000E+01  1.00800000E+00  1.00800000E+00  1.60000000E+01  1.00800000E+00
  1.00800000E+00  1.60000000E+01  1.00800000E+00  1.00800000E+00  1.60000000E+01
  1.00800000E+00  1.00800000E+00  1.60000000E+01  1.00800000E+00  1.00800000E+00
  1.60000000E+01  1.00800000E+00  1.00800000E+00  1.60000000E+01  1.00800000E+00
  1.00800000E+00  1.60000000E+01  1.00800000E+00  1.00800000E+00  1.60000000E+01
  1.00800000E+00  1.00800000E+00  1.60000000E+01  1.00800000E+00  1.00800000E+00
  1.60000000E+01  1.00800000E+00  1.00800000E+00  1.60000000E+01  1.00800000E+00
  1.00800000E+00  1.60000000E+01  1.00800000E+00  1.00800000E+00  1.60000000E+01
  1.00800000E+00  1.00800000E+00  1.60000000E+01  1.00800000E+00  1.00800000E+00
  1.60000000E+01  1.00800000E+00  1.00800000E+00  1.60000000E+01  1.00800000E+00
  1.00800000E+00  1.60000000E+01  1.00800000E+00  1.00800000E+00  1.60000000E+01
  1.00800000E+00  1.00800000E+00  1.60000000E+01  1.00800000E+00  1.00800000E+00
  1.60000000E+01  1.00800000E+00  1.00800000E+00  1.60000000E+01  1.00800000E+00
  1.00800000E+00  1.60000000E+01  1.00800000E+00  1.00800000E+00  1.60000000E+01
  1.00800000E+00  1.00800000E+00  1.60000000E+01  1.00800000E+00  1.00800000E+00
  1.60000000E+01  1.00800000E+00  1.00800000E+00  1.60000000E+01  1.00800000E+00
  1.00800000E+00  1.60000000E+01  1.00800000E+00  1.00800000E+00  1.60000000E+01
  1.00800000E+00  1.00800000E+00  1.60000000E+01  1.00800000E+00  1.00800000E+00
  1.60000000E+01  1.00800000E+00  1.00800000E+00  1.60000000E+01  1.00800000E+00
  1.00800000E+00  1.60000000E+01  1.00800000E+00  1.00800000E+00  1.60000000E+01
  1.00800000E+00  1.00800000E+00  1.60000000E+01  1.00800000E+00  1.00800000E+00
  1.60000000E+01  1.00800000E+00  1.00800000E+00  1.60000000E+01  1.00800000E+00
  1.00800000E+00  1.60000000E+01  1.00800000E+00  1.00800000E+00  1.60000000E+01
  1.00800000E+00  1.00800000E+00  1.60000000E+01  1.00800000E+00  1.00800000E+00
  1.60000000E+01  1.00800000E+00  1.00800000E+00  1.60000000E+01  1.00800000E+00
  1.00800000E+00  1.60000000E+01  1.00800000E+00  1.00800000E+00  1.60000000E+01
  1.00800000E+00  1.00800000E+00  1.60000000E+01  1.00800000E+00  1.00800000E+00
  1.60000000E+01  1.00800000E+00  1.00800000E+00  1.60000000E+01  1.00800000E+00
  1.00800000E+00  1.60000000E+01  1.00800000E+00  1.00800000E+00  1.60000000E+01
  1.00800000E+00  1.00800000E+00  1.60000000E+01  1.00800000E+00  1.00800000E+00
  1.60000000E+01  1.00800000E+00  1.00800000E+00  1.60000000E+01  1.00800000E+00
  1.00800000E+00  1.60000000E+01  1.00800000E+00  1.00800000E+00  1.60000000E+01
  1.00800000E+00  1.00800000E+00  1.60000000E+01  1.00800000E+00  1.00800000E+00
  1.60000000E+01  1.00800000E+00  1.00800000E+00  1.60000000E+01  1.00800000E+00
  1.00800000E+00  1.60000000E+01  1.00800000E+00  1.00800000E+00  1.60000000E+01
  1.00800000E+00  1.00800000E+00  1.60000000E+01  1.00800000E+00  1.00800000E+00
  1.60000000E+01  1.00800000E+00  1.00800000E+00  1.60000000E+01  1.00800000E+00
  1.00800000E+00  1.60000000E+01  1.00800000E+00  1.00800000E+00  1.60000000E+01
  1.00800000E+00  1.00800000E+00  1.60000000E+01  1.00800000E+00  1.00800000E+00
  1.60000000E+01  1.00800000E+00  1.00800000E+00  1.60000000E+01  1.00800000E+00
  1.00800000E+00  1.60000000E+01  1.00800000E+00  1.00800000E+00  1.60000000E+01
  1.00800000E+00  1.00800000E+00  1.60000000E+01  1.00800000E+00  1.00800000E+00
  1.60000000E+01  1.00800000E+00  1.00800000E+00  1.60000000E+01  1.00800000E+00
  1.00800000E+00  1.60000000E+01  1.00800000E+00  1.00800000E+00  1.60000000E+01
  1.00800000E+00  1.00800000E+00  1.60000000E+01  1.00800000E+00  1.00800000E+00
  1.60000000E+01  1.00800000E+00  1.00800000E+00  1.60000000E+01  1.00800000E+00
  1.00800000E+00  1.60000000E+01  1.00800000E+00  1.00800000E+00  1.60000000E+01
  1.00800000E+00  1.00800000E+00  1.60000000E+01  1.00800000E+00  1.00800000E+00
  1.60000000E+01  1.00800000E+00  1.00800000E+00  1.60000000E+01  1.00800000E+00
  1.00800000E+00  1.60000000E+01  1.00800000E+00  1.00800000E+00  1.60000000E+01
  1.00800000E+00  1.00800000E+00  1.60000000E+01  1.00800000E+00  1.00800000E+00
  1.60000000E+01  1.00800000E+00  1.00800000E+00  1.60000000E+01  1.00800000E+00
  1.00800000E+00  1.60000000E+01  1.00800000E+00  1.00800000E+00  1.60000000E+01
  1.00800000E+00  1.00800000E+00  1.60000000E+01  1.00800000E+00  1.00800000E+00
  1.60000000E+01  1.00800000E+00  1.00800000E+00  1.60000000E+01  1.00800000E+00
  1.00800000E+00  1.60000000E+01  1.00800000E+00  1.00800000E+00  1.60000000E+01
  1.00800000E+00  1.00800000E+00  1.60000000E+01  1.00800000E+00  1.00800000E+00
  1.60000000E+01  1.00800000E+00  1.00800000E+00  1.60000000E+01  1.00800000E+00
  1.00800000E+00  1.60000000E+01  1.00800000E+00  1.00800000E+00  1.60000000E+01
  1.00800000E+00  1.00800000E+00  1.60000000E+01  1.00800000E+00  1.00800000E+00
  1.60000000E+01  1.00800000E+00  1.00800000E+00  1.60000000E+01  1.00800000E+00
  1.00800000E+00  1.60000000E+01  1.00800000E+00  1.00800000E+00  1.60000000E+01
  1.00800000E+00  1.00800000E+00  1.60000000E+01  1.00800000E+00  1.00800000E+00
  1.60000000E+01  1.00800000E+00  1.00800000E+00  1.60000000E+01  1.00800000E+00
  1.00800000E+00  1.60000000E+01  1.00800000E+00  1.00800000E+00  1.60000000E+01
  1.00800000E+00  1.00800000E+00  1.60000000E+01  1.00800000E+00  1.00800000E+00
  1.60000000E+01  1.00800000E+00  1.00800000E+00  1.60000000E+01  1.00800000E+00
  1.00800000E+00  1.60000000E+01  1.00800000E+00  1.00800000E+00  1.60000000E+01
  1.00800000E+00  1.00800000E+00  1.60000000E+01  1.00800000E+00  1.00800000E+00
  1.60000000E+01  1.00800000E+00  1.00800000E+00  1.60000000E+01  1.00800000E+00
  1.00800000E+00  1.60000000E+01  1.00800000E+00  1.00800000E+00  1.60000000E+01
  1.00800000E+00  1.00800000E+00  1.60000000E+01  1.00800000E+00  1.00800000E+00
  1.60000000E+01  1.00800000E+00  1.00800000E+00  1.60000000E+01  1.00800000E+00
  1.00800000E+00  1.60000000E+01  1.00800000E+00  1.00800000E+00  1.60000000E+01
  1.00800000E+00  1.00800000E+00  1.60000000E+01  1.00800000E+00  1.00800000E+00
  1.60000000E+01  1.00800000E+00  1.00800000E+00  1.60000000E+01  1.00800000E+00
  1.00800000E+00  1.60000000E+01  1.00800000E+00  1.00800000E+00  1.60000000E+01
  1.00800000E+00  1.00800000E+00  1.60000000E+01  1.00800000E+00  1.00800000E+00
  1.60000000E+01  1.00800000E+00  1.00800000E+00  1.60000000E+01  1.00800000E+00
  1.00800000E+00  1.60000000E+01  1.00800000E+00  1.00800000E+00  1.60000000E+01
  1.00800000E+00  1.00800000E+00  1.60000000E+01  1.00800000E+00  1.00800000E+00
  1.60000000E+01  1.00800000E+00  1.00800000E+00  1.60000000E+01  1.00800000E+00
  1.00800000E+00  1.60000000E+01  1.00800000E+00  1.00800000E+00  1.60000000E+01
  1.00800000E+00  1.00800000E+00  1.60000000E+01  1.00800000E+00  1.00800000E+00
  1.60000000E+01  1.00800000E+00  1.00800000E+00  1.60000000E+01  1.00800000E+00
  1.00800000E+00  1.60000000E+01  1.00800000E+00  1.00800000E+00  1.60000000E+01
  1.00800000E+00  1.00800000E+00  1.60000000E+01  1.00800000E+00  1.00800000E+00
  1.60000000E+01  1.00800000E+00  1.00800000E+00  1.60000000E+01  1.00800000E+00
  1.00800000E+00  1.60000000E+01  1.00800000E+00  1.00800000E+00  1.60000000E+01
  1.00800000E+00  1.00800000E+00  1.60000000E+01  1.00800000E+00  1.00800000E+00
  1.60000000E+01  1.00800000E+00  1.00800000E+00  1.60000000E+01  1.00800000E+00
  1.00800000E+00  1.60000000E+01  1.00800000E+00  1.00800000E+00  1.60000000E+01
  1.00800000E+00  1.00800000E+00  1.60000000E+01  1.00800000E+00  1.00800000E+00
  1.60000000E+01  1.00800000E+00  1.00800000E+00  1.60000000E+01  1.00800000E+00
  1.00800000E+00  1.60000000E+01  1.00800000E+00  1.00800000E+00  1.60000000E+01
  1.00800000E+00  1.00800000E+00  1.60000000E+01  1.00800000E+00  1.00800000E+00
  1.60000000E+01  1.00800000E+00  1.00800000E+00  1.60000000E+01  1.00800000E+00
  1.00800000E+00  1.60000000E+01  1.00800000E+00  1.00800000E+00  1.60000000E+01
  1.00800000E+00  1.00800000E+00  1.60000000E+01  1.00800000E+00  1.00800000E+00
  1.60000000E+01  1.00800000E+00  1.00800000E+00  1.60000000E+01  1.00800000E+00
  1.00800000E+00  1.60000000E+01  1.00800000E+00  1.00800000E+00  1.60000000E+01
  1.00800000E+00  1.00800000E+00  1.60000000E+01  1.00800000E+00  1.00800000E+00
  1.60000000E+01  1.00800000E+00  1.00800000E+00  1.60000000E+01  1.00800000E+00
  1.00800000E+00  1.60000000E+01  1.00800000E+00  1.00800000E+00  1.60000000E+01
  1.00800000E+00  1.00800000E+00  1.60000000E+01  1.00800000E+00  1.00800000E+00
  1.60000000E+01  1.00800000E+00  1.00800000E+00  1.60000000E+01  1.00800000E+00
  1.00800000E+00  1.60000000E+01  1.00800000E+00  1.00800000E+00  1.60000000E+01
  1.00800000E+00  1.00800000E+00  1.60000000E+01  1.00800000E+00  1.00800000E+00
  1.60000000E+01  1.00800000E+00  1.00800000E+00  1.60000000E+01  1.00800000E+00
  1.00800000E+00  1.60000000E+01  1.00800000E+00  1.00800000E+00  1.60000000E+01
  1.00800000E+00  1.00800000E+00  1.60000000E+01  1.00800000E+00  1.00800000E+00
  1.60000000E+01  1.00800000E+00  1.00800000E+00  1.60000000E+01  1.00800000E+00
  1.00800000E+00  1.60000000E+01  1.00800000E+00  1.00800000E+00  1.60000000E+01
  1.00800000E+00  1.00800000E+00  1.60000000E+01  1.00800000E+00  1.00800000E+00
  1.60000000E+01  1.00800000E+00  1.00800000E+00  1.60000000E+01  1.00800000E+00
  1.00800000E+00  1.60000000E+01  1.00800000E+00  1.00800000E+00  1.60000000E+01
  1.00800000E+00  1.00800000E+00  1.60000000E+01  1.00800000E+00  1.00800000E+00
  1.60000000E+01  1.00800000E+00  1.00800000E+00  1.60000000E+01  1.00800000E+00
  1.00800000E+00  1.60000000E+01  1.00800000E+00  1.00800000E+00  1.60000000E+01
  1.00800000E+00  1.00800000E+00  1.60000000E+01  1.00800000E+00  1.00800000E+00
  1.60000000E+01  1.00800000E+00  1.00800000E+00  1.60000000E+01  1.00800000E+00
  1.00800000E+00  1.60000000E+01  1.00800000E+00  1.00800000E+00  1.60000000E+01
  1.00800000E+00  1.00800000E+00  1.60000000E+01  1.00800000E+00  1.00800000E+00
  1.60000000E+01  1.00800000E+00  1.00800000E+00  1.60000000E+01  1.00800000E+00
  1.00800000E+00  1.60000000E+01  1.00800000E+00  1.00800000E+00  1.60000000E+01
  1.00800000E+00  1.00800000E+00  1.60000000E+01  1.00800000E+00  1.00800000E+00
  1.60000000E+01  1.00800000E+00  1.00800000E+00  1.60000000E+01  1.00800000E+00
  1.00800000E+00  1.60000000E+01  1.00800000E+00  1.00800000E+00  1.60000000E+01
  1.00800000E+00  1.00800000E+00  1.60000000E+01  1.00800000E+00  1.00800000E+00
  1.60000000E+01  1.00800000E+00  1.00800000E+00  1.60000000E+01  1.00800000E+00
  1.00800000E+00  1.60000000E+01  1.00800000E+00  1.00800000E+00  1.60000000E+01
  1.00800000E+00  1.00800000E+00  1.60000000E+01  1.00800000E+00  1.00800000E+00
  1.60000000E+01  1.00800000E+00  1.00800000E+00  1.60000000E+01  1.00800000E+00
  1.00800000E+00  1.60000000E+01  1.00800000E+00  1.00800000E+00  1.60000000E+01
  1.00800000E+00  1.00800000E+00  1.60000000E+01  1.00800000E+00  1.00800000E+00
  1.60000000E+01  1.00800000E+00  1.00800000E+00  1.60000000E+01  1.00800000E+00
  1.00800000E+00  1.60000000E+01  1.00800000E+00  1.00800000E+00  1.60000000E+01
  1.00800000E+00  1.00800000E+00  1.60000000E+01  1.00800000E+00  1.00800000E+00
  1.60000000E+01  1.00800000E+00  1.00800000E+00  1.60000000E+01  1.00800000E+00
  1.00800000E+00  1.60000000E+01  1.00800000E+00  1.00800000E+00  1.60000000E+01
  1.00800000E+00  1.00800000E+00  1.60000000E+01  1.00800000E+00  1.00800000E+00
  1.60000000E+01  1.00800000E+00  1.00800000E+00  1.60000000E+01  1.00800000E+00
  1.00800000E+00  1.60000000E+01  1.00800000E+00  1.00800000E+00  1.60000000E+01
  1.00800000E+00  1.00800000E+00  1.60000000E+01  1.00800000E+00  1.00800000E+00
  1.60000000E+01  1.00800000E+00  1.00800000E+00  1.60000000E+01  1.00800000E+00
  1.00800000E+00  1.60000000E+01  1.00800000E+00  1.00800000E+00  1.60000000E+01
  1.00800000E+00  1.00800000E+00  1.60000000E+01  1.00800000E+00  1.00800000E+00
  1.60000000E+01  1.00800000E+00  1.00800000E+00  1.60000000E+01  1.00800000E+00
  1.00800000E+00  1.60000000E+01  1.00800000E+00  1.00800000E+00  1.60000000E+01
  1.00800000E+00  1.00800000E+00  1.60000000E+01  1.00800000E+00  1.00800000E+00
  1.60000000E+01  1.00800000E+00  1.00800000E+00  1.60000000E+01  1.00800000E+00
  1.00800000E+00  1.60000000E+01  1.00800000E+00  1.00800000E+00  1.60000000E+01
  1.00800000E+00  1.00800000E+00  1.60000000E+01  1.00800000E+00  1.00800000E+00
  1.60000000E+01  1.00800000E+00  1.00800000E+00  1.60000000E+01  1.00800000E+00
  1.00800000E+00  1.60000000E+01  1.00800000E+00  1.00800000E+00  1.60000000E+01
  1.00800000E+00  1.00800000E+00  1.60000000E+01  1.00800000E+00  1.00800000E+00
  1.60000000E+01  1.00800000E+00  1.00800000E+00  1.60000000E+01  1.00800000E+00
  1.00800000E+00  1.60000000E+01  1.00800000E+00  1.00800000E+00  1.60000000E+01
  1.00800000E+00  1.00800000E+00  1.60000000E+01  1.00800000E+00  1.00800000E+00
  1.60000000E+01  1.00800000E+00  1.00800000E+00  1.60000000E+01  1.00800000E+00
  1.00800000E+00  1.60000000E+01  1.00800000E+00  1.00800000E+00  1.60000000E+01
  1.00800000E+00  1.00800000E+00  1.60000000E+01  1.00800000E+00  1.00800000E+00
  1.60000000E+01  1.00800000E+00  1.00800000E+00  1.60000000E+01  1.00800000E+00
  1.00800000E+00  1.60000000E+01  1.00800000E+00  1.00800000E+00  1.60000000E+01
  1.00800000E+00  1.00800000E+00  1.60000000E+01  1.00800000E+00  1.00800000E+00
  1.60000000E+01  1.00800000E+00  1.00800000E+00  1.60000000E+01  1.00800000E+00
  1.00800000E+00  1.60000000E+01  1.00800000E+00  1.00800000E+00  1.60000000E+01
  1.00800000E+00  1.00800000E+00  1.60000000E+01  1.00800000E+00  1.00800000E+00
  1.60000000E+01  1.00800000E+00  1.00800000E+00  1.60000000E+01  1.00800000E+00
  1.00800000E+00  1.60000000E+01  1.00800000E+00  1.00800000E+00  1.60000000E+01
  1.00800000E+00  1.00800000E+00  1.60000000E+01  1.00800000E+00  1.00800000E+00
  1.60000000E+01  1.00800000E+00  1.00800000E+00  1.60000000E+01  1.00800000E+00
  1.00800000E+00  1.60000000E+01  1.00800000E+00  1.00800000E+00  1.60000000E+01
  1.00800000E+00  1.00800000E+00  1.60000000E+01  1.00800000E+00  1.00800000E+00
  1.60000000E+01  1.00800000E+00  1.00800000E+00  1.60000000E+01  1.00800000E+00
  1.00800000E+00  1.60000000E+01  1.00800000E+00  1.00800000E+00  1.60000000E+01
  1.00800000E+00  1.00800000E+00  1.60000000E+01  1.00800000E+00  1.00800000E+00
  1.60000000E+01  1.00800000E+00  1.00800000E+00  1.60000000E+01  1.00800000E+00
  1.00800000E+00  1.60000000E+01  1.00800000E+00  1.00800000E+00  1.60000000E+01
  1.00800000E+00  1.00800000E+00  1.60000000E+01  1.00800000E+00  1.00800000E+00
  1.60000000E+01  1.00800000E+00  1.00800000E+00  1.60000000E+01  1.00800000E+00
  1.00800000E+00  1.60000000E+01  1.00800000E+00  1.00800000E+00  1.60000000E+01
  1.00800000E+00  1.00800000E+00  1.60000000E+01  1.00800000E+00  1.00800000E+00
  1.60000000E+01  1.00800000E+00  1.00800000E+00  1.60000000E+01  1.00800000E+00
  1.00800000E+00  1.60000000E+01  1.00800000E+00  1.00800000E+00  1.60000000E+01
  1.00800000E+00  1.00800000E+00  1.60000000E+01  1.00800000E+00  1.00800000E+00
  1.60000000E+01  1.00800000E+00  1.00800000E+00  1.60000000E+01  1.00800000E+00
  1.00800000E+00  1.60000000E+01  1.00800000E+00  1.00800000E+00  1.60000000E+01
  1.00800000E+00  1.00800000E+00  1.60000000E+01  1.00800000E+00  1.00800000E+00
  1.60000000E+01  1.00800000E+00  1.00800000E+00  1.60000000E+01  1.00800000E+00
  1.00800000E+00  1.60000000E+01  1.00800000E+00  1.00800000E+00  1.60000000E+01
  1.00800000E+00  1.00800000E+00  1.60000000E+01  1.00800000E+00  1.00800000E+00
  1.60000000E+01  1.00800000E+00  1.00800000E+00  1.60000000E+01  1.00800000E+00
  1.00800000E+00  1.60000000E+01  1.00800000E+00  1.00800000E+00  1.60000000E+01
  1.00800000E+00  1.00800000E+00  1.60000000E+01  1.00800000E+00  1.00800000E+00
  1.60000000E+01  1.00800000E+00  1.00800000E+00  1.60000000E+01  1.00800000E+00
  1.00800000E+00  1.60000000E+01  1.00800000E+00  1.00800000E+00  1.60000000E+01
  1.00800000E+00  1.00800000E+00  1.60000000E+01  1.00800000E+00  1.00800000E+00
  1.60000000E+01  1.00800000E+00  1.00800000E+00  1.60000000E+01  1.00800000E+00
  1.00800000E+00  1.60000000E+01  1.00800000E+00  1.00800000E+00  1.60000000E+01
  1.00800000E+00  1.00800000E+00  1.60000000E+01  1.00800000E+00  1.00800000E+00
  1.60000000E+01  1.00800000E+00  1.00800000E+00  1.60000000E+01  1.00800000E+00
  1.00800000E+00  1.60000000E+01  1.00800000E+00  1.00800000E+00  1.60000000E+01
  1.00800000E+00  1.00800000E+00  1.60000000E+01  1.00800000E+00  1.00800000E+00
  1.60000000E+01  1.00800000E+00  1.00800000E+00  1.60000000E+01  1.00800000E+00
  1.00800000E+00  1.60000000E+01  1.00800000E+00  1.00800000E+00  1.60000000E+01
  1.00800000E+00  1.00800000E+00  1.60000000E+01  1.00800000E+00  1.00800000E+00
  1.60000000E+01  1.00800000E+00  1.00800000E+00  1.60000000E+01  1.00800000E+00
  1.00800000E+00  1.60000000E+01  1.00800000E+00  1.00800000E+00  1.60000000E+01
  1.00800000E+00  1.00800000E+00  1.60000000E+01  1.00800000E+00  1.00800000E+00
  1.60000000E+01  1.00800000E+00  1.00800000E+00  1.60000000E+01  1.00800000E+00
  1.00800000E+00  1.60000000E+01  1.00800000E+00  1.00800000E+00  1.60000000E+01
  1.00800000E+00  1.00800000E+00  1.60000000E+01  1.00800000E+00  1.00800000E+00
  1.60000000E+01  1.00800000E+00  1.00800000E+00  1.60000000E+01  1.00800000E+00
  1.00800000E+00  1.60000000E+01  1.00800000E+00  1.00800000E+00  1.60000000E+01
  1.00800000E+00  1.00800000E+00  1.60000000E+01  1.00800000E+00  1.00800000E+00
  1.60000000E+01  1.00800000E+00  1.00800000E+00  1.60000000E+01  1.00800000E+00
  1.00800000E+00  1.60000000E+01  1.00800000E+00  1.00800000E+00  1.60000000E+01
  1.00800000E+00  1.00800000E+00  1.60000000E+01  1.00800000E+00  1.00800000E+00
  1.60000000E+01  1.00800000E+00  1.00800000E+00  1.60000000E+01  1.00800000E+00
  1.00800000E+00  1.60000000E+01  1.00800000E+00  1.00800000E+00  1.60000000E+01
  1.00800000E+00  1.00800000E+00  1.60000000E+01  1.00800000E+00  1.00800000E+00
  1.60000000E+01  1.00800000E+00  1.00800000E+00  1.60000000E+01  1.00800000E+00
  1.00800000E+00  1.60000000E+01  1.00800000E+00  1.00800000E+00  1.60000000E+01
  1.00800000E+00  1.00800000E+00  1.60000000E+01  1.00800000E+00  1.00800000E+00
  1.60000000E+01  1.00800000E+00  1.00800000E+00  1.60000000E+01  1.00800000E+00
  1.00800000E+00  1.60000000E+01  1.00800000E+00  1.00800000E+00  1.60000000E+01
  1.00800000E+00  1.00800000E+00  1.60000000E+01  1.00800000E+00  1.00800000E+00
  1.60000000E+01  1.00800000E+00  1.00800000E+00  1.60000000E+01  1.00800000E+00
  1.00800000E+00  1.60000000E+01  1.00800000E+00  1.00800000E+00  1.60000000E+01
  1.00800000E+00  1.00800000E+00  1.60000000E+01  1.00800000E+00  1.00800000E+00
  1.60000000E+01  1.00800000E+00  1.00800000E+00  1.60000000E+01  1.00800000E+00
  1.00800000E+00  1.60000000E+01  1.00800000E+00  1.00800000E+00  1.60000000E+01
  1.00800000E+00  1.00800000E+00  1.60000000E+01  1.00800000E+00  1.00800000E+00
  1.60000000E+01  1.00800000E+00  1.00800000E+00  1.60000000E+01  1.00800000E+00
  1.00800000E+00  1.60000000E+01  1.00800000E+00  1.00800000E+00  1.60000000E+01
  1.00800000E+00  1.00800000E+00  1.60000000E+01  1.00800000E+00  1.00800000E+00
  1.60000000E+01  1.00800000E+00  1.00800000E+00  1.60000000E+01  1.00800000E+00
  1.00800000E+00  1.60000000E+01  1.00800000E+00  1.00800000E+00  1.60000000E+01
  1.00800000E+00  1.00800000E+00  1.60000000E+01  1.00800000E+00  1.00800000E+00
  1.60000000E+01  1.00800000E+00  1.00800000E+00  1.60000000E+01  1.00800000E+00
  1.00800000E+00  1.60000000E+01  1.00800000E+00  1.00800000E+00  1.60000000E+01
  1.00800000E+00  1.00800000E+00  1.60000000E+01  1.00800000E+00  1.00800000E+00
  1.60000000E+01  1.00800000E+00  1.00800000E+00  1.60000000E+01  1.00800000E+00
  1.00800000E+00  1.60000000E+01  1.00800000E+00  1.00800000E+00  1.60000000E+01
  1.00800000E+00  1.00800000E+00  1.60000000E+01  1.00800000E+00  1.00800000E+00
  1.60000000E+01  1.00800000E+00  1.00800000E+00  1.60000000E+01  1.00800000E+00
  1.00800000E+00  1.60000000E+01  1.00800000E+00  1.00800000E+00  1.60000000E+01
  1.00800000E+00  1.00800000E+00  1.60000000E+01  1.00800000E+00  1.00800000E+00
  1.60000000E+01  1.00800000E+00  1.00800000E+00  1.60000000E+01  1.00800000E+00
  1.00800000E+00  1.60000000E+01  1.00800000E+00  1.00800000E+00  1.60000000E+01
  1.00800000E+00  1.00800000E+00  1.60000000E+01  1.00800000E+00  1.00800000E+00
  1.60000000E+01  1.00800000E+00  1.00800000E+00  1.60000000E+01  1.00800000E+00
  1.00800000E+00  1.60000000E+01  1.00800000E+00  1.00800000E+00  1.60000000E+01
  1.00800000E+00  1.00800000E+00  1.60000000E+01  1.00800000E+00  1.00800000E+00
  1.60000000E+01  1.00800000E+00  1.00800000E+00  1.60000000E+01  1.00800000E+00
  1.00800000E+00  1.60000000E+01  1.00800000E+00  1.00800000E+00  1.60000000E+01
  1.00800000E+00  1.00800000E+00  1.60000000E+01  1.00800000E+00  1.00800000E+00
  1.60000000E+01  1.00800000E+00  1.00800000E+00  1.60000000E+01  1.00800000E+00
  1.00800000E+00  1.60000000E+01  1.00800000E+00  1.00800000E+00  1.60000000E+01
  1.00800000E+00  1.00800000E+00  1.60000000E+01  1.00800000E+00  1.00800000E+00
  1.60000000E+01  1.00800000E+00  1.00800000E+00  1.60000000E+01  1.00800000E+00
  1.00800000E+00  1.60000000E+01  1.00800000E+00  1.00800000E+00  1.60000000E+01
  1.00800000E+00  1.00800000E+00  1.60000000E+01  1.00800000E+00  1.00800000E+00
  1.60000000E+01  1.00800000E+00  1.00800000E+00  1.60000000E+01  1.00800000E+00
  1.00800000E+00  1.60000000E+01  1.00800000E+00  1.00800000E+00  1.60000000E+01
  1.00800000E+00  1.00800000E+00  1.60000000E+01  1.00800000E+00  1.00800000E+00
  1.60000000E+01  1.00800000E+00  1.00800000E+00  1.60000000E+01  1.00800000E+00
  1.00800000E+00  1.60000000E+01  1.00800000E+00  1.00800000E+00  1.60000000E+01
  1.00800000E+00  1.00800000E+00  1.60000000E+01  1.00800000E+00  1.00800000E+00
  1.60000000E+01  1.00800000E+00  1.00800000E+00  1.60000000E+01  1.00800000E+00
  1.00800000E+00  1.60000000E+01  1.00800000E+00  1.00800000E+00  1.60000000E+01
  1.00800000E+00  1.00800000E+00  1.60000000E+01  1.00800000E+00  1.00800000E+00
  1.60000000E+01  1.00800000E+00  1.00800000E+00  1.60000000E+01  1.00800000E+00
  1.00800000E+00  1.60000000E+01  1.00800000E+00  1.00800000E+00  1.60000000E+01
  1.00800000E+00  1.00800000E+00  1.60000000E+01  1.00800000E+00  1.00800000E+00
  1.60000000E+01  1.00800000E+00  1.00800000E+00  1.60000000E+01  1.00800000E+00
  1.00800000E+00  1.60000000E+01  1.00800000E+00  1.00800000E+00  1.60000000E+01
  1.00800000E+00  1.00800000E+00  1.60000000E+01  1.00800000E+00  1.00800000E+00
  1.60000000E+01  1.00800000E+00  1.00800000E+00  1.60000000E+01  1.00800000E+00
  1.00800000E+00  1.60000000E+01  1.00800000E+00  1.00800000E+00  1.60000000E+01
  1.00800000E+00  1.00800000E+00  1.60000000E+01  1.00800000E+00  1.00800000E+00
  1.60000000E+01  1.00800000E+00  1.00800000E+00  1.60000000E+01  1.00800000E+00
  1.00800000E+00  1.60000000E+01  1.00800000E+00  1.00800000E+00  1.60000000E+01
  1.00800000E+00  1.00800000E+00  1.60000000E+01  1.00800000E+00  1.00800000E+00
  1.60000000E+01  1.00800000E+00  1.00800000E+00  1.60000000E+01  1.00800000E+00
  1.00800000E+00  1.60000000E+01  1.00800000E+00  1.00800000E+00  1.60000000E+01
  1.00800000E+00  1.00800000E+00  1.60000000E+01  1.00800000E+00  1.00800000E+00
  1.60000000E+01  1.00800000E+00  1.00800000E+00  1.60000000E+01  1.00800000E+00
  1.00800000E+00  1.60000000E+01  1.00800000E+00  1.00800000E+00  1.60000000E+01
  1.00800000E+00  1.00800000E+00  1.60000000E+01  1.00800000E+00  1.00800000E+00
  1.60000000E+01  1.00800000E+00  1.00800000E+00  1.60000000E+01  1.00800000E+00
  1.00800000E+00  1.60000000E+01  1.00800000E+00  1.00800000E+00  1.60000000E+01
  1.00800000E+00  1.00800000E+00  1.60000000E+01  1.00800000E+00  1.00800000E+00
  1.60000000E+01  1.00800000E+00  1.00800000E+00  1.60000000E+01  1.00800000E+00
  1.00800000E+00  1.60000000E+01  1.00800000E+00  1.00800000E+00  1.60000000E+01
  1.00800000E+00  1.00800000E+00  1.60000000E+01  1.00800000E+00  1.00800000E+00
  1.60000000E+01  1.00800000E+00  1.00800000E+00  1.60000000E+01  1.00800000E+00
  1.00800000E+00  1.60000000E+01  1.00800000E+00  1.00800000E+00  1.60000000E+01
  1.00800000E+00  1.00800000E+00  1.60000000E+01  1.00800000E+00  1.00800000E+00
  1.60000000E+01  1.00800000E+00  1.00800000E+00  1.60000000E+01  1.00800000E+00
  1.00800000E+00  1.60000000E+01  1.00800000E+00  1.00800000E+00  1.60000000E+01
  1.00800000E+00  1.00800000E+00  1.60000000E+01  1.00800000E+00  1.00800000E+00
  1.60000000E+01  1.00800000E+00  1.00800000E+00  1.60000000E+01  1.00800000E+00
  1.00800000E+00  1.60000000E+01  1.00800000E+00  1.00800000E+00  1.60000000E+01
  1.00800000E+00  1.00800000E+00  1.60000000E+01  1.00800000E+00  1.00800000E+00
  1.60000000E+01  1.00800000E+00  1.00800000E+00  1.60000000E+01  1.00800000E+00
  1.00800000E+00  1.60000000E+01  1.00800000E+00  1.00800000E+00  1.60000000E+01
  1.00800000E+00  1.00800000E+00  1.60000000E+01  1.00800000E+00  1.00800000E+00
  1.60000000E+01  1.00800000E+00  1.00800000E+00  1.60000000E+01  1.00800000E+00
  1.00800000E+00  1.60000000E+01  1.00800000E+00  1.00800000E+00  1.60000000E+01
  1.00800000E+00  1.00800000E+00  1.60000000E+01  1.00800000E+00  1.00800000E+00
  1.60000000E+01  1.00800000E+00  1.00800000E+00  1.60000000E+01  1.00800000E+00
  1.00800000E+00  1.60000000E+01  1.00800000E+00  1.00800000E+00  1.60000000E+01
  1.00800000E+00  1.00800000E+00  1.60000000E+01  1.00800000E+00  1.00800000E+00
  1.60000000E+01  1.00800000E+00  1.00800000E+00  1.60000000E+01  1.00800000E+00
  1.00800000E+00  1.60000000E+01  1.00800000E+00  1.00800000E+00  1.60000000E+01
  1.00800000E+00  1.00800000E+00  1.60000000E+01  1.00800000E+00  1.00800000E+00
  1.60000000E+01  1.00800000E+00  1.00800000E+00  1.60000000E+01  1.00800000E+00
  1.00800000E+00  1.60000000E+01  1.00800000E+00  1.00800000E+00  1.60000000E+01
  1.00800000E+00  1.00800000E+00  1.60000000E+01  1.00800000E+00  1.00800000E+00
  1.60000000E+01  1.00800000E+00  1.00800000E+00  1.60000000E+01  1.00800000E+00
  1.00800000E+00  1.60000000E+01  1.00800000E+00  1.00800000E+00  1.60000000E+01
  1.00800000E+00  1.00800000E+00  1.60000000E+01  1.00800000E+00  1.00800000E+00
  1.60000000E+01  1.00800000E+00  1.00800000E+00  1.60000000E+01  1.00800000E+00
  1.00800000E+00  1.60000000E+01  1.00800000E+00  1.00800000E+00  1.60000000E+01
  1.00800000E+00  1.00800000E+00  1.60000000E+01  1.00800000E+00  1.00800000E+00
  1.60000000E+01  1.00800000E+00  1.00800000E+00  1.60000000E+01  1.00800000E+00
  1.00800000E+00  1.60000000E+01  1.00800000E+00  1.00800000E+00  1.60000000E+01
  1.00800000E+00  1.00800000E+00  1.60000000E+01  1.00800000E+00  1.00800000E+00
  1.60000000E+01  1.00800000E+00  1.00800000E+00  1.60000000E+01  1.00800000E+00
  1.00800000E+00  1.60000000E+01  1.00800000E+00  1.00800000E+00  1.60000000E+01
  1.00800000E+00  1.00800000E+00  1.60000000E+01  1.00800000E+00  1.00800000E+00
  1.60000000E+01  1.00800000E+00  1.00800000E+00  1.60000000E+01  1.00800000E+00
  1.00800000E+00  1.60000000E+01  1.00800000E+00  1.00800000E+00  1.60000000E+01
  1.00800000E+00  1.00800000E+00  1.60000000E+01  1.00800000E+00  1.00800000E+00
  1.60000000E+01  1.00800000E+00  1.00800000E+00  1.60000000E+01  1.00800000E+00
  1.00800000E+00  1.60000000E+01  1.00800000E+00  1.00800000E+00  1.60000000E+01
  1.00800000E+00  1.00800000E+00  1.60000000E+01  1.00800000E+00  1.00800000E+00
  1.60000000E+01  1.00800000E+00  1.00800000E+00  1.60000000E+01  1.00800000E+00
  1.00800000E+00  1.60000000E+01  1.00800000E+00  1.00800000E+00  1.60000000E+01
  1.00800000E+00  1.00800000E+00  1.60000000E+01  1.00800000E+00  1.00800000E+00
  1.60000000E+01  1.00800000E+00  1.00800000E+00  1.60000000E+01  1.00800000E+00
  1.00800000E+00  1.60000000E+01  1.00800000E+00  1.00800000E+00  1.60000000E+01
  1.00800000E+00  1.00800000E+00  1.60000000E+01  1.00800000E+00  1.00800000E+00
  1.60000000E+01  1.00800000E+00  1.00800000E+00  1.60000000E+01  1.00800000E+00
  1.00800000E+00  1.60000000E+01  1.00800000E+00  1.00800000E+00  1.60000000E+01
  1.00800000E+00  1.00800000E+00  1.60000000E+01  1.00800000E+00  1.00800000E+00
  1.60000000E+01  1.00800000E+00  1.00800000E+00  1.60000000E+01  1.00800000E+00
  1.00800000E+00  1.60000000E+01  1.00800000E+00  1.00800000E+00  1.60000000E+01
  1.00800000E+00  1.00800000E+00  1.60000000E+01  1.00800000E+00  1.00800000E+00
  1.60000000E+01  1.00800000E+00  1.00800000E+00  1.60000000E+01  1.00800000E+00
  1.00800000E+00  1.60000000E+01  1.00800000E+00  1.00800000E+00  1.60000000E+01
  1.00800000E+00  1.00800000E+00  1.60000000E+01  1.00800000E+00  1.00800000E+00
  1.60000000E+01  1.00800000E+00  1.00800000E+00  1.60000000E+01  1.00800000E+00
  1.00800000E+00  1.60000000E+01  1.00800000E+00  1.00800000E+00  1.60000000E+01
  1.00800000E+00  1.00800000E+00  1.60000000E+01  1.00800000E+00  1.00800000E+00
  1.60000000E+01  1.00800000E+00  1.00800000E+00  1.60000000E+01  1.00800000E+00
  1.00800000E+00  1.60000000E+01  1.00800000E+00  1.00800000E+00  1.60000000E+01
  1.00800000E+00  1.00800000E+00  1.60000000E+01  1.00800000E+00  1.00800000E+00
  1.60000000E+01  1.00800000E+00  1.00800000E+00  1.60000000E+01  1.00800000E+00
  1.00800000E+00  1.60000000E+01  1.00800000E+00  1.00800000E+00  1.60000000E+01
  1.00800000E+00  1.00800000E+00  1.60000000E+01  1.00800000E+00  1.00800000E+00
  1.60000000E+01  1.00800000E+00  1.00800000E+00  1.60000000E+01  1.00800000E+00
  1.00800000E+00  1.60000000E+01  1.00800000E+00  1.00800000E+00  1.60000000E+01
  1.00800000E+00  1.00800000E+00  1.60000000E+01  1.00800000E+00  1.00800000E+00
  1.60000000E+01  1.00800000E+00  1.00800000E+00  1.60000000E+01  1.00800000E+00
  1.00800000E+00  1.60000000E+01  1.00800000E+00  1.00800000E+00  1.60000000E+01
  1.00800000E+00  1.00800000E+00  1.60000000E+01  1.00800000E+00  1.00800000E+00
  1.60000000E+01  1.00800000E+00  1.00800000E+00  1.60000000E+01  1.00800000E+00
  1.00800000E+00  1.60000000E+01  1.00800000E+00  1.00800000E+00  1.60000000E+01
  1.00800000E+00  1.00800000E+00  1.60000000E+01  1.00800000E+00  1.00800000E+00
  1.60000000E+01  1.00800000E+00  1.00800000E+00  1.60000000E+01  1.00800000E+00
  1.00800000E+00  1.60000000E+01  1.00800000E+00  1.00800000E+00  1.60000000E+01
  1.00800000E+00  1.00800000E+00  1.60000000E+01  1.00800000E+00  1.00800000E+00
  1.60000000E+01  1.00800000E+00  1.00800000E+00  1.60000000E+01  1.00800000E+00
  1.00800000E+00  1.60000000E+01  1.00800000E+00  1.00800000E+00  1.60000000E+01
  1.00800000E+00  1.00800000E+00  1.60000000E+01  1.00800000E+00  1.00800000E+00
  1.60000000E+01  1.00800000E+00  1.00800000E+00  1.60000000E+01  1.00800000E+00
  1.00800000E+00  1.60000000E+01  1.00800000E+00  1.00800000E+00  1.60000000E+01
  1.00800000E+00  1.00800000E+00  1.60000000E+01  1.00800000E+00  1.00800000E+00
  1.60000000E+01  1.00800000E+00  1.00800000E+00  1.60000000E+01  1.00800000E+00
  1.00800000E+00  1.60000000E+01  1.00800000E+00  1.00800000E+00  1.60000000E+01
  1.00800000E+00  1.00800000E+00  1.60000000E+01  1.00800000E+00  1.00800000E+00
  1.60000000E+01  1.00800000E+00  1.00800000E+00  1.60000000E+01  1.00800000E+00
  1.00800000E+00  1.60000000E+01  1.00800000E+00  1.00800000E+00  1.60000000E+01
  1.00800000E+00  1.00800000E+00  1.60000000E+01  1.00800000E+00  1.00800000E+00
  1.60000000E+01  1.00800000E+00  1.00800000E+00  1.60000000E+01  1.00800000E+00
  1.00800000E+00  1.60000000E+01  1.00800000E+00  1.00800000E+00  1.60000000E+01
  1.00800000E+00  1.00800000E+00  1.60000000E+01  1.00800000E+00  1.00800000E+00
  1.60000000E+01  1.00800000E+00  1.00800000E+00  1.60000000E+01  1.00800000E+00
  1.00800000E+00  1.60000000E+01  1.00800000E+00  1.00800000E+00  1.60000000E+01
  1.00800000E+00  1.00800000E+00  1.60000000E+01  1.00800000E+00  1.00800000E+00
  1.60000000E+01  1.00800000E+00  1.00800000E+00  1.60000000E+01  1.00800000E+00
  1.00800000E+00  1.60000000E+01  1.00800000E+00  1.00800000E+00  1.60000000E+01
  1.00800000E+00  1.00800000E+00  1.60000000E+01  1.00800000E+00  1.00800000E+00
  1.60000000E+01  1.00800000E+00  1.00800000E+00  1.60000000E+01  1.00800000E+00
  1.00800000E+00  1.60000000E+01  1.00800000E+00  1.00800000E+00  1.60000000E+01
  1.00800000E+00  1.00800000E+00  1.60000000E+01  1.00800000E+00  1.00800000E+00
  1.60000000E+01  1.00800000E+00  1.00800000E+00  1.60000000E+01  1.00800000E+00
  1.00800000E+00  1.60000000E+01  1.00800000E+00  1.00800000E+00  1.60000000E+01
  1.00800000E+00  1.00800000E+00  1.60000000E+01  1.00800000E+00  1.00800000E+00
  1.60000000E+01  1.00800000E+00  1.00800000E+00  1.60000000E+01  1.00800000E+00
  1.00800000E+00  1.60000000E+01  1.00800000E+00  1.00800000E+00  1.60000000E+01
  1.00800000E+00  1.00800000E+00  1.60000000E+01  1.00800000E+00  1.00800000E+00
  1.60000000E+01  1.00800000E+00  1.00800000E+00  1.60000000E+01  1.00800000E+00
  1.00800000E+00  1.60000000E+01  1.00800000E+00  1.00800000E+00  1.60000000E+01
  1.00800000E+00  1.00800000E+00  1.60000000E+01  1.00800000E+00  1.00800000E+00
  1.60000000E+01  1.00800000E+00  1.00800000E+00  1.60000000E+01  1.00800000E+00
  1.00800000E+00  1.60000000E+01  1.00800000E+00  1.00800000E+00  1.60000000E+01
  1.00800000E+00  1.00800000E+00  1.60000000E+01  1.00800000E+00  1.00800000E+00
  1.60000000E+01  1.00800000E+00  1.00800000E+00  1.60000000E+01  1.00800000E+00
  1.00800000E+00  1.60000000E+01  1.00800000E+00  1.00800000E+00  1.60000000E+01
  1.00800000E+00  1.00800000E+00  1.60000000E+01  1.00800000E+00  1.00800000E+00
  1.60000000E+01  1.00800000E+00  1.00800000E+00  1.60000000E+01  1.00800000E+00
  1.00800000E+00  1.60000000E+01  1.00800000E+00  1.00800000E+00  1.60000000E+01
  1.00800000E+00  1.00800000E+00  1.60000000E+01  1.00800000E+00  1.00800000E+00
  1.60000000E+01  1.00800000E+00  1.00800000E+00  1.60000000E+01  1.00800000E+00
  1.00800000E+00  1.60000000E+01  1.00800000E+00  1.00800000E+00  1.60000000E+01
  1.00800000E+00  1.00800000E+00  1.60000000E+01  1.00800000E+00  1.00800000E+00
  1.60000000E+01  1.00800000E+00  1.00800000E+00  1.60000000E+01  1.00800000E+00
  1.00800000E+00  1.60000000E+01  1.00800000E+00  1.00800000E+00  1.60000000E+01
  1.00800000E+00  1.00800000E+00  1.60000000E+01  1.00800000E+00  1.00800000E+00
  1.60000000E+01  1.00800000E+00  1.00800000E+00  1.60000000E+01  1.00800000E+00
  1.00800000E+00  1.60000000E+01  1.00800000E+00  1.00800000E+00  1.60000000E+01
  1.00800000E+00  1.00800000E+00  1.60000000E+01  1.00800000E+00  1.00800000E+00
  1.60000000E+01  1.00800000E+00  1.00800000E+00  1.60000000E+01  1.00800000E+00
  1.00800000E+00  1.60000000E+01  1.00800000E+00  1.00800000E+00  1.60000000E+01
  1.00800000E+00  1.00800000E+00  1.60000000E+01  1.00800000E+00  1.00800000E+00
  1.60000000E+01  1.00800000E+00  1.00800000E+00  1.60000000E+01  1.00800000E+00
  1.00800000E+00  1.60000000E+01  1.00800000E+00  1.00800000E+00  1.60000000E+01
  1.00800000E+00  1.00800000E+00  1.60000000E+01  1.00800000E+00  1.00800000E+00
  1.60000000E+01  1.00800000E+00  1.00800000E+00  1.60000000E+01  1.00800000E+00
  1.00800000E+00  1.60000000E+01  1.00800000E+00  1.00800000E+00  1.60000000E+01
  1.00800000E+00  1.00800000E+00  1.60000000E+01  1.00800000E+00  1.00800000E+00
  1.60000000E+01  1.00800000E+00  1.00800000E+00  1.60000000E+01  1.00800000E+00
  1.00800000E+00  1.60000000E+01  1.00800000E+00  1.00800000E+00  1.60000000E+01
  1.00800000E+00  1.00800000E+00  1.60000000E+01  1.00800000E+00  1.00800000E+00
  1.60000000E+01  1.00800000E+00  1.00800000E+00  1.60000000E+01  1.00800000E+00
  1.00800000E+00  1.60000000E+01  1.00800000E+00  1.00800000E+00  1.60000000E+01
  1.00800000E+00  1.00800000E+00  1.60000000E+01  1.00800000E+00  1.00800000E+00
  1.60000000E+01  1.00800000E+00  1.00800000E+00  1.60000000E+01  1.00800000E+00
  1.00800000E+00  1.60000000E+01  1.00800000E+00  1.00800000E+00  1.60000000E+01
  1.00800000E+00  1.00800000E+00  1.60000000E+01  1.00800000E+00  1.00800000E+00
  1.60000000E+01  1.00800000E+00  1.00800000E+00  1.60000000E+01  1.00800000E+00
  1.00800000E+00  1.60000000E+01  1.00800000E+00  1.00800000E+00  1.60000000E+01
  1.00800000E+00  1.00800000E+00  1.60000000E+01  1.00800000E+00  1.00800000E+00
  1.60000000E+01  1.00800000E+00  1.00800000E+00  1.60000000E+01  1.00800000E+00
  1.00800000E+00  1.60000000E+01  1.00800000E+00  1.00800000E+00  1.60000000E+01
  1.00800000E+00  1.00800000E+00  1.60000000E+01  1.00800000E+00  1.00800000E+00
  1.60000000E+01  1.00800000E+00  1.00800000E+00  1.60000000E+01  1.00800000E+00
  1.00800000E+00  1.60000000E+01  1.00800000E+00  1.00800000E+00  1.60000000E+01
  1.00800000E+00  1.00800000E+00  1.60000000E+01  1.00800000E+00  1.00800000E+00
  1.60000000E+01  1.00800000E+00  1.00800000E+00  1.60000000E+01  1.00800000E+00
  1.00800000E+00  1.60000000E+01  1.00800000E+00  1.00800000E+00  1.60000000E+01
  1.00800000E+00  1.00800000E+00  1.60000000E+01  1.00800000E+00  1.00800000E+00
  1.60000000E+01  1.00800000E+00  1.00800000E+00  1.60000000E+01  1.00800000E+00
  1.00800000E+00  1.60000000E+01  1.00800000E+00  1.00800000E+00  1.60000000E+01
  1.00800000E+00  1.00800000E+00  1.60000000E+01  1.00800000E+00  1.00800000E+00
  1.60000000E+01  1.00800000E+00  1.00800000E+00  1.60000000E+01  1.00800000E+00
  1.00800000E+00  1.60000000E+01  1.00800000E+00  1.00800000E+00  1.60000000E+01
  1.00800000E+00  1.00800000E+00  1.60000000E+01  1.00800000E+00  1.00800000E+00
  1.60000000E+01  1.00800000E+00  1.00800000E+00  1.60000000E+01  1.00800000E+00
  1.00800000E+00  1.60000000E+01  1.00800000E+00  1.00800000E+00  1.60000000E+01
  1.00800000E+00  1.00800000E+00  1.60000000E+01  1.00800000E+00  1.00800000E+00
  1.60000000E+01  1.00800000E+00  1.00800000E+00  1.60000000E+01  1.00800000E+00
  1.00800000E+00  1.60000000E+01  1.00800000E+00  1.00800000E+00  1.60000000E+01
  1.00800000E+00  1.00800000E+00  1.60000000E+01  1.00800000E+00  1.00800000E+00
  1.60000000E+01  1.00800000E+00  1.00800000E+00  1.60000000E+01  1.00800000E+00
  1.00800000E+00  1.60000000E+01  1.00800000E+00  1.00800000E+00  1.60000000E+01
  1.00800000E+00  1.00800000E+00  1.60000000E+01  1.00800000E+00  1.00800000E+00
  1.60000000E+01  1.00800000E+00  1.00800000E+00  1.60000000E+01  1.00800000E+00
  1.00800000E+00  1.60000000E+01  1.00800000E+00  1.00800000E+00  1.60000000E+01
  1.00800000E+00  1.00800000E+00  1.60000000E+01  1.00800000E+00  1.00800000E+00
  1.60000000E+01  1.00800000E+00  1.00800000E+00  1.60000000E+01  1.00800000E+00
  1.00800000E+00  1.60000000E+01  1.00800000E+00  1.00800000E+00  1.60000000E+01
  1.00800000E+00  1.00800000E+00  1.60000000E+01  1.00800000E+00  1.00800000E+00
  1.60000000E+01  1.00800000E+00  1.00800000E+00  1.60000000E+01  1.00800000E+00
  1.00800000E+00  1.60000000E+01  1.00800000E+00  1.00800000E+00  1.60000000E+01
  1.00800000E+00  1.00800000E+00  1.60000000E+01  1.00800000E+00  1.00800000E+00
  1.60000000E+01  1.00800000E+00  1.00800000E+00  1.60000000E+01  1.00800000E+00
  1.00800000E+00  1.60000000E+01  1.00800000E+00  1.00800000E+00  1.60000000E+01
  1.00800000E+00  1.00800000E+00  1.60000000E+01  1.00800000E+00  1.00800000E+00
  1.60000000E+01  1.00800000E+00  1.00800000E+00  1.60000000E+01  1.00800000E+00
  1.00800000E+00  1.60000000E+01  1.00800000E+00  1.00800000E+00  1.60000000E+01
  1.00800000E+00  1.00800000E+00  1.60000000E+01  1.00800000E+00  1.00800000E+00
  1.60000000E+01  1.00800000E+00  1.00800000E+00  1.60000000E+01  1.00800000E+00
  1.00800000E+00  1.60000000E+01  1.00800000E+00  1.00800000E+00  1.60000000E+01
  1.00800000E+00  1.00800000E+00  1.60000000E+01  1.00800000E+00  1.00800000E+00
  1.60000000E+01  1.00800000E+00  1.00800000E+00  1.60000000E+01  1.00800000E+00
  1.00800000E+00  1.60000000E+01  1.00800000E+00  1.00800000E+00  1.60000000E+01
  1.00800000E+00  1.00800000E+00  1.60000000E+01  1.00800000E+00  1.00800000E+00
  1.60000000E+01  1.00800000E+00  1.00800000E+00  1.60000000E+01  1.00800000E+00
  1.00800000E+00  1.60000000E+01  1.00800000E+00  1.00800000E+00  1.60000000E+01
  1.00800000E+00  1.00800000E+00  1.60000000E+01  1.00800000E+00  1.00800000E+00
  1.60000000E+01  1.00800000E+00  1.00800000E+00  1.60000000E+01  1.00800000E+00
  1.00800000E+00  1.60000000E+01  1.00800000E+00  1.00800000E+00  1.60000000E+01
  1.00800000E+00  1.00800000E+00  1.60000000E+01  1.00800000E+00  1.00800000E+00
  1.60000000E+01  1.00800000E+00  1.00800000E+00  1.60000000E+01  1.00800000E+00
  1.00800000E+00  1.60000000E+01  1.00800000E+00  1.00800000E+00  1.60000000E+01
  1.00800000E+00  1.00800000E+00  1.60000000E+01  1.00800000E+00  1.00800000E+00
  1.60000000E+01  1.00800000E+00  1.00800000E+00  1.60000000E+01  1.00800000E+00
  1.00800000E+00  1.60000000E+01  1.00800000E+00  1.00800000E+00  1.60000000E+01
  1.00800000E+00  1.00800000E+00  1.60000000E+01  1.00800000E+00  1.00800000E+00
  1.60000000E+01  1.00800000E+00  1.00800000E+00  1.60000000E+01  1.00800000E+00
  1.00800000E+00  1.60000000E+01  1.00800000E+00  1.00800000E+00  1.60000000E+01
  1.00800000E+00  1.00800000E+00  1.60000000E+01  1.00800000E+00  1.00800000E+00
  1.60000000E+01  1.00800000E+00  1.00800000E+00  1.60000000E+01  1.00800000E+00
  1.00800000E+00  1.60000000E+01  1.00800000E+00  1.00800000E+00  1.60000000E+01
  1.00800000E+00  1.00800000E+00  1.60000000E+01  1.00800000E+00  1.00800000E+00
  1.60000000E+01  1.00800000E+00  1.00800000E+00  1.60000000E+01  1.00800000E+00
  1.00800000E+00  1.60000000E+01  1.00800000E+00  1.00800000E+00  1.60000000E+01
  1.00800000E+00  1.00800000E+00  1.60000000E+01  1.00800000E+00  1.00800000E+00
  1.60000000E+01  1.00800000E+00  1.00800000E+00  1.60000000E+01  1.00800000E+00
  1.00800000E+00  1.60000000E+01  1.00800000E+00  1.00800000E+00  1.60000000E+01
  1.00800000E+00  1.00800000E+00  1.60000000E+01  1.00800000E+00  1.00800000E+00
  1.60000000E+01  1.00800000E+00  1.00800000E+00  1.60000000E+01  1.00800000E+00
  1.00800000E+00  1.60000000E+01  1.00800000E+00  1.00800000E+00  1.60000000E+01
  1.00800000E+00  1.00800000E+00  1.60000000E+01  1.00800000E+00  1.00800000E+00
  1.60000000E+01  1.00800000E+00  1.00800000E+00  1.60000000E+01  1.00800000E+00
  1.00800000E+00  1.60000000E+01  1.00800000E+00  1.00800000E+00  1.60000000E+01
  1.00800000E+00  1.00800000E+00  1.60000000E+01  1.00800000E+00  1.00800000E+00
  1.60000000E+01  1.00800000E+00  1.00800000E+00  1.60000000E+01  1.00800000E+00
  1.00800000E+00  1.60000000E+01  1.00800000E+00  1.00800000E+00  1.60000000E+01
  1.00800000E+00  1.00800000E+00  1.60000000E+01  1.00800000E+00  1.00800000E+00
  1.60000000E+01  1.00800000E+00  1.00800000E+00  1.60000000E+01  1.00800000E+00
  1.00800000E+00  1.60000000E+01  1.00800000E+00  1.00800000E+00  1.60000000E+01
  1.00800000E+00  1.00800000E+00  1.60000000E+01  1.00800000E+00  1.00800000E+00
  1.60000000E+01  1.00800000E+00  1.00800000E+00  1.60000000E+01  1.00800000E+00
  1.00800000E+00  1.60000000E+01  1.00800000E+00  1.00800000E+00  1.60000000E+01
  1.00800000E+00  1.00800000E+00  1.60000000E+01  1.00800000E+00  1.00800000E+00
  1.60000000E+01  1.00800000E+00  1.00800000E+00  1.60000000E+01  1.00800000E+00
  1.00800000E+00  1.60000000E+01  1.00800000E+00  1.00800000E+00  1.60000000E+01
  1.00800000E+00  1.00800000E+00  1.60000000E+01  1.00800000E+00  1.00800000E+00
  1.60000000E+01  1.00800000E+00  1.00800000E+00  1.60000000E+01  1.00800000E+00
  1.00800000E+00  1.60000000E+01  1.00800000E+00  1.00800000E+00  1.60000000E+01
  1.00800000E+00  1.00800000E+00  1.60000000E+01  1.00800000E+00  1.00800000E+00
  1.60000000E+01  1.00800000E+00  1.00800000E+00  1.60000000E+01  1.00800000E+00
  1.00800000E+00  1.60000000E+01  1.00800000E+00  1.00800000E+00  1.60000000E+01
  1.00800000E+00  1.00800000E+00  1.60000000E+01  1.00800000E+00  1.00800000E+00
  1.60000000E+01  1.00800000E+00  1.00800000E+00  1.60000000E+01  1.00800000E+00
  1.00800000E+00  1.60000000E+01  1.00800000E+00  1.00800000E+00  1.60000000E+01
  1.00800000E+00  1.00800000E+00  1.60000000E+01  1.00800000E+00  1.00800000E+00
  1.60000000E+01  1.00800000E+00  1.00800000E+00  1.60000000E+01  1.00800000E+00
  1.00800000E+00  1.60000000E+01  1.00800000E+00  1.00800000E+00  1.60000000E+01
  1.00800000E+00  1.00800000E+00  1.60000000E+01  1.00800000E+00  1.00800000E+00
  1.60000000E+01  1.00800000E+00  1.00800000E+00  1.60000000E+01  1.00800000E+00
  1.00800000E+00  1.60000000E+01  1.00800000E+00  1.00800000E+00  1.60000000E+01
  1.00800000E+00  1.00800000E+00  1.60000000E+01  1.00800000E+00  1.00800000E+00
  1.60000000E+01  1.00800000E+00  1.00800000E+00  1.60000000E+01  1.00800000E+00
  1.00800000E+00  1.60000000E+01  1.00800000E+00  1.00800000E+00  1.60000000E+01
  1.00800000E+00  1.00800000E+00  1.60000000E+01  1.00800000E+00  1.00800000E+00
  1.60000000E+01  1.00800000E+00  1.00800000E+00  1.60000000E+01  1.00800000E+00
  1.00800000E+00  1.60000000E+01  1.00800000E+00  1.00800000E+00  1.60000000E+01
  1.00800000E+00  1.00800000E+00  1.60000000E+01  1.00800000E+00  1.00800000E+00
  1.60000000E+01  1.00800000E+00  1.00800000E+00  1.60000000E+01  1.00800000E+00
  1.00800000E+00  1.60000000E+01  1.00800000E+00  1.00800000E+00  1.60000000E+01
  1.00800000E+00  1.00800000E+00  1.60000000E+01  1.00800000E+00  1.00800000E+00
  1.60000000E+01  1.00800000E+00  1.00800000E+00  1.60000000E+01  1.00800000E+00
  1.00800000E+00  1.60000000E+01  1.00800000E+00  1.00800000E+00  1.60000000E+01
  1.00800000E+00  1.00800000E+00  1.60000000E+01  1.00800000E+00  1.00800000E+00
  1.60000000E+01  1.00800000E+00  1.00800000E+00  1.60000000E+01  1.00800000E+00
  1.00800000E+00  1.60000000E+01  1.00800000E+00  1.00800000E+00  1.60000000E+01
  1.00800000E+00  1.00800000E+00  1.60000000E+01  1.00800000E+00  1.00800000E+00
  1.60000000E+01  1.00800000E+00  1.00800000E+00  1.60000000E+01  1.00800000E+00
  1.00800000E+00  1.60000000E+01  1.00800000E+00  1.00800000E+00  1.60000000E+01
  1.00800000E+00  1.00800000E+00  1.60000000E+01  1.00800000E+00  1.00800000E+00
  1.60000000E+01  1.00800000E+00  1.00800000E+00  1.60000000E+01  1.00800000E+00
  1.00800000E+00  1.60000000E+01  1.00800000E+00  1.00800000E+00  1.60000000E+01
  1.00800000E+00  1.00800000E+00  1.60000000E+01  1.00800000E+00  1.00800000E+00
  1.60000000E+01  1.00800000E+00  1.00800000E+00  1.60000000E+01  1.00800000E+00
  1.00800000E+00  1.60000000E+01  1.00800000E+00  1.00800000E+00  1.60000000E+01
  1.00800000E+00  1.00800000E+00  1.60000000E+01  1.00800000E+00  1.00800000E+00
  1.60000000E+01  1.00800000E+00  1.00800000E+00  1.60000000E+01  1.00800000E+00
  1.00800000E+00  1.60000000E+01  1.00800000E+00  1.00800000E+00  1.60000000E+01
  1.00800000E+00  1.00800000E+00  1.60000000E+01  1.00800000E+00  1.00800000E+00
  1.60000000E+01  1.00800000E+00  1.00800000E+00  1.60000000E+01  1.00800000E+00
  1.00800000E+00  1.60000000E+01  1.00800000E+00  1.00800000E+00  1.60000000E+01
  1.00800000E+00  1.00800000E+00  1.60000000E+01  1.00800000E+00  1.00800000E+00
  1.60000000E+01  1.00800000E+00  1.00800000E+00  1.60000000E+01  1.00800000E+00
  1.00800000E+00  1.60000000E+01  1.00800000E+00  1.00800000E+00  1.60000000E+01
  1.00800000E+00  1.00800000E+00  1.60000000E+01  1.00800000E+00  1.00800000E+00
  1.60000000E+01  1.00800000E+00  1.00800000E+00  1.60000000E+01  1.00800000E+00
  1.00800000E+00  1.60000000E+01  1.00800000E+00  1.00800000E+00  1.60000000E+01
  1.00800000E+00  1.00800000E+00  1.60000000E+01  1.00800000E+00  1.00800000E+00
  1.60000000E+01  1.00800000E+00  1.00800000E+00  1.60000000E+01  1.00800000E+00
  1.00800000E+00  1.60000000E+01  1.00800000E+00  1.00800000E+00  1.60000000E+01
  1.00800000E+00  1.00800000E+00  1.60000000E+01  1.00800000E+00  1.00800000E+00
  1.60000000E+01  1.00800000E+00  1.00800000E+00  1.60000000E+01  1.00800000E+00
  1.00800000E+00  1.60000000E+01  1.00800000E+00  1.00800000E+00  1.60000000E+01
  1.00800000E+00  1.00800000E+00  1.60000000E+01  1.00800000E+00  1.00800000E+00
  1.60000000E+01  1.00800000E+00  1.00800000E+00  1.60000000E+01  1.00800000E+00
  1.00800000E+00  1.60000000E+01  1.00800000E+00  1.00800000E+00  1.60000000E+01
  1.00800000E+00  1.00800000E+00  1.60000000E+01  1.00800000E+00  1.00800000E+00
  1.60000000E+01  1.00800000E+00  1.00800000E+00  1.60000000E+01  1.00800000E+00
  1.00800000E+00  1.60000000E+01  1.00800000E+00  1.00800000E+00  1.60000000E+01
  1.00800000E+00  1.00800000E+00  1.60000000E+01  1.00800000E+00  1.00800000E+00
  1.60000000E+01  1.00800000E+00  1.00800000E+00  1.60000000E+01  1.00800000E+00
  1.00800000E+00  1.60000000E+01  1.00800000E+00  1.00800000E+00  1.60000000E+01
  1.00800000E+00  1.00800000E+00  1.60000000E+01  1.00800000E+00  1.00800000E+00
  1.60000000E+01  1.00800000E+00  1.00800000E+00  1.60000000E+01  1.00800000E+00
  1.00800000E+00  1.60000000E+01  1.00800000E+00  1.00800000E+00  1.60000000E+01
  1.00800000E+00  1.00800000E+00  1.60000000E+01  1.00800000E+00  1.00800000E+00
  1.60000000E+01  1.00800000E+00  1.00800000E+00  1.60000000E+01  1.00800000E+00
  1.00800000E+00  1.60000000E+01  1.00800000E+00  1.00800000E+00  1.60000000E+01
  1.00800000E+00  1.00800000E+00  1.60000000E+01  1.00800000E+00  1.00800000E+00
  1.60000000E+01  1.00800000E+00  1.00800000E+00  1.60000000E+01  1.00800000E+00
  1.00800000E+00  1.60000000E+01  1.00800000E+00  1.00800000E+00  1.60000000E+01
  1.00800000E+00  1.00800000E+00  1.60000000E+01  1.00800000E+00  1.00800000E+00
  1.60000000E+01  1.00800000E+00  1.00800000E+00  1.60000000E+01  1.00800000E+00
  1.00800000E+00  1.60000000E+01  1.00800000E+00  1.00800000E+00  1.60000000E+01
  1.00800000E+00  1.00800000E+00  1.60000000E+01  1.00800000E+00  1.00800000E+00
  1.60000000E+01  1.00800000E+00  1.00800000E+00  1.60000000E+01  1.00800000E+00
  1.00800000E+00  1.60000000E+01  1.00800000E+00  1.00800000E+00  1.60000000E+01
  1.00800000E+00  1.00800000E+00  1.60000000E+01  1.00800000E+00  1.00800000E+00
  1.60000000E+01  1.00800000E+00  1.00800000E+00  1.60000000E+01  1.00800000E+00
  1.00800000E+00  1.60000000E+01  1.00800000E+00  1.00800000E+00  1.60000000E+01
  1.00800000E+00  1.00800000E+00  1.60000000E+01  1.00800000E+00  1.00800000E+00
  1.60000000E+01  1.00800000E+00  1.00800000E+00  1.60000000E+01  1.00800000E+00
  1.00800000E+00  1.60000000E+01  1.00800000E+00  1.00800000E+00  1.60000000E+01
  1.00800000E+00  1.00800000E+00  1.60000000E+01  1.00800000E+00  1.00800000E+00
  1.60000000E+01  1.00800000E+00  1.00800000E+00  1.60000000E+01  1.00800000E+00
  1.00800000E+00  1.60000000E+01  1.00800000E+00  1.00800000E+00  1.60000000E+01
  1.00800000E+00  1.00800000E+00  1.60000000E+01  1.00800000E+00  1.00800000E+00
  1.60000000E+01  1.00800000E+00  1.00800000E+00  1.60000000E+01  1.00800000E+00
  1.00800000E+00  1.60000000E+01  1.00800000E+00  1.00800000E+00  1.60000000E+01
  1.00800000E+00  1.00800000E+00  1.60000000E+01  1.00800000E+00  1.00800000E+00
  1.60000000E+01  1.00800000E+00  1.00800000E+00  1.60000000E+01  1.00800000E+00
  1.00800000E+00  1.60000000E+01  1.00800000E+00  1.00800000E+00  1.60000000E+01
  1.00800000E+00  1.00800000E+00  1.60000000E+01  1.00800000E+00  1.00800000E+00
  1.60000000E+01  1.00800000E+00  1.00800000E+00  1.60000000E+01  1.00800000E+00
  1.00800000E+00  1.60000000E+01  1.00800000E+00  1.00800000E+00  1.60000000E+01
  1.00800000E+00  1.00800000E+00  1.60000000E+01  1.00800000E+00  1.00800000E+00
  1.60000000E+01  1.00800000E+00  1.00800000E+00  1.60000000E+01  1.00800000E+00
  1.00800000E+00  1.60000000E+01  1.00800000E+00  1.00800000E+00  1.60000000E+01
  1.00800000E+00  1.00800000E+00  1.60000000E+01  1.00800000E+00  1.00800000E+00
  1.60000000E+01  1.00800000E+00  1.00800000E+00  1.60000000E+01  1.00800000E+00
  1.00800000E+00  1.60000000E+01  1.00800000E+00  1.00800000E+00  1.60000000E+01
  1.00800000E+00  1.00800000E+00  1.60000000E+01  1.00800000E+00  1.00800000E+00
  1.60000000E+01  1.00800000E+00  1.00800000E+00  1.60000000E+01  1.00800000E+00
  1.00800000E+00  1.60000000E+01  1.00800000E+00  1.00800000E+00  1.60000000E+01
  1.00800000E+00  1.00800000E+00  1.60000000E+01  1.00800000E+00  1.00800000E+00
  1.60000000E+01  1.00800000E+00  1.00800000E+00  1.60000000E+01  1.00800000E+00
  1.00800000E+00  1.60000000E+01  1.00800000E+00  1.00800000E+00  1.60000000E+01
  1.00800000E+00  1.00800000E+00  1.60000000E+01  1.00800000E+00  1.00800000E+00
  1.60000000E+01  1.00800000E+00  1.00800000E+00  1.60000000E+01  1.00800000E+00
  1.00800000E+00  1.60000000E+01  1.00800000E+00  1.00800000E+00  1.60000000E+01
  1.00800000E+00  1.00800000E+00  1.60000000E+01  1.00800000E+00  1.00800000E+00
  1.60000000E+01  1.00800000E+00  1.00800000E+00  1.60000000E+01  1.00800000E+00
  1.00800000E+00  1.60000000E+01  1.00800000E+00  1.00800000E+00  1.60000000E+01
  1.00800000E+00  1.00800000E+00  1.60000000E+01  1.00800000E+00  1.00800000E+00
  1.60000000E+01  1.00800000E+00  1.00800000E+00  1.60000000E+01  1.00800000E+00
  1.00800000E+00  1.60000000E+01  1.00800000E+00  1.00800000E+00  1.60000000E+01
  1.00800000E+00  1.00800000E+00  1.60000000E+01  1.00800000E+00  1.00800000E+00
  1.60000000E+01  1.00800000E+00  1.00800000E+00  1.60000000E+01  1.00800000E+00
  1.00800000E+00  1.60000000E+01  1.00800000E+00  1.00800000E+00  1.60000000E+01
  1.00800000E+00  1.00800000E+00  1.60000000E+01  1.00800000E+00  1.00800000E+00
  1.60000000E+01  1.00800000E+00  1.00800000E+00  1.60000000E+01  1.00800000E+00
  1.00800000E+00  1.60000000E+01  1.00800000E+00  1.00800000E+00  1.60000000E+01
  1.00800000E+00  1.00800000E+00  1.60000000E+01  1.00800000E+00  1.00800000E+00
  1.60000000E+01  1.00800000E+00  1.00800000E+00  1.60000000E+01  1.00800000E+00
  1.00800000E+00  1.60000000E+01  1.00800000E+00  1.00800000E+00  1.60000000E+01
  1.00800000E+00  1.00800000E+00  1.60000000E+01  1.00800000E+00  1.00800000E+00
  1.60000000E+01  1.00800000E+00  1.00800000E+00  1.60000000E+01  1.00800000E+00
  1.00800000E+00  1.60000000E+01  1.00800000E+00  1.00800000E+00  1.60000000E+01
  1.00800000E+00  1.00800000E+00  1.60000000E+01  1.00800000E+00  1.00800000E+00
  1.60000000E+01  1.00800000E+00  1.00800000E+00  1.60000000E+01  1.00800000E+00
  1.00800000E+00  1.60000000E+01  1.00800000E+00  1.00800000E+00  1.60000000E+01
  1.00800000E+00  1.00800000E+00  1.60000000E+01  1.00800000E+00  1.00800000E+00
  1.60000000E+01  1.00800000E+00  1.00800000E+00  1.60000000E+01  1.00800000E+00
  1.00800000E+00  1.60000000E+01  1.00800000E+00  1.00800000E+00  1.60000000E+01
  1.00800000E+00  1.00800000E+00  1.60000000E+01  1.00800000E+00  1.00800000E+00
  1.60000000E+01  1.00800000E+00  1.00800000E+00  1.60000000E+01  1.00800000E+00
  1.00800000E+00  1.60000000E+01  1.00800000E+00  1.00800000E+00  1.60000000E+01
  1.00800000E+00  1.00800000E+00  1.60000000E+01  1.00800000E+00  1.00800000E+00
  1.60000000E+01  1.00800000E+00  1.00800000E+00  1.60000000E+01  1.00800000E+00
  1.00800000E+00  1.60000000E+01  1.00800000E+00  1.00800000E+00  1.60000000E+01
  1.00800000E+00  1.00800000E+00  1.60000000E+01  1.00800000E+00  1.00800000E+00
  1.60000000E+01  1.00800000E+00  1.00800000E+00  1.60000000E+01  1.00800000E+00
  1.00800000E+00  1.60000000E+01  1.00800000E+00  1.00800000E+00  1.60000000E+01
  1.00800000E+00  1.00800000E+00  1.60000000E+01  1.00800000E+00  1.00800000E+00
  1.60000000E+01  1.00800000E+00  1.00800000E+00  1.60000000E+01  1.00800000E+00
  1.00800000E+00  1.60000000E+01  1.00800000E+00  1.00800000E+00  1.60000000E+01
  1.00800000E+00  1.00800000E+00  1.60000000E+01  1.00800000E+00  1.00800000E+00
  1.60000000E+01  1.00800000E+00  1.00800000E+00  1.60000000E+01  1.00800000E+00
  1.00800000E+00  1.60000000E+01  1.00800000E+00  1.00800000E+00  1.60000000E+01
  1.00800000E+00  1.00800000E+00  1.60000000E+01  1.00800000E+00  1.00800000E+00
  1.60000000E+01  1.00800000E+00  1.00800000E+00  1.60000000E+01  1.00800000E+00
  1.00800000E+00  1.60000000E+01  1.00800000E+00  1.00800000E+00  1.60000000E+01
  1.00800000E+00  1.00800000E+00  1.60000000E+01  1.00800000E+00  1.00800000E+00
  1.60000000E+01  1.00800000E+00  1.00800000E+00  1.60000000E+01  1.00800000E+00
  1.00800000E+00  1.60000000E+01  1.00800000E+00  1.00800000E+00  1.60000000E+01
  1.00800000E+00  1.00800000E+00  1.60000000E+01  1.00800000E+00  1.00800000E+00
  1.60000000E+01  1.00800000E+00  1.00800000E+00  1.60000000E+01  1.00800000E+00
  1.00800000E+00  1.60000000E+01  1.00800000E+00  1.00800000E+00  1.60000000E+01
  1.00800000E+00  1.00800000E+00  1.60000000E+01  1.00800000E+00  1.00800000E+00
  1.60000000E+01  1.00800000E+00  1.00800000E+00  1.60000000E+01  1.00800000E+00
  1.00800000E+00  1.60000000E+01  1.00800000E+00  1.00800000E+00  1.60000000E+01
  1.00800000E+00  1.00800000E+00  1.60000000E+01  1.00800000E+00  1.00800000E+00
  1.60000000E+01  1.00800000E+00  1.00800000E+00  1.60000000E+01  1.00800000E+00
  1.00800000E+00  1.60000000E+01  1.00800000E+00  1.00800000E+00  1.60000000E+01
  1.00800000E+00  1.00800000E+00  1.60000000E+01  1.00800000E+00  1.00800000E+00
  1.60000000E+01  1.00800000E+00  1.00800000E+00  1.60000000E+01  1.00800000E+00
  1.00800000E+00  1.60000000E+01  1.00800000E+00  1.00800000E+00  1.60000000E+01
  1.00800000E+00  1.00800000E+00  1.60000000E+01  1.00800000E+00  1.00800000E+00
  1.60000000E+01  1.00800000E+00  1.00800000E+00  1.60000000E+01  1.00800000E+00
  1.00800000E+00  1.60000000E+01  1.00800000E+00  1.00800000E+00  1.60000000E+01
  1.00800000E+00  1.00800000E+00  1.60000000E+01  1.00800000E+00  1.00800000E+00
  1.60000000E+01  1.00800000E+00  1.00800000E+00  1.60000000E+01  1.00800000E+00
  1.00800000E+00  1.60000000E+01  1.00800000E+00  1.00800000E+00  1.60000000E+01
  1.00800000E+00  1.00800000E+00  1.60000000E+01  1.00800000E+00  1.00800000E+00
  1.60000000E+01  1.00800000E+00  1.00800000E+00  1.60000000E+01  1.00800000E+00
  1.00800000E+00  1.60000000E+01  1.00800000E+00  1.00800000E+00  1.60000000E+01
  1.00800000E+00  1.00800000E+00  1.60000000E+01  1.00800000E+00  1.00800000E+00
  1.60000000E+01  1.00800000E+00  1.00800000E+00  1.60000000E+01  1.00800000E+00
  1.00800000E+00  1.60000000E+01  1.00800000E+00  1.00800000E+00  1.60000000E+01
  1.00800000E+00  1.00800000E+00  1.60000000E+01  1.00800000E+00  1.00800000E+00
  1.60000000E+01  1.00800000E+00  1.00800000E+00  1.60000000E+01  1.00800000E+00
  1.00800000E+00  1.60000000E+01  1.00800000E+00  1.00800000E+00  1.60000000E+01
  1.00800000E+00  1.00800000E+00  1.60000000E+01  1.00800000E+00  1.00800000E+00
  1.60000000E+01  1.00800000E+00  1.00800000E+00  1.60000000E+01  1.00800000E+00
  1.00800000E+00  1.60000000E+01  1.00800000E+00  1.00800000E+00  1.60000000E+01
  1.00800000E+00  1.00800000E+00  1.60000000E+01  1.00800000E+00  1.00800000E+00
  1.60000000E+01  1.00800000E+00  1.00800000E+00  1.60000000E+01  1.00800000E+00
  1.00800000E+00  1.60000000E+01  1.00800000E+00  1.00800000E+00  1.60000000E+01
  1.00800000E+00  1.00800000E+00  1.60000000E+01  1.00800000E+00  1.00800000E+00
  1.60000000E+01  1.00800000E+00  1.00800000E+00  1.60000000E+01  1.00800000E+00
  1.00800000E+00  1.60000000E+01  1.00800000E+00  1.00800000E+00  1.60000000E+01
  1.00800000E+00  1.00800000E+00  1.60000000E+01  1.00800000E+00  1.00800000E+00
  1.60000000E+01  1.00800000E+00  1.00800000E+00  1.60000000E+01  1.00800000E+00
  1.00800000E+00  1.60000000E+01  1.00800000E+00  1.00800000E+00  1.60000000E+01
  1.00800000E+00  1.00800000E+00  1.60000000E+01  1.00800000E+00  1.00800000E+00
  1.60000000E+01  1.00800000E+00  1.00800000E+00  1.60000000E+01  1.00800000E+00
  1.00800000E+00  1.60000000E+01  1.00800000E+00  1.00800000E+00  1.60000000E+01
  1.00800000E+00  1.00800000E+00  1.60000000E+01  1.00800000E+00  1.00800000E+00
  1.60000000E+01  1.00800000E+00  1.00800000E+00  1.60000000E+01  1.00800000E+00
  1.00800000E+00  1.60000000E+01  1.00800000E+00  1.00800000E+00  1.60000000E+01
  1.00800000E+00  1.00800000E+00  1.60000000E+01  1.00800000E+00  1.00800000E+00
  1.60000000E+01  1.00800000E+00  1.00800000E+00  1.60000000E+01  1.00800000E+00
  1.00800000E+00  1.60000000E+01  1.00800000E+00  1.00800000E+00  1.60000000E+01
  1.00800000E+00  1.00800000E+00  1.60000000E+01  1.00800000E+00  1.00800000E+00
  1.60000000E+01  1.00800000E+00  1.00800000E+00  1.60000000E+01  1.00800000E+00
  1.00800000E+00  1.60000000E+01  1.00800000E+00  1.00800000E+00  1.60000000E+01
  1.00800000E+00  1.00800000E+00  1.60000000E+01  1.00800000E+00  1.00800000E+00
  1.60000000E+01  1.00800000E+00  1.00800000E+00  1.60000000E+01  1.00800000E+00
  1.00800000E+00  1.60000000E+01  1.00800000E+00  1.00800000E+00  1.60000000E+01
  1.00800000E+00  1.00800000E+00  1.60000000E+01  1.00800000E+00  1.00800000E+00
  1.60000000E+01  1.00800000E+00  1.00800000E+00  1.60000000E+01  1.00800000E+00
  1.00800000E+00  1.60000000E+01  1.00800000E+00  1.00800000E+00  1.60000000E+01
  1.00800000E+00  1.00800000E+00  1.60000000E+01  1.00800000E+00  1.00800000E+00
  1.60000000E+01  1.00800000E+00  1.00800000E+00  1.60000000E+01  1.00800000E+00
  1.00800000E+00  1.60000000E+01  1.00800000E+00  1.00800000E+00  1.60000000E+01
  1.00800000E+00  1.00800000E+00  1.60000000E+01  1.00800000E+00  1.00800000E+00
  1.60000000E+01  1.00800000E+00  1.00800000E+00  1.60000000E+01  1.00800000E+00
  1.00800000E+00  1.60000000E+01  1.00800000E+00  1.00800000E+00  1.60000000E+01
  1.00800000E+00  1.00800000E+00  1.60000000E+01  1.00800000E+00  1.00800000E+00
  1.60000000E+01  1.00800000E+00  1.00800000E+00  1.60000000E+01  1.00800000E+00
  1.00800000E+00  1.60000000E+01  1.00800000E+00  1.00800000E+00  1.60000000E+01
  1.00800000E+00  1.00800000E+00  1.60000000E+01  1.00800000E+00  1.00800000E+00
  1.60000000E+01  1.00800000E+00  1.00800000E+00  1.60000000E+01  1.00800000E+00
  1.00800000E+00  1.60000000E+01  1.00800000E+00  1.00800000E+00  1.60000000E+01
  1.00800000E+00  1.00800000E+00  1.60000000E+01  1.00800000E+00  1.00800000E+00
  1.60000000E+01  1.00800000E+00  1.00800000E+00  1.60000000E+01  1.00800000E+00
  1.00800000E+00  1.60000000E+01  1.00800000E+00  1.00800000E+00  1.60000000E+01
  1.00800000E+00  1.00800000E+00  1.60000000E+01  1.00800000E+00  1.00800000E+00
  1.60000000E+01  1.00800000E+00  1.00800000E+00  1.60000000E+01  1.00800000E+00
  1.00800000E+00  1.60000000E+01  1.00800000E+00  1.00800000E+00  1.60000000E+01
  1.00800000E+00  1.00800000E+00  1.60000000E+01  1.00800000E+00  1.00800000E+00
  1.60000000E+01  1.00800000E+00  1.00800000E+00  1.60000000E+01  1.00800000E+00
  1.00800000E+00  1.60000000E+01  1.00800000E+00  1.00800000E+00  1.60000000E+01
  1.00800000E+00  1.00800000E+00  1.60000000E+01  1.00800000E+00  1.00800000E+00
  1.60000000E+01  1.00800000E+00  1.00800000E+00  1.60000000E+01  1.00800000E+00
  1.00800000E+00  1.60000000E+01  1.00800000E+00  1.00800000E+00  1.60000000E+01
  1.00800000E+00  1.00800000E+00  1.60000000E+01  1.00800000E+00  1.00800000E+00
  1.60000000E+01  1.00800000E+00  1.00800000E+00  1.60000000E+01  1.00800000E+00
  1.00800000E+00  1.60000000E+01  1.00800000E+00  1.00800000E+00  1.60000000E+01
  1.00800000E+00  1.00800000E+00  1.60000000E+01  1.00800000E+00  1.00800000E+00
  1.60000000E+01  1.00800000E+00  1.00800000E+00  1.60000000E+01  1.00800000E+00
  1.00800000E+00  1.60000000E+01  1.00800000E+00  1.00800000E+00  1.60000000E+01
  1.00800000E+00  1.00800000E+00  1.60000000E+01  1.00800000E+00  1.00800000E+00
  1.60000000E+01  1.00800000E+00  1.00800000E+00  1.60000000E+01  1.00800000E+00
  1.00800000E+00  1.60000000E+01  1.00800000E+00  1.00800000E+00  1.60000000E+01
  1.00800000E+00  1.00800000E+00  1.60000000E+01  1.00800000E+00  1.00800000E+00
  1.60000000E+01  1.00800000E+00  1.00800000E+00  1.60000000E+01  1.00800000E+00
  1.00800000E+00  1.60000000E+01  1.00800000E+00  1.00800000E+00  1.60000000E+01
  1.00800000E+00  1.00800000E+00  1.60000000E+01  1.00800000E+00  1.00800000E+00
  1.60000000E+01  1.00800000E+00  1.00800000E+00  1.60000000E+01  1.00800000E+00
  1.00800000E+00  1.60000000E+01  1.00800000E+00  1.00800000E+00  1.60000000E+01
  1.00800000E+00  1.00800000E+00  1.60000000E+01  1.00800000E+00  1.00800000E+00
  1.60000000E+01  1.00800000E+00  1.00800000E+00  1.60000000E+01  1.00800000E+00
  1.00800000E+00  1.60000000E+01  1.00800000E+00  1.00800000E+00  1.60000000E+01
  1.00800000E+00  1.00800000E+00  1.60000000E+01  1.00800000E+00  1.00800000E+00
  1.60000000E+01  1.00800000E+00  1.00800000E+00  1.60000000E+01  1.00800000E+00
  1.00800000E+00  1.60000000E+01  1.00800000E+00  1.00800000E+00  1.60000000E+01
  1.00800000E+00  1.00800000E+00  1.60000000E+01  1.00800000E+00  1.00800000E+00
  1.60000000E+01  1.00800000E+00  1.00800000E+00  1.60000000E+01  1.00800000E+00
  1.00800000E+00  1.60000000E+01  1.00800000E+00  1.00800000E+00  1.60000000E+01
  1.00800000E+00  1.00800000E+00  1.60000000E+01  1.00800000E+00  1.00800000E+00
  1.60000000E+01  1.00800000E+00  1.00800000E+00  1.60000000E+01  1.00800000E+00
  1.00800000E+00  1.60000000E+01  1.00800000E+00  1.00800000E+00  1.60000000E+01
  1.00800000E+00  1.00800000E+00  1.60000000E+01  1.00800000E+00  1.00800000E+00
  1.60000000E+01  1.00800000E+00  1.00800000E+00  1.60000000E+01  1.00800000E+00
  1.00800000E+00  1.60000000E+01  1.00800000E+00  1.00800000E+00  1.60000000E+01
  1.00800000E+00  1.00800000E+00  1.60000000E+01  1.00800000E+00  1.00800000E+00
  1.60000000E+01  1.00800000E+00  1.00800000E+00  1.60000000E+01  1.00800000E+00
  1.00800000E+00  1.60000000E+01  1.00800000E+00  1.00800000E+00  1.60000000E+01
  1.00800000E+00  1.00800000E+00  1.60000000E+01  1.00800000E+00  1.00800000E+00
  1.60000000E+01  1.00800000E+00  1.00800000E+00  1.60000000E+01  1.00800000E+00
  1.00800000E+00  1.60000000E+01  1.00800000E+00  1.00800000E+00  1.60000000E+01
  1.00800000E+00  1.00800000E+00  1.60000000E+01  1.00800000E+00  1.00800000E+00
  1.60000000E+01  1.00800000E+00  1.00800000E+00  1.60000000E+01  1.00800000E+00
  1.00800000E+00  1.60000000E+01  1.00800000E+00  1.00800000E+00  1.60000000E+01
  1.00800000E+00  1.00800000E+00  1.60000000E+01  1.00800000E+00  1.00800000E+00
  1.60000000E+01  1.00800000E+00  1.00800000E+00  1.60000000E+01  1.00800000E+00
  1.00800000E+00  1.60000000E+01  1.00800000E+00  1.00800000E+00  1.60000000E+01
  1.00800000E+00  1.00800000E+00  1.60000000E+01  1.00800000E+00  1.00800000E+00
  1.60000000E+01  1.00800000E+00  1.00800000E+00  1.60000000E+01  1.00800000E+00
  1.00800000E+00  1.60000000E+01  1.00800000E+00  1.00800000E+00  1.60000000E+01
  1.00800000E+00  1.00800000E+00  1.60000000E+01  1.00800000E+00  1.00800000E+00
  1.60000000E+01  1.00800000E+00  1.00800000E+00  1.60000000E+01  1.00800000E+00
  1.00800000E+00  1.60000000E+01  1.00800000E+00  1.00800000E+00  1.60000000E+01
  1.00800000E+00  1.00800000E+00  1.60000000E+01  1.00800000E+00  1.00800000E+00
  1.60000000E+01  1.00800000E+00  1.00800000E+00  1.60000000E+01  1.00800000E+00
  1.00800000E+00  1.60000000E+01  1.00800000E+00  1.00800000E+00  1.60000000E+01
  1.00800000E+00  1.00800000E+00  1.60000000E+01  1.00800000E+00  1.00800000E+00
  1.60000000E+01  1.00800000E+00  1.00800000E+00  1.60000000E+01  1.00800000E+00
  1.00800000E+00  1.60000000E+01  1.00800000E+00  1.00800000E+00  1.60000000E+01
  1.00800000E+00  1.00800000E+00  1.60000000E+01  1.00800000E+00  1.00800000E+00
  1.60000000E+01  1.00800000E+00  1.00800000E+00  1.60000000E+01  1.00800000E+00
  1.00800000E+00  1.60000000E+01  1.00800000E+00  1.00800000E+00  1.60000000E+01
  1.00800000E+00  1.00800000E+00  1.60000000E+01  1.00800000E+00  1.00800000E+00
  1.60000000E+01  1.00800000E+00  1.00800000E+00  1.60000000E+01  1.00800000E+00
  1.00800000E+00  1.60000000E+01  1.00800000E+00  1.00800000E+00  1.60000000E+01
  1.00800000E+00  1.00800000E+00  1.60000000E+01  1.00800000E+00  1.00800000E+00
  1.60000000E+01  1.00800000E+00  1.00800000E+00  1.60000000E+01  1.00800000E+00
  1.00800000E+00  1.60000000E+01  1.00800000E+00  1.00800000E+00  1.60000000E+01
  1.00800000E+00  1.00800000E+00  1.60000000E+01  1.00800000E+00  1.00800000E+00
  1.60000000E+01  1.00800000E+00  1.00800000E+00  1.60000000E+01  1.00800000E+00
  1.00800000E+00  1.60000000E+01  1.00800000E+00  1.00800000E+00  1.60000000E+01
  1.00800000E+00  1.00800000E+00  1.60000000E+01  1.00800000E+00  1.00800000E+00
  1.60000000E+01  1.00800000E+00  1.00800000E+00  1.60000000E+01  1.00800000E+00
  1.00800000E+00  1.60000000E+01  1.00800000E+00  1.00800000E+00  1.60000000E+01
  1.00800000E+00  1.00800000E+00  1.60000000E+01  1.00800000E+00  1.00800000E+00
  1.60000000E+01  1.00800000E+00  1.00800000E+00  1.60000000E+01  1.00800000E+00
  1.00800000E+00  1.60000000E+01  1.00800000E+00  1.00800000E+00  1.60000000E+01
  1.00800000E+00  1.00800000E+00  1.60000000E+01  1.00800000E+00  1.00800000E+00
  1.60000000E+01  1.00800000E+00  1.00800000E+00  1.60000000E+01  1.00800000E+00
  1.00800000E+00  1.60000000E+01  1.00800000E+00  1.00800000E+00  1.60000000E+01
  1.00800000E+00  1.00800000E+00  1.60000000E+01  1.00800000E+00  1.00800000E+00
  1.60000000E+01  1.00800000E+00  1.00800000E+00  1.60000000E+01  1.00800000E+00
  1.00800000E+00  1.60000000E+01  1.00800000E+00  1.00800000E+00  1.60000000E+01
  1.00800000E+00  1.00800000E+00  1.60000000E+01  1.00800000E+00  1.00800000E+00
  1.60000000E+01  1.00800000E+00  1.00800000E+00  1.60000000E+01  1.00800000E+00
  1.00800000E+00  1.60000000E+01  1.00800000E+00  1.00800000E+00  1.60000000E+01
  1.00800000E+00  1.00800000E+00  1.60000000E+01  1.00800000E+00  1.00800000E+00
  1.60000000E+01  1.00800000E+00  1.00800000E+00  1.60000000E+01  1.00800000E+00
  1.00800000E+00  1.60000000E+01  1.00800000E+00  1.00800000E+00  1.60000000E+01
  1.00800000E+00  1.00800000E+00  1.60000000E+01  1.00800000E+00  1.00800000E+00
  1.60000000E+01  1.00800000E+00  1.00800000E+00  1.60000000E+01  1.00800000E+00
  1.00800000E+00  1.60000000E+01  1.00800000E+00  1.00800000E+00  1.60000000E+01
  1.00800000E+00  1.00800000E+00  1.60000000E+01  1.00800000E+00  1.00800000E+00
  1.60000000E+01  1.00800000E+00  1.00800000E+00  1.60000000E+01  1.00800000E+00
  1.00800000E+00  1.60000000E+01  1.00800000E+00  1.00800000E+00  1.60000000E+01
  1.00800000E+00  1.00800000E+00  1.60000000E+01  1.00800000E+00  1.00800000E+00
  1.60000000E+01  1.00800000E+00  1.00800000E+00  1.60000000E+01  1.00800000E+00
  1.00800000E+00  1.60000000E+01  1.00800000E+00  1.00800000E+00  1.60000000E+01
  1.00800000E+00  1.00800000E+00  1.60000000E+01  1.00800000E+00  1.00800000E+00
  1.60000000E+01  1.00800000E+00  1.00800000E+00  1.60000000E+01  1.00800000E+00
  1.00800000E+00  1.60000000E+01  1.00800000E+00  1.00800000E+00  1.60000000E+01
  1.00800000E+00  1.00800000E+00  1.60000000E+01  1.00800000E+00  1.00800000E+00
  1.60000000E+01  1.00800000E+00  1.00800000E+00  1.60000000E+01  1.00800000E+00
  1.00800000E+00  1.60000000E+01  1.00800000E+00  1.00800000E+00  1.60000000E+01
  1.00800000E+00  1.00800000E+00  1.60000000E+01  1.00800000E+00  1.00800000E+00
  1.60000000E+01  1.00800000E+00  1.00800000E+00  1.60000000E+01  1.00800000E+00
  1.00800000E+00  1.60000000E+01  1.00800000E+00  1.00800000E+00  1.60000000E+01
  1.00800000E+00  1.00800000E+00  1.60000000E+01  1.00800000E+00  1.00800000E+00
  1.60000000E+01  1.00800000E+00  1.00800000E+00  1.60000000E+01  1.00800000E+00
  1.00800000E+00  1.60000000E+01  1.00800000E+00  1.00800000E+00  1.60000000E+01
  1.00800000E+00  1.00800000E+00  1.60000000E+01  1.00800000E+00  1.00800000E+00
  1.60000000E+01  1.00800000E+00  1.00800000E+00  1.60000000E+01  1.00800000E+00
  1.00800000E+00  1.60000000E+01  1.00800000E+00  1.00800000E+00  1.60000000E+01
  1.00800000E+00  1.00800000E+00  1.60000000E+01  1.00800000E+00  1.00800000E+00
  1.60000000E+01  1.00800000E+00  1.00800000E+00  1.60000000E+01  1.00800000E+00
  1.00800000E+00  1.60000000E+01  1.00800000E+00  1.00800000E+00  1.60000000E+01
  1.00800000E+00  1.00800000E+00  1.60000000E+01  1.00800000E+00  1.00800000E+00
  1.60000000E+01  1.00800000E+00  1.00800000E+00  1.60000000E+01  1.00800000E+00
  1.00800000E+00  1.60000000E+01  1.00800000E+00  1.00800000E+00  1.60000000E+01
  1.00800000E+00  1.00800000E+00  1.60000000E+01  1.00800000E+00  1.00800000E+00
  1.60000000E+01  1.00800000E+00  1.00800000E+00  1.60000000E+01  1.00800000E+00
  1.00800000E+00  1.60000000E+01  1.00800000E+00  1.00800000E+00  1.60000000E+01
  1.00800000E+00  1.00800000E+00  1.60000000E+01  1.00800000E+00  1.00800000E+00
  1.60000000E+01  1.00800000E+00  1.00800000E+00  1.60000000E+01  1.00800000E+00
  1.00800000E+00  1.60000000E+01  1.00800000E+00  1.00800000E+00  1.60000000E+01
  1.00800000E+00  1.00800000E+00  1.60000000E+01  1.00800000E+00  1.00800000E+00
  1.60000000E+01  1.00800000E+00  1.00800000E+00  1.60000000E+01  1.00800000E+00
  1.00800000E+00  1.60000000E+01  1.00800000E+00  1.00800000E+00  1.60000000E+01
  1.00800000E+00  1.00800000E+00  1.60000000E+01  1.00800000E+00  1.00800000E+00
  1.60000000E+01  1.00800000E+00  1.00800000E+00  1.60000000E+01  1.00800000E+00
  1.00800000E+00  1.60000000E+01  1.00800000E+00  1.00800000E+00  1.60000000E+01
  1.00800000E+00  1.00800000E+00  1.60000000E+01  1.00800000E+00  1.00800000E+00
  1.60000000E+01  1.00800000E+00  1.00800000E+00  1.60000000E+01  1.00800000E+00
  1.00800000E+00  1.60000000E+01  1.00800000E+00  1.00800000E+00  1.60000000E+01
  1.00800000E+00  1.00800000E+00  1.60000000E+01  1.00800000E+00  1.00800000E+00
  1.60000000E+01  1.00800000E+00  1.00800000E+00  1.60000000E+01  1.00800000E+00
  1.00800000E+00  1.60000000E+01  1.00800000E+00  1.00800000E+00  1.60000000E+01
  1.00800000E+00  1.00800000E+00  1.60000000E+01  1.00800000E+00  1.00800000E+00
  1.60000000E+01  1.00800000E+00  1.00800000E+00  1.60000000E+01  1.00800000E+00
  1.00800000E+00  1.60000000E+01  1.00800000E+00  1.00800000E+00  1.60000000E+01
  1.00800000E+00  1.00800000E+00  1.60000000E+01  1.00800000E+00  1.00800000E+00
  1.60000000E+01  1.00800000E+00  1.00800000E+00  1.60000000E+01  1.00800000E+00
  1.00800000E+00  1.60000000E+01  1.00800000E+00  1.00800000E+00  1.60000000E+01
  1.00800000E+00  1.00800000E+00  1.60000000E+01  1.00800000E+00  1.00800000E+00
  1.60000000E+01  1.00800000E+00  1.00800000E+00  1.60000000E+01  1.00800000E+00
  1.00800000E+00  1.60000000E+01  1.00800000E+00  1.00800000E+00  1.60000000E+01
  1.00800000E+00  1.00800000E+00  1.60000000E+01  1.00800000E+00  1.00800000E+00
  1.60000000E+01  1.00800000E+00  1.00800000E+00  1.60000000E+01  1.00800000E+00
  1.00800000E+00  1.60000000E+01  1.00800000E+00  1.00800000E+00  1.60000000E+01
  1.00800000E+00  1.00800000E+00  1.60000000E+01  1.00800000E+00  1.00800000E+00
  1.60000000E+01  1.00800000E+00  1.00800000E+00  1.60000000E+01  1.00800000E+00
  1.00800000E+00  1.60000000E+01  1.00800000E+00  1.00800000E+00  1.60000000E+01
  1.00800000E+00  1.00800000E+00  1.60000000E+01  1.00800000E+00  1.00800000E+00
  1.60000000E+01  1.00800000E+00  1.00800000E+00  1.60000000E+01  1.00800000E+00
  1.00800000E+00  1.60000000E+01  1.00800000E+00  1.00800000E+00  1.60000000E+01
  1.00800000E+00  1.00800000E+00  1.60000000E+01  1.00800000E+00  1.00800000E+00
  1.60000000E+01  1.00800000E+00  1.00800000E+00  1.60000000E+01  1.00800000E+00
  1.00800000E+00  1.60000000E+01  1.00800000E+00  1.00800000E+00  1.60000000E+01
  1.00800000E+00  1.00800000E+00  1.60000000E+01  1.00800000E+00  1.00800000E+00
  1.60000000E+01  1.00800000E+00  1.00800000E+00  1.60000000E+01  1.00800000E+00
  1.00800000E+00  1.60000000E+01  1.00800000E+00  1.00800000E+00  1.60000000E+01
  1.00800000E+00  1.00800000E+00  1.60000000E+01  1.00800000E+00  1.00800000E+00
  1.60000000E+01  1.00800000E+00  1.00800000E+00  1.60000000E+01  1.00800000E+00
  1.00800000E+00  1.60000000E+01  1.00800000E+00  1.00800000E+00  1.60000000E+01
  1.00800000E+00  1.00800000E+00  1.60000000E+01  1.00800000E+00  1.00800000E+00
  1.60000000E+01  1.00800000E+00  1.00800000E+00  1.60000000E+01  1.00800000E+00
  1.00800000E+00  1.60000000E+01  1.00800000E+00  1.00800000E+00  1.60000000E+01
  1.00800000E+00  1.00800000E+00  1.60000000E+01  1.00800000E+00  1.00800000E+00
  1.60000000E+01  1.00800000E+00  1.00800000E+00  1.60000000E+01  1.00800000E+00
  1.00800000E+00  1.60000000E+01  1.00800000E+00  1.00800000E+00  1.60000000E+01
  1.00800000E+00  1.00800000E+00  1.60000000E+01  1.00800000E+00  1.00800000E+00
  1.60000000E+01  1.00800000E+00  1.00800000E+00  1.60000000E+01  1.00800000E+00
  1.00800000E+00  1.60000000E+01  1.00800000E+00  1.00800000E+00  1.60000000E+01
  1.00800000E+00  1.00800000E+00  1.60000000E+01  1.00800000E+00  1.00800000E+00
  1.60000000E+01  1.00800000E+00  1.00800000E+00  1.60000000E+01  1.00800000E+00
  1.00800000E+00  1.60000000E+01  1.00800000E+00  1.00800000E+00  1.60000000E+01
  1.00800000E+00  1.00800000E+00  1.60000000E+01  1.00800000E+00  1.00800000E+00
  1.60000000E+01  1.00800000E+00  1.00800000E+00  1.60000000E+01  1.00800000E+00
  1.00800000E+00  1.60000000E+01  1.00800000E+00  1.00800000E+00  1.60000000E+01
  1.00800000E+00  1.00800000E+00  1.60000000E+01  1.00800000E+00  1.00800000E+00
  1.60000000E+01  1.00800000E+00  1.00800000E+00  1.60000000E+01  1.00800000E+00
  1.00800000E+00  1.60000000E+01  1.00800000E+00  1.00800000E+00  1.60000000E+01
  1.00800000E+00  1.00800000E+00  1.60000000E+01  1.00800000E+00  1.00800000E+00
  1.60000000E+01  1.00800000E+00  1.00800000E+00  1.60000000E+01  1.00800000E+00
  1.00800000E+00  1.60000000E+01  1.00800000E+00  1.00800000E+00  1.60000000E+01
  1.00800000E+00  1.00800000E+00  1.60000000E+01  1.00800000E+00  1.00800000E+00
  1.60000000E+01  1.00800000E+00  1.00800000E+00  1.60000000E+01  1.00800000E+00
  1.00800000E+00  1.60000000E+01  1.00800000E+00  1.00800000E+00  1.60000000E+01
  1.00800000E+00  1.00800000E+00  1.60000000E+01  1.00800000E+00  1.00800000E+00
  1.60000000E+01  1.00800000E+00  1.00800000E+00  1.60000000E+01  1.00800000E+00
  1.00800000E+00  1.60000000E+01  1.00800000E+00  1.00800000E+00  1.60000000E+01
  1.00800000E+00  1.00800000E+00  1.60000000E+01  1.00800000E+00  1.00800000E+00
  1.60000000E+01  1.00800000E+00  1.00800000E+00  1.60000000E+01  1.00800000E+00
  1.00800000E+00  1.60000000E+01  1.00800000E+00  1.00800000E+00  1.60000000E+01
  1.00800000E+00  1.00800000E+00  1.60000000E+01  1.00800000E+00  1.00800000E+00
  1.60000000E+01  1.00800000E+00  1.00800000E+00  1.60000000E+01  1.00800000E+00
  1.00800000E+00  1.60000000E+01  1.00800000E+00  1.00800000E+00  1.60000000E+01
  1.00800000E+00  1.00800000E+00  1.60000000E+01  1.00800000E+00  1.00800000E+00
  1.60000000E+01  1.00800000E+00  1.00800000E+00  1.60000000E+01  1.00800000E+00
  1.00800000E+00  1.60000000E+01  1.00800000E+00  1.00800000E+00  1.60000000E+01
  1.00800000E+00  1.00800000E+00  1.60000000E+01  1.00800000E+00  1.00800000E+00
  1.60000000E+01  1.00800000E+00  1.00800000E+00  1.60000000E+01  1.00800000E+00
  1.00800000E+00  1.60000000E+01  1.00800000E+00  1.00800000E+00  1.60000000E+01
  1.00800000E+00  1.00800000E+00  1.60000000E+01  1.00800000E+00  1.00800000E+00
  1.60000000E+01  1.00800000E+00  1.00800000E+00  1.60000000E+01  1.00800000E+00
  1.00800000E+00  1.60000000E+01  1.00800000E+00  1.00800000E+00  1.60000000E+01
  1.00800000E+00  1.00800000E+00  1.60000000E+01  1.00800000E+00  1.00800000E+00
  1.60000000E+01  1.00800000E+00  1.00800000E+00  1.60000000E+01  1.00800000E+00
  1.00800000E+00  1.60000000E+01  1.00800000E+00  1.00800000E+00  1.60000000E+01
  1.00800000E+00  1.00800000E+00  1.60000000E+01  1.00800000E+00  1.00800000E+00
  1.60000000E+01  1.00800000E+00  1.00800000E+00  1.60000000E+01  1.00800000E+00
  1.00800000E+00  1.60000000E+01  1.00800000E+00  1.00800000E+00  1.60000000E+01
  1.00800000E+00  1.00800000E+00  1.60000000E+01  1.00800000E+00  1.00800000E+00
  1.60000000E+01  1.00800000E+00  1.00800000E+00  1.60000000E+01  1.00800000E+00
  1.00800000E+00  1.60000000E+01  1.00800000E+00  1.00800000E+00  1.60000000E+01
  1.00800000E+00  1.00800000E+00  1.60000000E+01  1.00800000E+00  1.00800000E+00
  1.60000000E+01  1.00800000E+00  1.00800000E+00  1.60000000E+01  1.00800000E+00
  1.00800000E+00  1.60000000E+01  1.00800000E+00  1.00800000E+00  1.60000000E+01
  1.00800000E+00  1.00800000E+00  1.60000000E+01  1.00800000E+00  1.00800000E+00
  1.60000000E+01  1.00800000E+00  1.00800000E+00  1.60000000E+01  1.00800000E+00
  1.00800000E+00  1.60000000E+01  1.00800000E+00  1.00800000E+00  1.60000000E+01
  1.00800000E+00  1.00800000E+00  1.60000000E+01  1.00800000E+00  1.00800000E+00
  1.60000000E+01  1.00800000E+00  1.00800000E+00  1.60000000E+01  1.00800000E+00
  1.00800000E+00  1.60000000E+01  1.00800000E+00  1.00800000E+00  1.60000000E+01
  1.00800000E+00  1.00800000E+00  1.60000000E+01  1.00800000E+00  1.00800000E+00
  1.60000000E+01  1.00800000E+00  1.00800000E+00  1.60000000E+01  1.00800000E+00
  1.00800000E+00  1.60000000E+01  1.00800000E+00  1.00800000E+00  1.60000000E+01
  1.00800000E+00  1.00800000E+00  1.60000000E+01  1.00800000E+00  1.00800000E+00
  1.60000000E+01  1.00800000E+00  1.00800000E+00  1.60000000E+01  1.00800000E+00
  1.00800000E+00  1.60000000E+01  1.00800000E+00  1.00800000E+00  1.60000000E+01
  1.00800000E+00  1.00800000E+00  1.60000000E+01  1.00800000E+00  1.00800000E+00
  1.60000000E+01  1.00800000E+00  1.00800000E+00  1.60000000E+01  1.00800000E+00
  1.00800000E+00  1.60000000E+01  1.00800000E+00  1.00800000E+00  1.60000000E+01
  1.00800000E+00  1.00800000E+00  1.60000000E+01  1.00800000E+00  1.00800000E+00
  1.60000000E+01  1.00800000E+00  1.00800000E+00  1.60000000E+01  1.00800000E+00
  1.00800000E+00  1.60000000E+01  1.00800000E+00  1.00800000E+00  1.60000000E+01
  1.00800000E+00  1.00800000E+00  1.60000000E+01  1.00800000E+00  1.00800000E+00
  1.60000000E+01  1.00800000E+00  1.00800000E+00  1.60000000E+01  1.00800000E+00
  1.00800000E+00  1.60000000E+01  1.00800000E+00  1.00800000E+00  1.60000000E+01
  1.00800000E+00  1.00800000E+00  1.60000000E+01  1.00800000E+00  1.00800000E+00
  1.60000000E+01  1.00800000E+00  1.00800000E+00  1.60000000E+01  1.00800000E+00
  1.00800000E+00  1.60000000E+01  1.00800000E+00  1.00800000E+00  1.60000000E+01
  1.00800000E+00  1.00800000E+00  1.60000000E+01  1.00800000E+00  1.00800000E+00
  1.60000000E+01  1.00800000E+00  1.00800000E+00  1.60000000E+01  1.00800000E+00
  1.00800000E+00  1.60000000E+01  1.00800000E+00  1.00800000E+00  1.60000000E+01
  1.00800000E+00  1.00800000E+00  1.60000000E+01  1.00800000E+00  1.00800000E+00
  1.60000000E+01  1.00800000E+00  1.00800000E+00  1.60000000E+01  1.00800000E+00
  1.00800000E+00  1.60000000E+01  1.00800000E+00  1.00800000E+00  1.60000000E+01
  1.00800000E+00  1.00800000E+00  1.60000000E+01  1.00800000E+00  1.00800000E+00
  1.60000000E+01  1.00800000E+00  1.00800000E+00  1.60000000E+01  1.00800000E+00
  1.00800000E+00  1.60000000E+01  1.00800000E+00  1.00800000E+00  1.60000000E+01
  1.00800000E+00  1.00800000E+00  1.60000000E+01  1.00800000E+00  1.00800000E+00
  1.60000000E+01  1.00800000E+00  1.00800000E+00  1.60000000E+01  1.00800000E+00
  1.00800000E+00  1.60000000E+01  1.00800000E+00  1.00800000E+00  1.60000000E+01
  1.00800000E+00  1.00800000E+00  1.60000000E+01  1.00800000E+00  1.00800000E+00
  1.60000000E+01  1.00800000E+00  1.00800000E+00  1.60000000E+01  1.00800000E+00
  1.00800000E+00  1.60000000E+01  1.00800000E+00  1.00800000E+00  1.60000000E+01
  1.00800000E+00  1.00800000E+00  1.60000000E+01  1.00800000E+00  1.00800000E+00
  1.60000000E+01  1.00800000E+00  1.00800000E+00  1.60000000E+01  1.00800000E+00
  1.00800000E+00  1.60000000E+01  1.00800000E+00  1.00800000E+00  1.60000000E+01
  1.00800000E+00  1.00800000E+00  1.60000000E+01  1.00800000E+00  1.00800000E+00
  1.60000000E+01  1.00800000E+00  1.00800000E+00  1.60000000E+01  1.00800000E+00
  1.00800000E+00  1.60000000E+01  1.00800000E+00  1.00800000E+00  1.60000000E+01
  1.00800000E+00  1.00800000E+00  1.60000000E+01  1.00800000E+00  1.00800000E+00
  1.60000000E+01  1.00800000E+00  1.00800000E+00  1.60000000E+01  1.00800000E+00
  1.00800000E+00  1.60000000E+01  1.00800000E+00  1.00800000E+00  1.60000000E+01
  1.00800000E+00  1.00800000E+00  1.60000000E+01  1.00800000E+00  1.00800000E+00
  1.60000000E+01  1.00800000E+00  1.00800000E+00  1.60000000E+01  1.00800000E+00
  1.00800000E+00  1.60000000E+01  1.00800000E+00  1.00800000E+00  1.60000000E+01
  1.00800000E+00  1.00800000E+00  1.60000000E+01  1.00800000E+00  1.00800000E+00
  1.60000000E+01  1.00800000E+00  1.00800000E+00  1.60000000E+01  1.00800000E+00
  1.00800000E+00  1.60000000E+01  1.00800000E+00  1.00800000E+00  1.60000000E+01
  1.00800000E+00  1.00800000E+00  1.60000000E+01  1.00800000E+00  1.00800000E+00
  1.60000000E+01  1.00800000E+00  1.00800000E+00  1.60000000E+01  1.00800000E+00
  1.00800000E+00  1.60000000E+01  1.00800000E+00  1.00800000E+00  1.60000000E+01
  1.00800000E+00  1.00800000E+00  1.60000000E+01  1.00800000E+00  1.00800000E+00
  1.60000000E+01  1.00800000E+00  1.00800000E+00  1.60000000E+01  1.00800000E+00
  1.00800000E+00  1.60000000E+01  1.00800000E+00  1.00800000E+00  1.60000000E+01
  1.00800000E+00  1.00800000E+00  1.60000000E+01  1.00800000E+00  1.00800000E+00
  1.60000000E+01  1.00800000E+00  1.00800000E+00  1.60000000E+01  1.00800000E+00
  1.00800000E+00  1.60000000E+01  1.00800000E+00  1.00800000E+00  1.60000000E+01
  1.00800000E+00  1.00800000E+00  1.60000000E+01  1.00800000E+00  1.00800000E+00
  1.60000000E+01  1.00800000E+00  1.00800000E+00  1.60000000E+01  1.00800000E+00
  1.00800000E+00  1.60000000E+01  1.00800000E+00  1.00800000E+00  1.60000000E+01
  1.00800000E+00  1.00800000E+00  1.60000000E+01  1.00800000E+00  1.00800000E+00
  1.60000000E+01  1.00800000E+00  1.00800000E+00  1.60000000E+01  1.00800000E+00
  1.00800000E+00  1.60000000E+01  1.00800000E+00  1.00800000E+00  1.60000000E+01
  1.00800000E+00  1.00800000E+00  1.60000000E+01  1.00800000E+00  1.00800000E+00
  1.60000000E+01  1.00800000E+00  1.00800000E+00  1.60000000E+01  1.00800000E+00
  1.00800000E+00  1.60000000E+01  1.00800000E+00  1.00800000E+00  1.60000000E+01
  1.00800000E+00  1.00800000E+00  1.60000000E+01  1.00800000E+00  1.00800000E+00
  1.60000000E+01  1.00800000E+00  1.00800000E+00  1.60000000E+01  1.00800000E+00
  1.00800000E+00  1.60000000E+01  1.00800000E+00  1.00800000E+00  1.60000000E+01
  1.00800000E+00  1.00800000E+00  1.60000000E+01  1.00800000E+00  1.00800000E+00
  1.60000000E+01  1.00800000E+00  1.00800000E+00  1.60000000E+01  1.00800000E+00
  1.00800000E+00  1.60000000E+01  1.00800000E+00  1.00800000E+00  1.60000000E+01
  1.00800000E+00  1.00800000E+00  1.60000000E+01  1.00800000E+00  1.00800000E+00
  1.60000000E+01  1.00800000E+00  1.00800000E+00  1.60000000E+01  1.00800000E+00
  1.00800000E+00  1.60000000E+01  1.00800000E+00  1.00800000E+00  1.60000000E+01
  1.00800000E+00  1.00800000E+00  1.60000000E+01  1.00800000E+00  1.00800000E+00
  1.60000000E+01  1.00800000E+00  1.00800000E+00  1.60000000E+01  1.00800000E+00
  1.00800000E+00  1.60000000E+01  1.00800000E+00  1.00800000E+00  1.60000000E+01
  1.00800000E+00  1.00800000E+00  1.60000000E+01  1.00800000E+00  1.00800000E+00
  1.60000000E+01  1.00800000E+00  1.00800000E+00  1.60000000E+01  1.00800000E+00
  1.00800000E+00  1.60000000E+01  1.00800000E+00  1.00800000E+00  1.60000000E+01
  1.00800000E+00  1.00800000E+00  1.60000000E+01  1.00800000E+00  1.00800000E+00
  1.60000000E+01  1.00800000E+00  1.00800000E+00  1.60000000E+01  1.00800000E+00
  1.00800000E+00  1.60000000E+01  1.00800000E+00  1.00800000E+00  1.60000000E+01
  1.00800000E+00  1.00800000E+00  1.60000000E+01  1.00800000E+00  1.00800000E+00
  1.60000000E+01  1.00800000E+00  1.00800000E+00  1.60000000E+01  1.00800000E+00
  1.00800000E+00  1.60000000E+01  1.00800000E+00  1.00800000E+00  1.60000000E+01
  1.00800000E+00  1.00800000E+00  1.60000000E+01  1.00800000E+00  1.00800000E+00
  1.60000000E+01  1.00800000E+00  1.00800000E+00  1.60000000E+01  1.00800000E+00
  1.00800000E+00  1.60000000E+01  1.00800000E+00  1.00800000E+00  1.60000000E+01
  1.00800000E+00  1.00800000E+00  1.60000000E+01  1.00800000E+00  1.00800000E+00
  1.60000000E+01  1.00800000E+00  1.00800000E+00  1.60000000E+01  1.00800000E+00
  1.00800000E+00  1.60000000E+01  1.00800000E+00  1.00800000E+00  1.60000000E+01
  1.00800000E+00  1.00800000E+00  1.60000000E+01  1.00800000E+00  1.00800000E+00
  1.60000000E+01  1.00800000E+00  1.00800000E+00  1.60000000E+01  1.00800000E+00
  1.00800000E+00  1.60000000E+01  1.00800000E+00  1.00800000E+00  1.60000000E+01
  1.00800000E+00  1.00800000E+00  1.60000000E+01  1.00800000E+00  1.00800000E+00
  1.60000000E+01  1.00800000E+00  1.00800000E+00  1.60000000E+01  1.00800000E+00
  1.00800000E+00  1.60000000E+01  1.00800000E+00  1.00800000E+00  1.60000000E+01
  1.00800000E+00  1.00800000E+00  1.60000000E+01  1.00800000E+00  1.00800000E+00
  1.60000000E+01  1.00800000E+00  1.00800000E+00  1.60000000E+01  1.00800000E+00
  1.00800000E+00  1.60000000E+01  1.00800000E+00  1.00800000E+00  1.60000000E+01
  1.00800000E+00  1.00800000E+00  1.60000000E+01  1.00800000E+00  1.00800000E+00
  1.60000000E+01  1.00800000E+00  1.00800000E+00  1.60000000E+01  1.00800000E+00
  1.00800000E+00  1.60000000E+01  1.00800000E+00  1.00800000E+00  1.60000000E+01
  1.00800000E+00  1.00800000E+00  1.60000000E+01  1.00800000E+00  1.00800000E+00
  1.60000000E+01  1.00800000E+00  1.00800000E+00  1.60000000E+01  1.00800000E+00
  1.00800000E+00  1.60000000E+01  1.00800000E+00  1.00800000E+00  1.60000000E+01
  1.00800000E+00  1.00800000E+00  1.60000000E+01  1.00800000E+00  1.00800000E+00
  1.60000000E+01  1.00800000E+00  1.00800000E+00  1.60000000E+01  1.00800000E+00
  1.00800000E+00  1.60000000E+01  1.00800000E+00  1.00800000E+00  1.60000000E+01
  1.00800000E+00  1.00800000E+00  1.60000000E+01  1.00800000E+00  1.00800000E+00
  1.60000000E+01  1.00800000E+00  1.00800000E+00  1.60000000E+01  1.00800000E+00
  1.00800000E+00  1.60000000E+01  1.00800000E+00  1.00800000E+00  1.60000000E+01
  1.00800000E+00  1.00800000E+00  1.60000000E+01  1.00800000E+00  1.00800000E+00
  1.60000000E+01  1.00800000E+00  1.00800000E+00  1.60000000E+01  1.00800000E+00
  1.00800000E+00  1.60000000E+01  1.00800000E+00  1.00800000E+00  1.60000000E+01
  1.00800000E+00  1.00800000E+00  1.60000000E+01  1.00800000E+00  1.00800000E+00
  1.60000000E+01  1.00800000E+00  1.00800000E+00  1.60000000E+01  1.00800000E+00
  1.00800000E+00  1.60000000E+01  1.00800000E+00  1.00800000E+00  1.60000000E+01
  1.00800000E+00  1.00800000E+00  1.60000000E+01  1.00800000E+00  1.00800000E+00
  1.60000000E+01  1.00800000E+00  1.00800000E+00  1.60000000E+01  1.00800000E+00
  1.00800000E+00  1.60000000E+01  1.00800000E+00  1.00800000E+00  1.60000000E+01
  1.00800000E+00  1.00800000E+00  1.60000000E+01  1.00800000E+00  1.00800000E+00
  1.60000000E+01  1.00800000E+00  1.00800000E+00  1.60000000E+01  1.00800000E+00
  1.00800000E+00  1.60000000E+01  1.00800000E+00  1.00800000E+00  1.60000000E+01
  1.00800000E+00  1.00800000E+00  1.60000000E+01  1.00800000E+00  1.00800000E+00
  1.60000000E+01  1.00800000E+00  1.00800000E+00  1.60000000E+01  1.00800000E+00
  1.00800000E+00  1.60000000E+01  1.00800000E+00  1.00800000E+00  1.60000000E+01
  1.00800000E+00  1.00800000E+00  1.60000000E+01  1.00800000E+00  1.00800000E+00
  1.60000000E+01  1.00800000E+00  1.00800000E+00  1.60000000E+01  1.00800000E+00
  1.00800000E+00  1.60000000E+01  1.00800000E+00  1.00800000E+00  1.60000000E+01
  1.00800000E+00  1.00800000E+00  1.60000000E+01  1.00800000E+00  1.00800000E+00
  1.60000000E+01  1.00800000E+00  1.00800000E+00  1.60000000E+01  1.00800000E+00
  1.00800000E+00  1.60000000E+01  1.00800000E+00  1.00800000E+00  1.60000000E+01
  1.00800000E+00  1.00800000E+00  1.60000000E+01  1.00800000E+00  1.00800000E+00
  1.60000000E+01  1.00800000E+00  1.00800000E+00  1.60000000E+01  1.00800000E+00
  1.00800000E+00  1.60000000E+01  1.00800000E+00  1.00800000E+00  1.60000000E+01
  1.00800000E+00  1.00800000E+00  1.60000000E+01  1.00800000E+00  1.00800000E+00
  1.60000000E+01  1.00800000E+00  1.00800000E+00  1.60000000E+01  1.00800000E+00
  1.00800000E+00  1.60000000E+01  1.00800000E+00  1.00800000E+00  1.60000000E+01
  1.00800000E+00  1.00800000E+00  1.60000000E+01  1.00800000E+00  1.00800000E+00
  1.60000000E+01  1.00800000E+00  1.00800000E+00  1.60000000E+01  1.00800000E+00
  1.00800000E+00  1.60000000E+01  1.00800000E+00  1.00800000E+00  1.60000000E+01
  1.00800000E+00  1.00800000E+00  1.60000000E+01  1.00800000E+00  1.00800000E+00
  1.60000000E+01  1.00800000E+00  1.00800000E+00  1.60000000E+01  1.00800000E+00
  1.00800000E+00  1.60000000E+01  1.00800000E+00  1.00800000E+00  1.60000000E+01
  1.00800000E+00  1.00800000E+00  1.60000000E+01  1.00800000E+00  1.00800000E+00
  1.60000000E+01  1.00800000E+00  1.00800000E+00  1.60000000E+01  1.00800000E+00
  1.00800000E+00  1.60000000E+01  1.00800000E+00  1.00800000E+00  1.60000000E+01
  1.00800000E+00  1.00800000E+00  1.60000000E+01  1.00800000E+00  1.00800000E+00
  1.60000000E+01  1.00800000E+00  1.00800000E+00  1.60000000E+01  1.00800000E+00
  1.00800000E+00  1.60000000E+01  1.00800000E+00  1.00800000E+00  1.60000000E+01
  1.00800000E+00  1.00800000E+00  1.60000000E+01  1.00800000E+00  1.00800000E+00
  1.60000000E+01  1.00800000E+00  1.00800000E+00  1.60000000E+01  1.00800000E+00
  1.00800000E+00  1.60000000E+01  1.00800000E+00  1.00800000E+00  1.60000000E+01
  1.00800000E+00  1.00800000E+00  1.60000000E+01  1.00800000E+00  1.00800000E+00
  1.60000000E+01  1.00800000E+00  1.00800000E+00  1.60000000E+01  1.00800000E+00
  1.00800000E+00  1.60000000E+01  1.00800000E+00  1.00800000E+00  1.60000000E+01
  1.00800000E+00  1.00800000E+00  1.60000000E+01  1.00800000E+00  1.00800000E+00
  1.60000000E+01  1.00800000E+00  1.00800000E+00  1.60000000E+01  1.00800000E+00
  1.00800000E+00  1.60000000E+01  1.00800000E+00  1.00800000E+00  1.60000000E+01
  1.00800000E+00  1.00800000E+00  1.60000000E+01  1.00800000E+00  1.00800000E+00
  1.60000000E+01  1.00800000E+00  1.00800000E+00  1.60000000E+01  1.00800000E+00
  1.00800000E+00  1.60000000E+01  1.00800000E+00  1.00800000E+00  1.60000000E+01
  1.00800000E+00  1.00800000E+00  1.60000000E+01  1.00800000E+00  1.00800000E+00
  1.60000000E+01  1.00800000E+00  1.00800000E+00  1.60000000E+01  1.00800000E+00
  1.00800000E+00  1.60000000E+01  1.00800000E+00  1.00800000E+00  1.60000000E+01
  1.00800000E+00  1.00800000E+00  1.60000000E+01  1.00800000E+00  1.00800000E+00
  1.60000000E+01  1.00800000E+00  1.00800000E+00  1.60000000E+01  1.00800000E+00
  1.00800000E+00  1.60000000E+01  1.00800000E+00  1.00800000E+00  1.60000000E+01
  1.00800000E+00  1.00800000E+00  1.60000000E+01  1.00800000E+00  1.00800000E+00
  1.60000000E+01  1.00800000E+00  1.00800000E+00  1.60000000E+01  1.00800000E+00
  1.00800000E+00  1.60000000E+01  1.00800000E+00  1.00800000E+00  1.60000000E+01
  1.00800000E+00  1.00800000E+00  1.60000000E+01  1.00800000E+00  1.00800000E+00
  1.60000000E+01  1.00800000E+00  1.00800000E+00  1.60000000E+01  1.00800000E+00
  1.00800000E+00  1.60000000E+01  1.00800000E+00  1.00800000E+00  1.60000000E+01
  1.00800000E+00  1.00800000E+00  1.60000000E+01  1.00800000E+00  1.00800000E+00
  1.60000000E+01  1.00800000E+00  1.00800000E+00  1.60000000E+01  1.00800000E+00
  1.00800000E+00  1.60000000E+01  1.00800000E+00  1.00800000E+00  1.60000000E+01
  1.00800000E+00  1.00800000E+00  1.60000000E+01  1.00800000E+00  1.00800000E+00
  1.60000000E+01  1.00800000E+00  1.00800000E+00  1.60000000E+01  1.00800000E+00
  1.00800000E+00  1.60000000E+01  1.00800000E+00  1.00800000E+00  1.60000000E+01
  1.00800000E+00  1.00800000E+00  1.60000000E+01  1.00800000E+00  1.00800000E+00
  1.60000000E+01  1.00800000E+00  1.00800000E+00  1.60000000E+01  1.00800000E+00
  1.00800000E+00  1.60000000E+01  1.00800000E+00  1.00800000E+00  1.60000000E+01
  1.00800000E+00  1.00800000E+00  1.60000000E+01  1.00800000E+00  1.00800000E+00
  1.60000000E+01  1.00800000E+00  1.00800000E+00  1.60000000E+01  1.00800000E+00
  1.00800000E+00  1.60000000E+01  1.00800000E+00  1.00800000E+00  1.60000000E+01
  1.00800000E+00  1.00800000E+00  1.60000000E+01  1.00800000E+00  1.00800000E+00
  1.60000000E+01  1.00800000E+00  1.00800000E+00  1.60000000E+01  1.00800000E+00
  1.00800000E+00  1.60000000E+01  1.00800000E+00  1.00800000E+00  1.60000000E+01
  1.00800000E+00  1.00800000E+00  1.60000000E+01  1.00800000E+00  1.00800000E+00
  1.60000000E+01  1.00800000E+00  1.00800000E+00  1.60000000E+01  1.00800000E+00
  1.00800000E+00  1.60000000E+01  1.00800000E+00  1.00800000E+00  1.60000000E+01
  1.00800000E+00  1.00800000E+00  1.60000000E+01  1.00800000E+00  1.00800000E+00
  1.60000000E+01  1.00800000E+00  1.00800000E+00  1.60000000E+01  1.00800000E+00
  1.00800000E+00  1.60000000E+01  1.00800000E+00  1.00800000E+00  1.60000000E+01
  1.00800000E+00  1.00800000E+00  1.60000000E+01  1.00800000E+00  1.00800000E+00
  1.60000000E+01  1.00800000E+00  1.00800000E+00  1.60000000E+01  1.00800000E+00
  1.00800000E+00  1.60000000E+01  1.00800000E+00  1.00800000E+00  1.60000000E+01
  1.00800000E+00  1.00800000E+00  1.60000000E+01  1.00800000E+00  1.00800000E+00
  1.60000000E+01  1.00800000E+00  1.00800000E+00  1.60000000E+01  1.00800000E+00
  1.00800000E+00  1.60000000E+01  1.00800000E+00  1.00800000E+00  1.60000000E+01
  1.00800000E+00  1.00800000E+00  1.60000000E+01  1.00800000E+00  1.00800000E+00
  1.60000000E+01  1.00800000E+00  1.00800000E+00  1.60000000E+01  1.00800000E+00
  1.00800000E+00  1.60000000E+01  1.00800000E+00  1.00800000E+00  1.60000000E+01
  1.00800000E+00  1.00800000E+00  1.60000000E+01  1.00800000E+00  1.00800000E+00
  1.60000000E+01  1.00800000E+00  1.00800000E+00  1.60000000E+01  1.00800000E+00
  1.00800000E+00  1.60000000E+01  1.00800000E+00  1.00800000E+00  1.60000000E+01
  1.00800000E+00  1.00800000E+00  1.60000000E+01  1.00800000E+00  1.00800000E+00
  1.60000000E+01  1.00800000E+00  1.00800000E+00  1.60000000E+01  1.00800000E+00
  1.00800000E+00  1.60000000E+01  1.00800000E+00  1.00800000E+00  1.60000000E+01
  1.00800000E+00  1.00800000E+00  1.60000000E+01  1.00800000E+00  1.00800000E+00
  1.60000000E+01  1.00800000E+00  1.00800000E+00  1.60000000E+01  1.00800000E+00
  1.00800000E+00  1.60000000E+01  1.00800000E+00  1.00800000E+00  1.60000000E+01
  1.00800000E+00  1.00800000E+00  1.60000000E+01  1.00800000E+00  1.00800000E+00
  1.60000000E+01  1.00800000E+00  1.00800000E+00  1.60000000E+01  1.00800000E+00
  1.00800000E+00  1.60000000E+01  1.00800000E+00  1.00800000E+00  1.60000000E+01
  1.00800000E+00  1.00800000E+00  1.60000000E+01  1.00800000E+00  1.00800000E+00
  1.60000000E+01  1.00800000E+00  1.00800000E+00  1.60000000E+01  1.00800000E+00
  1.00800000E+00  1.60000000E+01  1.00800000E+00  1.00800000E+00  1.60000000E+01
  1.00800000E+00  1.00800000E+00  1.60000000E+01  1.00800000E+00  1.00800000E+00
  1.60000000E+01  1.00800000E+00  1.00800000E+00  1.60000000E+01  1.00800000E+00
  1.00800000E+00  1.60000000E+01  1.00800000E+00  1.00800000E+00  1.60000000E+01
  1.00800000E+00  1.00800000E+00  1.60000000E+01  1.00800000E+00  1.00800000E+00
  1.60000000E+01  1.00800000E+00  1.00800000E+00  1.60000000E+01  1.00800000E+00
  1.00800000E+00  1.60000000E+01  1.00800000E+00  1.00800000E+00  1.60000000E+01
  1.00800000E+00  1.00800000E+00  1.60000000E+01  1.00800000E+00  1.00800000E+00
  1.60000000E+01  1.00800000E+00  1.00800000E+00  1.60000000E+01  1.00800000E+00
  1.00800000E+00  1.60000000E+01  1.00800000E+00  1.00800000E+00  1.60000000E+01
  1.00800000E+00  1.00800000E+00  1.60000000E+01  1.00800000E+00  1.00800000E+00
  1.60000000E+01  1.00800000E+00  1.00800000E+00  1.60000000E+01  1.00800000E+00
  1.00800000E+00  1.60000000E+01  1.00800000E+00  1.00800000E+00  1.60000000E+01
  1.00800000E+00  1.00800000E+00  1.60000000E+01  1.00800000E+00  1.00800000E+00
  1.60000000E+01  1.00800000E+00  1.00800000E+00  1.60000000E+01  1.00800000E+00
  1.00800000E+00  1.60000000E+01  1.00800000E+00  1.00800000E+00  1.60000000E+01
  1.00800000E+00  1.00800000E+00  1.60000000E+01  1.00800000E+00  1.00800000E+00
  1.60000000E+01  1.00800000E+00  1.00800000E+00  1.60000000E+01  1.00800000E+00
  1.00800000E+00  1.60000000E+01  1.00800000E+00  1.00800000E+00  1.60000000E+01
  1.00800000E+00  1.00800000E+00  1.60000000E+01  1.00800000E+00  1.00800000E+00
  1.60000000E+01  1.00800000E+00  1.00800000E+00  1.60000000E+01  1.00800000E+00
  1.00800000E+00  1.60000000E+01  1.00800000E+00  1.00800000E+00  1.60000000E+01
  1.00800000E+00  1.00800000E+00  1.60000000E+01  1.00800000E+00  1.00800000E+00
  1.60000000E+01  1.00800000E+00  1.00800000E+00  1.60000000E+01  1.00800000E+00
  1.00800000E+00  1.60000000E+01  1.00800000E+00  1.00800000E+00  1.60000000E+01
  1.00800000E+00  1.00800000E+00  1.60000000E+01  1.00800000E+00  1.00800000E+00
  1.60000000E+01  1.00800000E+00  1.00800000E+00  1.60000000E+01  1.00800000E+00
  1.00800000E+00  1.60000000E+01  1.00800000E+00  1.00800000E+00  1.60000000E+01
  1.00800000E+00  1.00800000E+00  1.60000000E+01  1.00800000E+00  1.00800000E+00
  1.60000000E+01  1.00800000E+00  1.00800000E+00  1.60000000E+01  1.00800000E+00
  1.00800000E+00  1.60000000E+01  1.00800000E+00  1.00800000E+00  1.60000000E+01
  1.00800000E+00  1.00800000E+00  1.60000000E+01  1.00800000E+00  1.00800000E+00
  1.60000000E+01  1.00800000E+00  1.00800000E+00  1.60000000E+01  1.00800000E+00
  1.00800000E+00  1.60000000E+01  1.00800000E+00  1.00800000E+00  1.60000000E+01
  1.00800000E+00  1.00800000E+00  1.60000000E+01  1.00800000E+00  1.00800000E+00
  1.60000000E+01  1.00800000E+00  1.00800000E+00  1.60000000E+01  1.00800000E+00
  1.00800000E+00  1.60000000E+01  1.00800000E+00  1.00800000E+00  1.60000000E+01
  1.00800000E+00  1.00800000E+00  1.60000000E+01  1.00800000E+00  1.00800000E+00
  1.60000000E+01  1.00800000E+00  1.00800000E+00  1.60000000E+01  1.00800000E+00
  1.00800000E+00  1.60000000E+01  1.00800000E+00  1.00800000E+00  1.60000000E+01
  1.00800000E+00  1.00800000E+00  1.60000000E+01  1.00800000E+00  1.00800000E+00
  1.60000000E+01  1.00800000E+00  1.00800000E+00  1.60000000E+01  1.00800000E+00
  1.00800000E+00  1.60000000E+01  1.00800000E+00  1.00800000E+00  1.60000000E+01
  1.00800000E+00  1.00800000E+00  1.60000000E+01  1.00800000E+00  1.00800000E+00
  1.60000000E+01  1.00800000E+00  1.00800000E+00  1.60000000E+01  1.00800000E+00
  1.00800000E+00  1.60000000E+01  1.00800000E+00  1.00800000E+00  1.60000000E+01
  1.00800000E+00  1.00800000E+00  1.60000000E+01  1.00800000E+00  1.00800000E+00
  1.60000000E+01  1.00800000E+00  1.00800000E+00  1.60000000E+01  1.00800000E+00
  1.00800000E+00  1.60000000E+01  1.00800000E+00  1.00800000E+00  1.60000000E+01
  1.00800000E+00  1.00800000E+00  1.60000000E+01  1.00800000E+00  1.00800000E+00
  1.60000000E+01  1.00800000E+00  1.00800000E+00  1.60000000E+01  1.00800000E+00
  1.00800000E+00  1.60000000E+01  1.00800000E+00  1.00800000E+00  1.60000000E+01
  1.00800000E+00  1.00800000E+00  1.60000000E+01  1.00800000E+00  1.00800000E+00
  1.60000000E+01  1.00800000E+00  1.00800000E+00  1.60000000E+01  1.00800000E+00
  1.00800000E+00  1.60000000E+01  1.00800000E+00  1.00800000E+00  1.60000000E+01
  1.00800000E+00  1.00800000E+00  1.60000000E+01  1.00800000E+00  1.00800000E+00
  1.60000000E+01  1.00800000E+00  1.00800000E+00  1.60000000E+01  1.00800000E+00
  1.00800000E+00  1.60000000E+01  1.00800000E+00  1.00800000E+00  1.60000000E+01
  1.00800000E+00  1.00800000E+00  1.60000000E+01  1.00800000E+00  1.00800000E+00
  1.60000000E+01  1.00800000E+00  1.00800000E+00  1.60000000E+01  1.00800000E+00
  1.00800000E+00  1.60000000E+01  1.00800000E+00  1.00800000E+00  1.60000000E+01
  1.00800000E+00  1.00800000E+00  1.60000000E+01  1.00800000E+00  1.00800000E+00
  1.60000000E+01  1.00800000E+00  1.00800000E+00  1.60000000E+01  1.00800000E+00
  1.00800000E+00  1.60000000E+01  1.00800000E+00  1.00800000E+00  1.60000000E+01
  1.00800000E+00  1.00800000E+00  1.60000000E+01  1.00800000E+00  1.00800000E+00
  1.60000000E+01  1.00800000E+00  1.00800000E+00  1.60000000E+01  1.00800000E+00
  1.00800000E+00  1.60000000E+01  1.00800000E+00  1.00800000E+00  1.60000000E+01
  1.00800000E+00  1.00800000E+00  1.60000000E+01  1.00800000E+00  1.00800000E+00
  1.60000000E+01  1.00800000E+00  1.00800000E+00  1.60000000E+01  1.00800000E+00
  1.00800000E+00  1.60000000E+01  1.00800000E+00  1.00800000E+00  1.60000000E+01
  1.00800000E+00  1.00800000E+00  1.60000000E+01  1.00800000E+00  1.00800000E+00
  1.60000000E+01  1.00800000E+00  1.00800000E+00  1.60000000E+01  1.00800000E+00
  1.00800000E+00  1.60000000E+01  1.00800000E+00  1.00800000E+00  1.60000000E+01
  1.00800000E+00  1.00800000E+00  1.60000000E+01  1.00800000E+00  1.00800000E+00
  1.60000000E+01  1.00800000E+00  1.00800000E+00  1.60000000E+01  1.00800000E+00
  1.00800000E+00  1.60000000E+01  1.00800000E+00  1.00800000E+00  1.60000000E+01
  1.00800000E+00  1.00800000E+00  1.60000000E+01  1.00800000E+00  1.00800000E+00
  1.60000000E+01  1.00800000E+00  1.00800000E+00  1.60000000E+01  1.00800000E+00
  1.00800000E+00  1.60000000E+01  1.00800000E+00  1.00800000E+00  1.60000000E+01
  1.00800000E+00  1.00800000E+00  1.60000000E+01  1.00800000E+00  1.00800000E+00
  1.60000000E+01  1.00800000E+00  1.00800000E+00  1.60000000E+01  1.00800000E+00
  1.00800000E+00  1.60000000E+01  1.00800000E+00  1.00800000E+00  1.60000000E+01
  1.00800000E+00  1.00800000E+00  1.60000000E+01  1.00800000E+00  1.00800000E+00
  1.60000000E+01  1.00800000E+00  1.00800000E+00  1.60000000E+01  1.00800000E+00
  1.00800000E+00  1.60000000E+01  1.00800000E+00  1.00800000E+00  1.60000000E+01
  1.00800000E+00  1.00800000E+00  1.60000000E+01  1.00800000E+00  1.00800000E+00
  1.60000000E+01  1.00800000E+00  1.00800000E+00  1.60000000E+01  1.00800000E+00
  1.00800000E+00  1.60000000E+01  1.00800000E+00  1.00800000E+00  1.60000000E+01
  1.00800000E+00  1.00800000E+00  1.60000000E+01  1.00800000E+00  1.00800000E+00
  1.60000000E+01  1.00800000E+00  1.00800000E+00  1.60000000E+01  1.00800000E+00
  1.00800000E+00  1.60000000E+01  1.00800000E+00  1.00800000E+00  1.60000000E+01
  1.00800000E+00  1.00800000E+00  1.60000000E+01  1.00800000E+00  1.00800000E+00
  1.60000000E+01  1.00800000E+00  1.00800000E+00  1.60000000E+01  1.00800000E+00
  1.00800000E+00  1.60000000E+01  1.00800000E+00  1.00800000E+00  1.60000000E+01
  1.00800000E+00  1.00800000E+00  1.60000000E+01  1.00800000E+00  1.00800000E+00
  1.60000000E+01  1.00800000E+00  1.00800000E+00  1.60000000E+01  1.00800000E+00
  1.00800000E+00  1.60000000E+01  1.00800000E+00  1.00800000E+00  1.60000000E+01
  1.00800000E+00  1.00800000E+00  1.60000000E+01  1.00800000E+00  1.00800000E+00
  1.60000000E+01  1.00800000E+00  1.00800000E+00  1.60000000E+01  1.00800000E+00
  1.00800000E+00  1.60000000E+01  1.00800000E+00  1.00800000E+00  1.60000000E+01
  1.00800000E+00  1.00800000E+00  1.60000000E+01  1.00800000E+00  1.00800000E+00
  1.60000000E+01  1.00800000E+00  1.00800000E+00  1.60000000E+01  1.00800000E+00
  1.00800000E+00  1.60000000E+01  1.00800000E+00  1.00800000E+00  1.60000000E+01
  1.00800000E+00  1.00800000E+00  1.60000000E+01  1.00800000E+00  1.00800000E+00
  1.60000000E+01  1.00800000E+00  1.00800000E+00  1.60000000E+01  1.00800000E+00
  1.00800000E+00  1.60000000E+01  1.00800000E+00  1.00800000E+00  1.60000000E+01
  1.00800000E+00  1.00800000E+00  1.60000000E+01  1.00800000E+00  1.00800000E+00
  1.60000000E+01  1.00800000E+00  1.00800000E+00  1.60000000E+01  1.00800000E+00
  1.00800000E+00  1.60000000E+01  1.00800000E+00  1.00800000E+00  1.60000000E+01
  1.00800000E+00  1.00800000E+00  1.60000000E+01  1.00800000E+00  1.00800000E+00
  1.60000000E+01  1.00800000E+00  1.00800000E+00  1.60000000E+01  1.00800000E+00
  1.00800000E+00  1.60000000E+01  1.00800000E+00  1.00800000E+00  1.60000000E+01
  1.00800000E+00  1.00800000E+00  1.60000000E+01  1.00800000E+00  1.00800000E+00
  1.60000000E+01  1.00800000E+00  1.00800000E+00  1.60000000E+01  1.00800000E+00
  1.00800000E+00  1.60000000E+01  1.00800000E+00  1.00800000E+00  1.60000000E+01
  1.00800000E+00  1.00800000E+00  1.60000000E+01  1.00800000E+00  1.00800000E+00
  1.60000000E+01  1.00800000E+00  1.00800000E+00  1.60000000E+01  1.00800000E+00
  1.00800000E+00  1.60000000E+01  1.00800000E+00  1.00800000E+00  1.60000000E+01
  1.00800000E+00  1.00800000E+00  1.60000000E+01  1.00800000E+00  1.00800000E+00
  1.60000000E+01  1.00800000E+00  1.00800000E+00  1.60000000E+01  1.00800000E+00
  1.00800000E+00  1.60000000E+01  1.00800000E+00  1.00800000E+00  1.60000000E+01
  1.00800000E+00  1.00800000E+00  1.60000000E+01  1.00800000E+00  1.00800000E+00
  1.60000000E+01  1.00800000E+00  1.00800000E+00  1.60000000E+01  1.00800000E+00
  1.00800000E+00  1.60000000E+01  1.00800000E+00  1.00800000E+00  1.60000000E+01
  1.00800000E+00  1.00800000E+00  1.60000000E+01  1.00800000E+00  1.00800000E+00
  1.60000000E+01  1.00800000E+00  1.00800000E+00  1.60000000E+01  1.00800000E+00
  1.00800000E+00  1.60000000E+01  1.00800000E+00  1.00800000E+00  1.60000000E+01
  1.00800000E+00  1.00800000E+00  1.60000000E+01  1.00800000E+00  1.00800000E+00
  1.60000000E+01  1.00800000E+00  1.00800000E+00  1.60000000E+01  1.00800000E+00
  1.00800000E+00  1.60000000E+01  1.00800000E+00  1.00800000E+00  1.60000000E+01
  1.00800000E+00  1.00800000E+00  1.60000000E+01  1.00800000E+00  1.00800000E+00
  1.60000000E+01  1.00800000E+00  1.00800000E+00  1.60000000E+01  1.00800000E+00
  1.00800000E+00  1.60000000E+01  1.00800000E+00  1.00800000E+00  1.60000000E+01
  1.00800000E+00  1.00800000E+00  1.60000000E+01  1.00800000E+00  1.00800000E+00
  1.60000000E+01  1.00800000E+00  1.00800000E+00  1.60000000E+01  1.00800000E+00
  1.00800000E+00  1.60000000E+01  1.00800000E+00  1.00800000E+00  1.60000000E+01
  1.00800000E+00  1.00800000E+00  1.60000000E+01  1.00800000E+00  1.00800000E+00
  1.60000000E+01  1.00800000E+00  1.00800000E+00  1.60000000E+01  1.00800000E+00
  1.00800000E+00  1.60000000E+01  1.00800000E+00  1.00800000E+00  1.60000000E+01
  1.00800000E+00  1.00800000E+00  1.60000000E+01  1.00800000E+00  1.00800000E+00
  1.60000000E+01  1.00800000E+00  1.00800000E+00  1.60000000E+01  1.00800000E+00
  1.00800000E+00  1.60000000E+01  1.00800000E+00  1.00800000E+00  1.60000000E+01
  1.00800000E+00  1.00800000E+00  1.60000000E+01  1.00800000E+00  1.00800000E+00
  1.60000000E+01  1.00800000E+00  1.00800000E+00  1.60000000E+01  1.00800000E+00
  1.00800000E+00  1.60000000E+01  1.00800000E+00  1.00800000E+00  1.60000000E+01
  1.00800000E+00  1.00800000E+00  1.60000000E+01  1.00800000E+00  1.00800000E+00
  1.60000000E+01  1.00800000E+00  1.00800000E+00  1.60000000E+01  1.00800000E+00
  1.00800000E+00  1.60000000E+01  1.00800000E+00  1.00800000E+00  1.60000000E+01
  1.00800000E+00  1.00800000E+00  1.60000000E+01  1.00800000E+00  1.00800000E+00
  1.60000000E+01  1.00800000E+00  1.00800000E+00  1.60000000E+01  1.00800000E+00
  1.00800000E+00  1.60000000E+01  1.00800000E+00  1.00800000E+00  1.60000000E+01
  1.00800000E+00  1.00800000E+00  1.60000000E+01  1.00800000E+00  1.00800000E+00
  1.60000000E+01  1.00800000E+00  1.00800000E+00  1.60000000E+01  1.00800000E+00
  1.00800000E+00  1.60000000E+01  1.00800000E+00  1.00800000E+00  1.60000000E+01
  1.00800000E+00  1.00800000E+00  1.60000000E+01  1.00800000E+00  1.00800000E+00
  1.60000000E+01  1.00800000E+00  1.00800000E+00  1.60000000E+01  1.00800000E+00
  1.00800000E+00  1.60000000E+01  1.00800000E+00  1.00800000E+00  1.60000000E+01
  1.00800000E+00  1.00800000E+00  1.60000000E+01  1.00800000E+00  1.00800000E+00
  1.60000000E+01  1.00800000E+00  1.00800000E+00  1.60000000E+01  1.00800000E+00
  1.00800000E+00  1.60000000E+01  1.00800000E+00  1.00800000E+00  1.60000000E+01
  1.00800000E+00  1.00800000E+00  1.60000000E+01  1.00800000E+00  1.00800000E+00
  1.60000000E+01  1.00800000E+00  1.00800000E+00  1.60000000E+01  1.00800000E+00
  1.00800000E+00  1.60000000E+01  1.00800000E+00  1.00800000E+00  1.60000000E+01
  1.00800000E+00  1.00800000E+00  1.60000000E+01  1.00800000E+00  1.00800000E+00
  1.60000000E+01  1.00800000E+00  1.00800000E+00  1.60000000E+01  1.00800000E+00
  1.00800000E+00  1.60000000E+01  1.00800000E+00  1.00800000E+00  1.60000000E+01
  1.00800000E+00  1.00800000E+00  1.60000000E+01  1.00800000E+00  1.00800000E+00
  1.60000000E+01  1.00800000E+00  1.00800000E+00  1.60000000E+01  1.00800000E+00
  1.00800000E+00  1.60000000E+01  1.00800000E+00  1.00800000E+00  1.60000000E+01
  1.00800000E+00  1.00800000E+00  1.60000000E+01  1.00800000E+00  1.00800000E+00
  1.60000000E+01  1.00800000E+00  1.00800000E+00  1.60000000E+01  1.00800000E+00
  1.00800000E+00  1.60000000E+01  1.00800000E+00  1.00800000E+00  1.60000000E+01
  1.00800000E+00  1.00800000E+00  1.60000000E+01  1.00800000E+00  1.00800000E+00
  1.60000000E+01  1.00800000E+00  1.00800000E+00  1.60000000E+01  1.00800000E+00
  1.00800000E+00  1.60000000E+01  1.00800000E+00  1.00800000E+00  1.60000000E+01
  1.00800000E+00  1.00800000E+00  1.60000000E+01  1.00800000E+00  1.00800000E+00
  1.60000000E+01  1.00800000E+00  1.00800000E+00  1.60000000E+01  1.00800000E+00
  1.00800000E+00  1.60000000E+01  1.00800000E+00  1.00800000E+00  1.60000000E+01
  1.00800000E+00  1.00800000E+00  1.60000000E+01  1.00800000E+00  1.00800000E+00
  1.60000000E+01  1.00800000E+00  1.00800000E+00  1.60000000E+01  1.00800000E+00
  1.00800000E+00  1.60000000E+01  1.00800000E+00  1.00800000E+00  1.60000000E+01
  1.00800000E+00  1.00800000E+00  1.60000000E+01  1.00800000E+00  1.00800000E+00
  1.60000000E+01  1.00800000E+00  1.00800000E+00  1.60000000E+01  1.00800000E+00
  1.00800000E+00  1.60000000E+01  1.00800000E+00  1.00800000E+00  1.60000000E+01
  1.00800000E+00  1.00800000E+00  1.60000000E+01  1.00800000E+00  1.00800000E+00
  1.60000000E+01  1.00800000E+00  1.00800000E+00  1.60000000E+01  1.00800000E+00
  1.00800000E+00  1.60000000E+01  1.00800000E+00  1.00800000E+00  1.60000000E+01
  1.00800000E+00  1.00800000E+00  1.60000000E+01  1.00800000E+00  1.00800000E+00
  1.60000000E+01  1.00800000E+00  1.00800000E+00  1.60000000E+01  1.00800000E+00
  1.00800000E+00  1.60000000E+01  1.00800000E+00  1.00800000E+00  1.60000000E+01
  1.00800000E+00  1.00800000E+00  1.60000000E+01  1.00800000E+00  1.00800000E+00
  1.60000000E+01  1.00800000E+00  1.00800000E+00  1.60000000E+01  1.00800000E+00
  1.00800000E+00  1.60000000E+01  1.00800000E+00  1.00800000E+00  1.60000000E+01
  1.00800000E+00  1.00800000E+00  1.60000000E+01  1.00800000E+00  1.00800000E+00
  1.60000000E+01  1.00800000E+00  1.00800000E+00  1.60000000E+01  1.00800000E+00
  1.00800000E+00  1.60000000E+01  1.00800000E+00  1.00800000E+00  1.60000000E+01
  1.00800000E+00  1.00800000E+00  1.60000000E+01  1.00800000E+00  1.00800000E+00
  1.60000000E+01  1.00800000E+00  1.00800000E+00  1.60000000E+01  1.00800000E+00
  1.00800000E+00  1.60000000E+01  1.00800000E+00  1.00800000E+00  1.60000000E+01
  1.00800000E+00  1.00800000E+00  1.60000000E+01  1.00800000E+00  1.00800000E+00
  1.60000000E+01  1.00800000E+00  1.00800000E+00  1.60000000E+01  1.00800000E+00
  1.00800000E+00  1.60000000E+01  1.00800000E+00  1.00800000E+00  1.60000000E+01
  1.00800000E+00  1.00800000E+00  1.60000000E+01  1.00800000E+00  1.00800000E+00
  1.60000000E+01  1.00800000E+00  1.00800000E+00  1.60000000E+01  1.00800000E+00
  1.00800000E+00  1.60000000E+01  1.00800000E+00  1.00800000E+00  1.60000000E+01
  1.00800000E+00  1.00800000E+00  1.60000000E+01  1.00800000E+00  1.00800000E+00
  1.60000000E+01  1.00800000E+00  1.00800000E+00  1.60000000E+01  1.00800000E+00
  1.00800000E+00  1.60000000E+01  1.00800000E+00  1.00800000E+00  1.60000000E+01
  1.00800000E+00  1.00800000E+00  1.60000000E+01  1.00800000E+00  1.00800000E+00
  1.60000000E+01  1.00800000E+00  1.00800000E+00  1.60000000E+01  1.00800000E+00
  1.00800000E+00  1.60000000E+01  1.00800000E+00  1.00800000E+00  1.60000000E+01
  1.00800000E+00  1.00800000E+00  1.60000000E+01  1.00800000E+00  1.00800000E+00
  1.60000000E+01  1.00800000E+00  1.00800000E+00  1.60000000E+01  1.00800000E+00
  1.00800000E+00  1.60000000E+01  1.00800000E+00  1.00800000E+00  1.60000000E+01
  1.00800000E+00  1.00800000E+00  1.60000000E+01  1.00800000E+00  1.00800000E+00
  1.60000000E+01  1.00800000E+00  1.00800000E+00  1.60000000E+01  1.00800000E+00
  1.00800000E+00  1.60000000E+01  1.00800000E+00  1.00800000E+00  1.60000000E+01
  1.00800000E+00  1.00800000E+00  1.60000000E+01  1.00800000E+00  1.00800000E+00
  1.60000000E+01  1.00800000E+00  1.00800000E+00  1.60000000E+01  1.00800000E+00
  1.00800000E+00  1.60000000E+01  1.00800000E+00  1.00800000E+00  1.60000000E+01
  1.00800000E+00  1.00800000E+00  1.60000000E+01  1.00800000E+00  1.00800000E+00
  1.60000000E+01  1.00800000E+00  1.00800000E+00  1.60000000E+01  1.00800000E+00
  1.00800000E+00  1.60000000E+01  1.00800000E+00  1.00800000E+00  1.60000000E+01
  1.00800000E+00  1.00800000E+00  1.60000000E+01  1.00800000E+00  1.00800000E+00
  1.60000000E+01  1.00800000E+00  1.00800000E+00  1.60000000E+01  1.00800000E+00
  1.00800000E+00  1.60000000E+01  1.00800000E+00  1.00800000E+00  1.60000000E+01
  1.00800000E+00  1.00800000E+00  1.60000000E+01  1.00800000E+00  1.00800000E+00
  1.60000000E+01  1.00800000E+00  1.00800000E+00  1.60000000E+01  1.00800000E+00
  1.00800000E+00  1.60000000E+01  1.00800000E+00  1.00800000E+00  1.60000000E+01
  1.00800000E+00  1.00800000E+00  1.60000000E+01  1.00800000E+00  1.00800000E+00
  1.60000000E+01  1.00800000E+00  1.00800000E+00  1.60000000E+01  1.00800000E+00
  1.00800000E+00  1.60000000E+01  1.00800000E+00  1.00800000E+00  1.60000000E+01
  1.00800000E+00  1.00800000E+00  1.60000000E+01  1.00800000E+00  1.00800000E+00
  1.60000000E+01  1.00800000E+00  1.00800000E+00  1.60000000E+01  1.00800000E+00
  1.00800000E+00  1.60000000E+01  1.00800000E+00  1.00800000E+00  1.60000000E+01
  1.00800000E+00  1.00800000E+00  1.60000000E+01  1.00800000E+00  1.00800000E+00
  1.60000000E+01  1.00800000E+00  1.00800000E+00  1.60000000E+01  1.00800000E+00
  1.00800000E+00  1.60000000E+01  1.00800000E+00  1.00800000E+00  1.60000000E+01
  1.00800000E+00  1.00800000E+00  1.60000000E+01  1.00800000E+00  1.00800000E+00
  1.60000000E+01  1.00800000E+00  1.00800000E+00  1.60000000E+01  1.00800000E+00
  1.00800000E+00  1.60000000E+01  1.00800000E+00  1.00800000E+00  1.60000000E+01
  1.00800000E+00  1.00800000E+00  1.60000000E+01  1.00800000E+00  1.00800000E+00
  1.60000000E+01  1.00800000E+00  1.00800000E+00  1.60000000E+01  1.00800000E+00
  1.00800000E+00  1.60000000E+01  1.00800000E+00  1.00800000E+00  1.60000000E+01
  1.00800000E+00  1.00800000E+00  1.60000000E+01  1.00800000E+00  1.00800000E+00
  1.60000000E+01  1.00800000E+00  1.00800000E+00  1.60000000E+01  1.00800000E+00
  1.00800000E+00  1.60000000E+01  1.00800000E+00  1.00800000E+00  1.60000000E+01
  1.00800000E+00  1.00800000E+00  1.60000000E+01  1.00800000E+00  1.00800000E+00
  1.60000000E+01  1.00800000E+00  1.00800000E+00  1.60000000E+01  1.00800000E+00
  1.00800000E+00  1.60000000E+01  1.00800000E+00  1.00800000E+00  1.60000000E+01
  1.00800000E+00  1.00800000E+00  1.60000000E+01  1.00800000E+00  1.00800000E+00
  1.60000000E+01  1.00800000E+00  1.00800000E+00  1.60000000E+01  1.00800000E+00
  1.00800000E+00  1.60000000E+01  1.00800000E+00  1.00800000E+00  1.60000000E+01
  1.00800000E+00  1.00800000E+00  1.60000000E+01  1.00800000E+00  1.00800000E+00
  1.60000000E+01  1.00800000E+00  1.00800000E+00  1.60000000E+01  1.00800000E+00
  1.00800000E+00  1.60000000E+01  1.00800000E+00  1.00800000E+00  1.60000000E+01
  1.00800000E+00  1.00800000E+00  1.60000000E+01  1.00800000E+00  1.00800000E+00
  1.60000000E+01  1.00800000E+00  1.00800000E+00  1.60000000E+01  1.00800000E+00
  1.00800000E+00  1.60000000E+01  1.00800000E+00  1.00800000E+00  1.60000000E+01
  1.00800000E+00  1.00800000E+00  1.60000000E+01  1.00800000E+00  1.00800000E+00
  1.60000000E+01  1.00800000E+00  1.00800000E+00  1.60000000E+01  1.00800000E+00
  1.00800000E+00  1.60000000E+01  1.00800000E+00  1.00800000E+00  1.60000000E+01
  1.00800000E+00  1.00800000E+00  1.60000000E+01  1.00800000E+00  1.00800000E+00
  1.60000000E+01  1.00800000E+00  1.00800000E+00  1.60000000E+01  1.00800000E+00
  1.00800000E+00  1.60000000E+01  1.00800000E+00  1.00800000E+00  1.60000000E+01
  1.00800000E+00  1.00800000E+00  1.60000000E+01  1.00800000E+00  1.00800000E+00
  1.60000000E+01  1.00800000E+00  1.00800000E+00  1.60000000E+01  1.00800000E+00
  1.00800000E+00  1.60000000E+01  1.00800000E+00  1.00800000E+00  1.60000000E+01
  1.00800000E+00  1.00800000E+00  1.60000000E+01  1.00800000E+00  1.00800000E+00
  1.60000000E+01  1.00800000E+00  1.00800000E+00  1.60000000E+01  1.00800000E+00
  1.00800000E+00  1.60000000E+01  1.00800000E+00  1.00800000E+00  1.60000000E+01
  1.00800000E+00  1.00800000E+00  1.60000000E+01  1.00800000E+00  1.00800000E+00
  1.60000000E+01  1.00800000E+00  1.00800000E+00  1.60000000E+01  1.00800000E+00
  1.00800000E+00  1.60000000E+01  1.00800000E+00  1.00800000E+00  1.60000000E+01
  1.00800000E+00  1.00800000E+00  1.60000000E+01  1.00800000E+00  1.00800000E+00
  1.60000000E+01  1.00800000E+00  1.00800000E+00  1.60000000E+01  1.00800000E+00
  1.00800000E+00  1.60000000E+01  1.00800000E+00  1.00800000E+00  1.60000000E+01
  1.00800000E+00  1.00800000E+00  1.60000000E+01  1.00800000E+00  1.00800000E+00
  1.60000000E+01  1.00800000E+00  1.00800000E+00  1.60000000E+01  1.00800000E+00
  1.00800000E+00  1.60000000E+01  1.00800000E+00  1.00800000E+00  1.60000000E+01
  1.00800000E+00  1.00800000E+00  1.60000000E+01  1.00800000E+00  1.00800000E+00
  1.60000000E+01  1.00800000E+00  1.00800000E+00  1.60000000E+01  1.00800000E+00
  1.00800000E+00  1.60000000E+01  1.00800000E+00  1.00800000E+00  1.60000000E+01
  1.00800000E+00  1.00800000E+00  1.60000000E+01  1.00800000E+00  1.00800000E+00
  1.60000000E+01  1.00800000E+00  1.00800000E+00  1.60000000E+01  1.00800000E+00
  1.00800000E+00  1.60000000E+01  1.00800000E+00  1.00800000E+00  1.60000000E+01
  1.00800000E+00  1.00800000E+00  1.60000000E+01  1.00800000E+00  1.00800000E+00
  1.60000000E+01  1.00800000E+00  1.00800000E+00  1.60000000E+01  1.00800000E+00
  1.00800000E+00  1.60000000E+01  1.00800000E+00  1.00800000E+00  1.60000000E+01
  1.00800000E+00  1.00800000E+00  1.60000000E+01  1.00800000E+00  1.00800000E+00
  1.60000000E+01  1.00800000E+00  1.00800000E+00  1.60000000E+01  1.00800000E+00
  1.00800000E+00  1.60000000E+01  1.00800000E+00  1.00800000E+00  1.60000000E+01
  1.00800000E+00  1.00800000E+00  1.60000000E+01  1.00800000E+00  1.00800000E+00
  1.60000000E+01  1.00800000E+00  1.00800000E+00  1.60000000E+01  1.00800000E+00
  1.00800000E+00  1.60000000E+01  1.00800000E+00  1.00800000E+00  1.60000000E+01
  1.00800000E+00  1.00800000E+00  1.60000000E+01  1.00800000E+00  1.00800000E+00
  1.60000000E+01  1.00800000E+00  1.00800000E+00  1.60000000E+01  1.00800000E+00
  1.00800000E+00  1.60000000E+01  1.00800000E+00  1.00800000E+00  1.60000000E+01
  1.00800000E+00  1.00800000E+00  1.60000000E+01  1.00800000E+00  1.00800000E+00
  1.60000000E+01  1.00800000E+00  1.00800000E+00  1.60000000E+01  1.00800000E+00
  1.00800000E+00  1.60000000E+01  1.00800000E+00  1.00800000E+00  1.60000000E+01
  1.00800000E+00  1.00800000E+00  1.60000000E+01  1.00800000E+00  1.00800000E+00
  1.60000000E+01  1.00800000E+00  1.00800000E+00  1.60000000E+01  1.00800000E+00
  1.00800000E+00  1.60000000E+01  1.00800000E+00  1.00800000E+00  1.60000000E+01
  1.00800000E+00  1.00800000E+00  1.60000000E+01  1.00800000E+00  1.00800000E+00
  1.60000000E+01  1.00800000E+00  1.00800000E+00  1.60000000E+01  1.00800000E+00
  1.00800000E+00  1.60000000E+01  1.00800000E+00  1.00800000E+00  1.60000000E+01
  1.00800000E+00  1.00800000E+00  1.60000000E+01  1.00800000E+00  1.00800000E+00
  1.60000000E+01  1.00800000E+00  1.00800000E+00  1.60000000E+01  1.00800000E+00
  1.00800000E+00  1.60000000E+01  1.00800000E+00  1.00800000E+00  1.60000000E+01
  1.00800000E+00  1.00800000E+00  1.60000000E+01  1.00800000E+00  1.00800000E+00
  1.60000000E+01  1.00800000E+00  1.00800000E+00  1.60000000E+01  1.00800000E+00
  1.00800000E+00  1.60000000E+01  1.00800000E+00  1.00800000E+00  1.60000000E+01
  1.00800000E+00  1.00800000E+00  1.60000000E+01  1.00800000E+00  1.00800000E+00
  1.60000000E+01  1.00800000E+00  1.00800000E+00  1.60000000E+01  1.00800000E+00
  1.00800000E+00  1.60000000E+01  1.00800000E+00  1.00800000E+00  1.60000000E+01
  1.00800000E+00  1.00800000E+00  1.60000000E+01  1.00800000E+00  1.00800000E+00
  1.60000000E+01  1.00800000E+00  1.00800000E+00  1.60000000E+01  1.00800000E+00
  1.00800000E+00  1.60000000E+01  1.00800000E+00  1.00800000E+00  1.60000000E+01
  1.00800000E+00  1.00800000E+00  1.60000000E+01  1.00800000E+00  1.00800000E+00
  1.60000000E+01  1.00800000E+00  1.00800000E+00  1.60000000E+01  1.00800000E+00
  1.00800000E+00  1.60000000E+01  1.00800000E+00  1.00800000E+00  1.60000000E+01
  1.00800000E+00  1.00800000E+00  1.60000000E+01  1.00800000E+00  1.00800000E+00
  1.60000000E+01  1.00800000E+00  1.00800000E+00  1.60000000E+01  1.00800000E+00
  1.00800000E+00  1.60000000E+01  1.00800000E+00  1.00800000E+00  1.60000000E+01
  1.00800000E+00  1.00800000E+00  1.60000000E+01  1.00800000E+00  1.00800000E+00
  1.60000000E+01  1.00800000E+00  1.00800000E+00  1.60000000E+01  1.00800000E+00
  1.00800000E+00  1.60000000E+01  1.00800000E+00  1.00800000E+00  1.60000000E+01
  1.00800000E+00  1.00800000E+00  1.60000000E+01  1.00800000E+00  1.00800000E+00
  1.60000000E+01  1.00800000E+00  1.00800000E+00  1.60000000E+01  1.00800000E+00
  1.00800000E+00  1.60000000E+01  1.00800000E+00  1.00800000E+00  1.60000000E+01
  1.00800000E+00  1.00800000E+00  1.60000000E+01  1.00800000E+00  1.00800000E+00
  1.60000000E+01  1.00800000E+00  1.00800000E+00  1.60000000E+01  1.00800000E+00
  1.00800000E+00  1.60000000E+01  1.00800000E+00  1.00800000E+00  1.60000000E+01
  1.00800000E+00  1.00800000E+00  1.60000000E+01  1.00800000E+00  1.00800000E+00
  1.60000000E+01  1.00800000E+00  1.00800000E+00  1.60000000E+01  1.00800000E+00
  1.00800000E+00  1.60000000E+01  1.00800000E+00  1.00800000E+00  1.60000000E+01
  1.00800000E+00  1.00800000E+00  1.60000000E+01  1.00800000E+00  1.00800000E+00
  1.60000000E+01  1.00800000E+00  1.00800000E+00  1.60000000E+01  1.00800000E+00
  1.00800000E+00  1.60000000E+01  1.00800000E+00  1.00800000E+00  1.60000000E+01
  1.00800000E+00  1.00800000E+00  1.60000000E+01  1.00800000E+00  1.00800000E+00
  1.60000000E+01  1.00800000E+00  1.00800000E+00  1.60000000E+01  1.00800000E+00
  1.00800000E+00  1.60000000E+01  1.00800000E+00  1.00800000E+00  1.60000000E+01
  1.00800000E+00  1.00800000E+00  1.60000000E+01  1.00800000E+00  1.00800000E+00
  1.60000000E+01  1.00800000E+00  1.00800000E+00  1.60000000E+01  1.00800000E+00
  1.00800000E+00  1.60000000E+01  1.00800000E+00  1.00800000E+00  1.60000000E+01
  1.00800000E+00  1.00800000E+00  1.60000000E+01  1.00800000E+00  1.00800000E+00
  1.60000000E+01  1.00800000E+00  1.00800000E+00  1.60000000E+01  1.00800000E+00
  1.00800000E+00  1.60000000E+01  1.00800000E+00  1.00800000E+00  1.60000000E+01
  1.00800000E+00  1.00800000E+00  1.60000000E+01  1.00800000E+00  1.00800000E+00
  1.60000000E+01  1.00800000E+00  1.00800000E+00  1.60000000E+01  1.00800000E+00
  1.00800000E+00  1.60000000E+01  1.00800000E+00  1.00800000E+00  1.60000000E+01
  1.00800000E+00  1.00800000E+00  1.60000000E+01  1.00800000E+00  1.00800000E+00
  1.60000000E+01  1.00800000E+00  1.00800000E+00  1.60000000E+01  1.00800000E+00
  1.00800000E+00  1.60000000E+01  1.00800000E+00  1.00800000E+00  1.60000000E+01
  1.00800000E+00  1.00800000E+00  1.60000000E+01  1.00800000E+00  1.00800000E+00
  1.60000000E+01  1.00800000E+00  1.00800000E+00  1.60000000E+01  1.00800000E+00
  1.00800000E+00  1.60000000E+01  1.00800000E+00  1.00800000E+00  1.60000000E+01
  1.00800000E+00  1.00800000E+00  1.60000000E+01  1.00800000E+00  1.00800000E+00
  1.60000000E+01  1.00800000E+00  1.00800000E+00  1.60000000E+01  1.00800000E+00
  1.00800000E+00  1.60000000E+01  1.00800000E+00  1.00800000E+00  1.60000000E+01
  1.00800000E+00  1.00800000E+00  1.60000000E+01  1.00800000E+00  1.00800000E+00
  1.60000000E+01  1.00800000E+00  1.00800000E+00  1.60000000E+01  1.00800000E+00
  1.00800000E+00  1.60000000E+01  1.00800000E+00  1.00800000E+00  1.60000000E+01
  1.00800000E+00  1.00800000E+00  1.60000000E+01  1.00800000E+00  1.00800000E+00
  1.60000000E+01  1.00800000E+00  1.00800000E+00  1.60000000E+01  1.00800000E+00
  1.00800000E+00  1.60000000E+01  1.00800000E+00  1.00800000E+00  1.60000000E+01
  1.00800000E+00  1.00800000E+00  1.60000000E+01  1.00800000E+00  1.00800000E+00
  1.60000000E+01  1.00800000E+00  1.00800000E+00  1.60000000E+01  1.00800000E+00
  1.00800000E+00  1.60000000E+01  1.00800000E+00  1.00800000E+00  1.60000000E+01
  1.00800000E+00  1.00800000E+00  1.60000000E+01  1.00800000E+00  1.00800000E+00
  1.60000000E+01  1.00800000E+00  1.00800000E+00  1.60000000E+01  1.00800000E+00
  1.00800000E+00  1.60000000E+01  1.00800000E+00  1.00800000E+00  1.60000000E+01
  1.00800000E+00  1.00800000E+00  1.60000000E+01  1.00800000E+00  1.00800000E+00
  1.60000000E+01  1.00800000E+00  1.00800000E+00  1.60000000E+01  1.00800000E+00
  1.00800000E+00  1.60000000E+01  1.00800000E+00  1.00800000E+00  1.60000000E+01
  1.00800000E+00  1.00800000E+00  1.60000000E+01  1.00800000E+00  1.00800000E+00
  1.60000000E+01  1.00800000E+00  1.00800000E+00  1.60000000E+01  1.00800000E+00
  1.00800000E+00  1.60000000E+01  1.00800000E+00  1.00800000E+00  1.60000000E+01
  1.00800000E+00  1.00800000E+00  1.60000000E+01  1.00800000E+00  1.00800000E+00
  1.60000000E+01  1.00800000E+00  1.00800000E+00  1.60000000E+01  1.00800000E+00
  1.00800000E+00  1.60000000E+01  1.00800000E+00  1.00800000E+00  1.60000000E+01
  1.00800000E+00  1.00800000E+00  1.60000000E+01  1.00800000E+00  1.00800000E+00
  1.60000000E+01  1.00800000E+00  1.00800000E+00  1.60000000E+01  1.00800000E+00
  1.00800000E+00  1.60000000E+01  1.00800000E+00  1.00800000E+00  1.60000000E+01
  1.00800000E+00  1.00800000E+00  1.60000000E+01  1.00800000E+00  1.00800000E+00
  1.60000000E+01  1.00800000E+00  1.00800000E+00  1.60000000E+01  1.00800000E+00
  1.00800000E+00  1.60000000E+01  1.00800000E+00  1.00800000E+00  1.60000000E+01
  1.00800000E+00  1.00800000E+00  1.60000000E+01  1.00800000E+00  1.00800000E+00
  1.60000000E+01  1.00800000E+00  1.00800000E+00  1.60000000E+01  1.00800000E+00
  1.00800000E+00  1.60000000E+01  1.00800000E+00  1.00800000E+00  1.60000000E+01
  1.00800000E+00  1.00800000E+00  1.60000000E+01  1.00800000E+00  1.00800000E+00
  1.60000000E+01  1.00800000E+00  1.00800000E+00  1.60000000E+01  1.00800000E+00
  1.00800000E+00  1.60000000E+01  1.00800000E+00  1.00800000E+00  1.60000000E+01
  1.00800000E+00  1.00800000E+00  1.60000000E+01  1.00800000E+00  1.00800000E+00
  1.60000000E+01  1.00800000E+00  1.00800000E+00  1.60000000E+01  1.00800000E+00
  1.00800000E+00  1.60000000E+01  1.00800000E+00  1.00800000E+00  1.60000000E+01
  1.00800000E+00  1.00800000E+00  1.60000000E+01  1.00800000E+00  1.00800000E+00
  1.60000000E+01  1.00800000E+00  1.00800000E+00  1.60000000E+01  1.00800000E+00
  1.00800000E+00  1.60000000E+01  1.00800000E+00  1.00800000E+00  1.60000000E+01
  1.00800000E+00  1.00800000E+00  1.60000000E+01  1.00800000E+00  1.00800000E+00
  1.60000000E+01  1.00800000E+00  1.00800000E+00  1.60000000E+01  1.00800000E+00
  1.00800000E+00  1.60000000E+01  1.00800000E+00  1.00800000E+00  1.60000000E+01
  1.00800000E+00  1.00800000E+00  1.60000000E+01  1.00800000E+00  1.00800000E+00
  1.60000000E+01  1.00800000E+00  1.00800000E+00  1.60000000E+01  1.00800000E+00
  1.00800000E+00  1.60000000E+01  1.00800000E+00  1.00800000E+00  1.60000000E+01
  1.00800000E+00  1.00800000E+00  1.60000000E+01  1.00800000E+00  1.00800000E+00
  1.60000000E+01  1.00800000E+00  1.00800000E+00  1.60000000E+01  1.00800000E+00
  1.00800000E+00  1.60000000E+01  1.00800000E+00  1.00800000E+00  1.60000000E+01
  1.00800000E+00  1.00800000E+00  1.60000000E+01  1.00800000E+00  1.00800000E+00
  1.60000000E+01  1.00800000E+00  1.00800000E+00  1.60000000E+01  1.00800000E+00
  1.00800000E+00  1.60000000E+01  1.00800000E+00  1.00800000E+00  1.60000000E+01
  1.00800000E+00  1.00800000E+00  1.60000000E+01  1.00800000E+00  1.00800000E+00
  1.60000000E+01  1.00800000E+00  1.00800000E+00  1.60000000E+01  1.00800000E+00
  1.00800000E+00  1.60000000E+01  1.00800000E+00  1.00800000E+00  1.60000000E+01
  1.00800000E+00  1.00800000E+00  1.60000000E+01  1.00800000E+00  1.00800000E+00
  1.60000000E+01  1.00800000E+00  1.00800000E+00  1.60000000E+01  1.00800000E+00
  1.00800000E+00  1.60000000E+01  1.00800000E+00  1.00800000E+00  1.60000000E+01
  1.00800000E+00  1.00800000E+00  1.60000000E+01  1.00800000E+00  1.00800000E+00
  1.60000000E+01  1.00800000E+00  1.00800000E+00  1.60000000E+01  1.00800000E+00
  1.00800000E+00  1.60000000E+01  1.00800000E+00  1.00800000E+00  1.60000000E+01
  1.00800000E+00  1.00800000E+00  1.60000000E+01  1.00800000E+00  1.00800000E+00
  1.60000000E+01  1.00800000E+00  1.00800000E+00  1.60000000E+01  1.00800000E+00
  1.00800000E+00  1.60000000E+01  1.00800000E+00  1.00800000E+00  1.60000000E+01
  1.00800000E+00  1.00800000E+00  1.60000000E+01  1.00800000E+00  1.00800000E+00
  1.60000000E+01  1.00800000E+00  1.00800000E+00  1.60000000E+01  1.00800000E+00
  1.00800000E+00  1.60000000E+01  1.00800000E+00  1.00800000E+00  1.60000000E+01
  1.00800000E+00  1.00800000E+00  1.60000000E+01  1.00800000E+00  1.00800000E+00
  1.60000000E+01  1.00800000E+00  1.00800000E+00  1.60000000E+01  1.00800000E+00
  1.00800000E+00  1.60000000E+01  1.00800000E+00  1.00800000E+00  1.60000000E+01
  1.00800000E+00  1.00800000E+00  1.60000000E+01  1.00800000E+00  1.00800000E+00
  1.60000000E+01  1.00800000E+00  1.00800000E+00  1.60000000E+01  1.00800000E+00
  1.00800000E+00  1.60000000E+01  1.00800000E+00  1.00800000E+00  1.60000000E+01
  1.00800000E+00  1.00800000E+00  1.60000000E+01  1.00800000E+00  1.00800000E+00
  1.60000000E+01  1.00800000E+00  1.00800000E+00  1.60000000E+01  1.00800000E+00
  1.00800000E+00  1.60000000E+01  1.00800000E+00  1.00800000E+00  1.60000000E+01
  1.00800000E+00  1.00800000E+00  1.60000000E+01  1.00800000E+00  1.00800000E+00
  1.60000000E+01  1.00800000E+00  1.00800000E+00  1.60000000E+01  1.00800000E+00
  1.00800000E+00  1.60000000E+01  1.00800000E+00  1.00800000E+00  1.60000000E+01
  1.00800000E+00  1.00800000E+00  1.60000000E+01  1.00800000E+00  1.00800000E+00
  1.60000000E+01  1.00800000E+00  1.00800000E+00  1.60000000E+01  1.00800000E+00
  1.00800000E+00  1.60000000E+01  1.00800000E+00  1.00800000E+00  1.60000000E+01
  1.00800000E+00  1.00800000E+00  1.60000000E+01  1.00800000E+00  1.00800000E+00
  1.60000000E+01  1.00800000E+00  1.00800000E+00  1.60000000E+01  1.00800000E+00
  1.00800000E+00  1.60000000E+01  1.00800000E+00  1.00800000E+00  1.60000000E+01
  1.00800000E+00  1.00800000E+00  1.60000000E+01  1.00800000E+00  1.00800000E+00
  1.60000000E+01  1.00800000E+00  1.00800000E+00  1.60000000E+01  1.00800000E+00
  1.00800000E+00  1.60000000E+01  1.00800000E+00  1.00800000E+00  1.60000000E+01
  1.00800000E+00  1.00800000E+00  1.60000000E+01  1.00800000E+00  1.00800000E+00
  1.60000000E+01  1.00800000E+00  1.00800000E+00  1.60000000E+01  1.00800000E+00
  1.00800000E+00  1.60000000E+01  1.00800000E+00  1.00800000E+00  1.60000000E+01
  1.00800000E+00  1.00800000E+00  1.60000000E+01  1.00800000E+00  1.00800000E+00
  1.60000000E+01  1.00800000E+00  1.00800000E+00  1.60000000E+01  1.00800000E+00
  1.00800000E+00  1.60000000E+01  1.00800000E+00  1.00800000E+00  1.60000000E+01
  1.00800000E+00  1.00800000E+00  1.60000000E+01  1.00800000E+00  1.00800000E+00
  1.60000000E+01  1.00800000E+00  1.00800000E+00  1.60000000E+01  1.00800000E+00
  1.00800000E+00  1.60000000E+01  1.00800000E+00  1.00800000E+00  1.60000000E+01
  1.00800000E+00  1.00800000E+00  1.60000000E+01  1.00800000E+00  1.00800000E+00
  1.60000000E+01  1.00800000E+00  1.00800000E+00  1.60000000E+01  1.00800000E+00
  1.00800000E+00  1.60000000E+01  1.00800000E+00  1.00800000E+00  1.60000000E+01
  1.00800000E+00  1.00800000E+00  1.60000000E+01  1.00800000E+00  1.00800000E+00
  1.60000000E+01  1.00800000E+00  1.00800000E+00  1.60000000E+01  1.00800000E+00
  1.00800000E+00  1.60000000E+01  1.00800000E+00  1.00800000E+00  1.60000000E+01
  1.00800000E+00  1.00800000E+00  1.60000000E+01  1.00800000E+00  1.00800000E+00
  1.60000000E+01  1.00800000E+00  1.00800000E+00  1.60000000E+01  1.00800000E+00
  1.00800000E+00  1.60000000E+01  1.00800000E+00  1.00800000E+00  1.60000000E+01
  1.00800000E+00  1.00800000E+00  1.60000000E+01  1.00800000E+00  1.00800000E+00
  1.60000000E+01  1.00800000E+00  1.00800000E+00  1.60000000E+01  1.00800000E+00
  1.00800000E+00  1.60000000E+01  1.00800000E+00  1.00800000E+00  1.60000000E+01
  1.00800000E+00  1.00800000E+00  1.60000000E+01  1.00800000E+00  1.00800000E+00
  1.60000000E+01  1.00800000E+00  1.00800000E+00  1.60000000E+01  1.00800000E+00
  1.00800000E+00  1.60000000E+01  1.00800000E+00  1.00800000E+00  1.60000000E+01
  1.00800000E+00  1.00800000E+00  1.60000000E+01  1.00800000E+00  1.00800000E+00
  1.60000000E+01  1.00800000E+00  1.00800000E+00  1.60000000E+01  1.00800000E+00
  1.00800000E+00  1.60000000E+01  1.00800000E+00  1.00800000E+00  1.60000000E+01
  1.00800000E+00  1.00800000E+00  1.60000000E+01  1.00800000E+00  1.00800000E+00
  1.60000000E+01  1.00800000E+00  1.00800000E+00  1.60000000E+01  1.00800000E+00
  1.00800000E+00  1.60000000E+01  1.00800000E+00  1.00800000E+00  1.60000000E+01
  1.00800000E+00  1.00800000E+00  1.60000000E+01  1.00800000E+00  1.00800000E+00
  1.60000000E+01  1.00800000E+00  1.00800000E+00  1.60000000E+01  1.00800000E+00
  1.00800000E+00  1.60000000E+01  1.00800000E+00  1.00800000E+00  1.60000000E+01
  1.00800000E+00  1.00800000E+00  1.60000000E+01  1.00800000E+00  1.00800000E+00
  1.60000000E+01  1.00800000E+00  1.00800000E+00  1.60000000E+01  1.00800000E+00
  1.00800000E+00  1.60000000E+01  1.00800000E+00  1.00800000E+00  1.60000000E+01
  1.00800000E+00  1.00800000E+00  1.60000000E+01  1.00800000E+00  1.00800000E+00
  1.60000000E+01  1.00800000E+00  1.00800000E+00  1.60000000E+01  1.00800000E+00
  1.00800000E+00  1.60000000E+01  1.00800000E+00  1.00800000E+00  1.60000000E+01
  1.00800000E+00  1.00800000E+00  1.60000000E+01  1.00800000E+00  1.00800000E+00
  1.60000000E+01  1.00800000E+00  1.00800000E+00  1.60000000E+01  1.00800000E+00
  1.00800000E+00  1.60000000E+01  1.00800000E+00  1.00800000E+00  1.60000000E+01
  1.00800000E+00  1.00800000E+00  1.60000000E+01  1.00800000E+00  1.00800000E+00
  1.60000000E+01  1.00800000E+00  1.00800000E+00  1.60000000E+01  1.00800000E+00
  1.00800000E+00  1.60000000E+01  1.00800000E+00  1.00800000E+00  1.60000000E+01
  1.00800000E+00  1.00800000E+00  1.60000000E+01  1.00800000E+00  1.00800000E+00
  1.60000000E+01  1.00800000E+00  1.00800000E+00  1.60000000E+01  1.00800000E+00
  1.00800000E+00  1.60000000E+01  1.00800000E+00  1.00800000E+00  1.60000000E+01
  1.00800000E+00  1.00800000E+00  1.60000000E+01  1.00800000E+00  1.00800000E+00
  1.60000000E+01  1.00800000E+00  1.00800000E+00  1.60000000E+01  1.00800000E+00
  1.00800000E+00  1.60000000E+01  1.00800000E+00  1.00800000E+00  1.60000000E+01
  1.00800000E+00  1.00800000E+00  1.60000000E+01  1.00800000E+00  1.00800000E+00
  1.60000000E+01  1.00800000E+00  1.00800000E+00  1.60000000E+01  1.00800000E+00
  1.00800000E+00  1.60000000E+01  1.00800000E+00  1.00800000E+00  1.60000000E+01
  1.00800000E+00  1.00800000E+00  1.60000000E+01  1.00800000E+00  1.00800000E+00
  1.60000000E+01  1.00800000E+00  1.00800000E+00  1.60000000E+01  1.00800000E+00
  1.00800000E+00  1.60000000E+01  1.00800000E+00  1.00800000E+00  1.60000000E+01
  1.00800000E+00  1.00800000E+00  1.60000000E+01  1.00800000E+00  1.00800000E+00
  1.60000000E+01  1.00800000E+00  1.00800000E+00  1.60000000E+01  1.00800000E+00
  1.00800000E+00  1.60000000E+01  1.00800000E+00  1.00800000E+00  1.60000000E+01
  1.00800000E+00  1.00800000E+00  1.60000000E+01  1.00800000E+00  1.00800000E+00
  1.60000000E+01  1.00800000E+00  1.00800000E+00  1.60000000E+01  1.00800000E+00
  1.00800000E+00  1.60000000E+01  1.00800000E+00  1.00800000E+00  1.60000000E+01
  1.00800000E+00  1.00800000E+00  1.60000000E+01  1.00800000E+00  1.00800000E+00
  1.60000000E+01  1.00800000E+00  1.00800000E+00  1.60000000E+01  1.00800000E+00
  1.00800000E+00  1.60000000E+01  1.00800000E+00  1.00800000E+00  1.60000000E+01
  1.00800000E+00  1.00800000E+00  1.60000000E+01  1.00800000E+00  1.00800000E+00
  1.60000000E+01  1.00800000E+00  1.00800000E+00  1.60000000E+01  1.00800000E+00
  1.00800000E+00  1.60000000E+01  1.00800000E+00  1.00800000E+00  1.60000000E+01
  1.00800000E+00  1.00800000E+00  1.60000000E+01  1.00800000E+00  1.00800000E+00
  1.60000000E+01  1.00800000E+00  1.00800000E+00  1.60000000E+01  1.00800000E+00
  1.00800000E+00  1.60000000E+01  1.00800000E+00  1.00800000E+00  1.60000000E+01
  1.00800000E+00  1.00800000E+00  1.60000000E+01  1.00800000E+00  1.00800000E+00
  1.60000000E+01  1.00800000E+00  1.00800000E+00  1.60000000E+01  1.00800000E+00
  1.00800000E+00  1.60000000E+01  1.00800000E+00  1.00800000E+00  1.60000000E+01
  1.00800000E+00  1.00800000E+00  1.60000000E+01  1.00800000E+00  1.00800000E+00
  1.60000000E+01  1.00800000E+00  1.00800000E+00  1.60000000E+01  1.00800000E+00
  1.00800000E+00  1.60000000E+01  1.00800000E+00  1.00800000E+00  1.60000000E+01
  1.00800000E+00  1.00800000E+00  1.60000000E+01  1.00800000E+00  1.00800000E+00
  1.60000000E+01  1.00800000E+00  1.00800000E+00  1.60000000E+01  1.00800000E+00
  1.00800000E+00  1.60000000E+01  1.00800000E+00  1.00800000E+00  1.60000000E+01
  1.00800000E+00  1.00800000E+00  1.60000000E+01  1.00800000E+00  1.00800000E+00
  1.60000000E+01  1.00800000E+00  1.00800000E+00  1.60000000E+01  1.00800000E+00
  1.00800000E+00  1.60000000E+01  1.00800000E+00  1.00800000E+00  1.60000000E+01
  1.00800000E+00  1.00800000E+00  1.60000000E+01  1.00800000E+00  1.00800000E+00
  1.60000000E+01  1.00800000E+00  1.00800000E+00  1.60000000E+01  1.00800000E+00
  1.00800000E+00  1.60000000E+01  1.00800000E+00  1.00800000E+00  1.60000000E+01
  1.00800000E+00  1.00800000E+00  1.60000000E+01  1.00800000E+00  1.00800000E+00
  1.60000000E+01  1.00800000E+00  1.00800000E+00  1.60000000E+01  1.00800000E+00
  1.00800000E+00  1.60000000E+01  1.00800000E+00  1.00800000E+00  1.60000000E+01
  1.00800000E+00  1.00800000E+00  1.60000000E+01  1.00800000E+00  1.00800000E+00
  1.60000000E+01  1.00800000E+00  1.00800000E+00  1.60000000E+01  1.00800000E+00
  1.00800000E+00  1.60000000E+01  1.00800000E+00  1.00800000E+00  1.60000000E+01
  1.00800000E+00  1.00800000E+00  1.60000000E+01  1.00800000E+00  1.00800000E+00
  1.60000000E+01  1.00800000E+00  1.00800000E+00  1.60000000E+01  1.00800000E+00
  1.00800000E+00  1.60000000E+01  1.00800000E+00  1.00800000E+00  1.60000000E+01
  1.00800000E+00  1.00800000E+00  1.60000000E+01  1.00800000E+00  1.00800000E+00
  1.60000000E+01  1.00800000E+00  1.00800000E+00  1.60000000E+01  1.00800000E+00
  1.00800000E+00  1.60000000E+01  1.00800000E+00  1.00800000E+00  1.60000000E+01
  1.00800000E+00  1.00800000E+00  1.60000000E+01  1.00800000E+00  1.00800000E+00
  1.60000000E+01  1.00800000E+00  1.00800000E+00  1.60000000E+01  1.00800000E+00
  1.00800000E+00  1.60000000E+01  1.00800000E+00  1.00800000E+00  1.60000000E+01
  1.00800000E+00  1.00800000E+00  1.60000000E+01  1.00800000E+00  1.00800000E+00
  1.60000000E+01  1.00800000E+00  1.00800000E+00  1.60000000E+01  1.00800000E+00
  1.00800000E+00  1.60000000E+01  1.00800000E+00  1.00800000E+00  1.60000000E+01
  1.00800000E+00  1.00800000E+00  1.60000000E+01  1.00800000E+00  1.00800000E+00
  1.60000000E+01  1.00800000E+00  1.00800000E+00  1.60000000E+01  1.00800000E+00
  1.00800000E+00  1.60000000E+01  1.00800000E+00  1.00800000E+00  1.60000000E+01
  1.00800000E+00  1.00800000E+00  1.60000000E+01  1.00800000E+00  1.00800000E+00
  1.60000000E+01  1.00800000E+00  1.00800000E+00  1.60000000E+01  1.00800000E+00
  1.00800000E+00  1.60000000E+01  1.00800000E+00  1.00800000E+00  1.60000000E+01
  1.00800000E+00  1.00800000E+00  1.60000000E+01  1.00800000E+00  1.00800000E+00
  1.60000000E+01  1.00800000E+00  1.00800000E+00  1.60000000E+01  1.00800000E+00
  1.00800000E+00  1.60000000E+01  1.00800000E+00  1.00800000E+00  1.60000000E+01
  1.00800000E+00  1.00800000E+00  1.60000000E+01  1.00800000E+00  1.00800000E+00
  1.60000000E+01  1.00800000E+00  1.00800000E+00  1.60000000E+01  1.00800000E+00
  1.00800000E+00  1.60000000E+01  1.00800000E+00  1.00800000E+00  1.60000000E+01
  1.00800000E+00  1.00800000E+00  1.60000000E+01  1.00800000E+00  1.00800000E+00
  1.60000000E+01  1.00800000E+00  1.00800000E+00  1.60000000E+01  1.00800000E+00
  1.00800000E+00  1.60000000E+01  1.00800000E+00  1.00800000E+00  1.60000000E+01
  1.00800000E+00  1.00800000E+00  1.60000000E+01  1.00800000E+00  1.00800000E+00
  1.60000000E+01  1.00800000E+00  1.00800000E+00  1.60000000E+01  1.00800000E+00
  1.00800000E+00  1.60000000E+01  1.00800000E+00  1.00800000E+00  1.60000000E+01
  1.00800000E+00  1.00800000E+00  1.60000000E+01  1.00800000E+00  1.00800000E+00
  1.60000000E+01  1.00800000E+00  1.00800000E+00  1.60000000E+01  1.00800000E+00
  1.00800000E+00  1.60000000E+01  1.00800000E+00  1.00800000E+00  1.60000000E+01
  1.00800000E+00  1.00800000E+00  1.60000000E+01  1.00800000E+00  1.00800000E+00
  1.60000000E+01  1.00800000E+00  1.00800000E+00  1.60000000E+01  1.00800000E+00
  1.00800000E+00  1.60000000E+01  1.00800000E+00  1.00800000E+00  1.60000000E+01
  1.00800000E+00  1.00800000E+00  1.60000000E+01  1.00800000E+00  1.00800000E+00
  1.60000000E+01  1.00800000E+00  1.00800000E+00  1.60000000E+01  1.00800000E+00
  1.00800000E+00  1.60000000E+01  1.00800000E+00  1.00800000E+00  1.60000000E+01
  1.00800000E+00  1.00800000E+00  1.60000000E+01  1.00800000E+00  1.00800000E+00
  1.60000000E+01  1.00800000E+00  1.00800000E+00  1.60000000E+01  1.00800000E+00
  1.00800000E+00  1.60000000E+01  1.00800000E+00  1.00800000E+00  1.60000000E+01
  1.00800000E+00  1.00800000E+00  1.60000000E+01  1.00800000E+00  1.00800000E+00
  1.60000000E+01  1.00800000E+00  1.00800000E+00  1.60000000E+01  1.00800000E+00
  1.00800000E+00  1.60000000E+01  1.00800000E+00  1.00800000E+00  1.60000000E+01
  1.00800000E+00  1.00800000E+00  1.60000000E+01  1.00800000E+00  1.00800000E+00
  1.60000000E+01  1.00800000E+00  1.00800000E+00  1.60000000E+01  1.00800000E+00
  1.00800000E+00  1.60000000E+01  1.00800000E+00  1.00800000E+00  1.60000000E+01
  1.00800000E+00  1.00800000E+00  1.60000000E+01  1.00800000E+00  1.00800000E+00
  1.60000000E+01  1.00800000E+00  1.00800000E+00  1.60000000E+01  1.00800000E+00
  1.00800000E+00  1.60000000E+01  1.00800000E+00  1.00800000E+00  1.60000000E+01
  1.00800000E+00  1.00800000E+00  1.60000000E+01  1.00800000E+00  1.00800000E+00
  1.60000000E+01  1.00800000E+00  1.00800000E+00  1.60000000E+01  1.00800000E+00
  1.00800000E+00  1.60000000E+01  1.00800000E+00  1.00800000E+00  1.60000000E+01
  1.00800000E+00  1.00800000E+00  1.60000000E+01  1.00800000E+00  1.00800000E+00
  1.60000000E+01  1.00800000E+00  1.00800000E+00  1.60000000E+01  1.00800000E+00
  1.00800000E+00  1.60000000E+01  1.00800000E+00  1.00800000E+00  1.60000000E+01
  1.00800000E+00  1.00800000E+00  1.60000000E+01  1.00800000E+00  1.00800000E+00
  1.60000000E+01  1.00800000E+00  1.00800000E+00  1.60000000E+01  1.00800000E+00
  1.00800000E+00  1.60000000E+01  1.00800000E+00  1.00800000E+00  1.60000000E+01
  1.00800000E+00  1.00800000E+00  1.60000000E+01  1.00800000E+00  1.00800000E+00
  1.60000000E+01  1.00800000E+00  1.00800000E+00  1.60000000E+01  1.00800000E+00
  1.00800000E+00  1.60000000E+01  1.00800000E+00  1.00800000E+00  1.60000000E+01
  1.00800000E+00  1.00800000E+00  1.60000000E+01  1.00800000E+00  1.00800000E+00
  1.60000000E+01  1.00800000E+00  1.00800000E+00  1.60000000E+01  1.00800000E+00
  1.00800000E+00  1.60000000E+01  1.00800000E+00  1.00800000E+00  1.60000000E+01
  1.00800000E+00  1.00800000E+00  1.60000000E+01  1.00800000E+00  1.00800000E+00
  1.60000000E+01  1.00800000E+00  1.00800000E+00  1.60000000E+01  1.00800000E+00
  1.00800000E+00  1.60000000E+01  1.00800000E+00  1.00800000E+00  1.60000000E+01
  1.00800000E+00  1.00800000E+00  1.60000000E+01  1.00800000E+00  1.00800000E+00
  1.60000000E+01  1.00800000E+00  1.00800000E+00  1.60000000E+01  1.00800000E+00
  1.00800000E+00  1.60000000E+01  1.00800000E+00  1.00800000E+00  1.60000000E+01
  1.00800000E+00  1.00800000E+00  1.60000000E+01  1.00800000E+00  1.00800000E+00
  1.60000000E+01  1.00800000E+00  1.00800000E+00  1.60000000E+01  1.00800000E+00
  1.00800000E+00  1.60000000E+01  1.00800000E+00  1.00800000E+00  1.60000000E+01
  1.00800000E+00  1.00800000E+00  1.60000000E+01  1.00800000E+00  1.00800000E+00
  1.60000000E+01  1.00800000E+00  1.00800000E+00  1.60000000E+01  1.00800000E+00
  1.00800000E+00  1.60000000E+01  1.00800000E+00  1.00800000E+00  1.60000000E+01
  1.00800000E+00  1.00800000E+00  1.60000000E+01  1.00800000E+00  1.00800000E+00
  1.60000000E+01  1.00800000E+00  1.00800000E+00  1.60000000E+01  1.00800000E+00
  1.00800000E+00  1.60000000E+01  1.00800000E+00  1.00800000E+00  1.60000000E+01
  1.00800000E+00  1.00800000E+00  1.60000000E+01  1.00800000E+00  1.00800000E+00
  1.60000000E+01  1.00800000E+00  1.00800000E+00  1.60000000E+01  1.00800000E+00
  1.00800000E+00  1.60000000E+01  1.00800000E+00  1.00800000E+00  1.60000000E+01
  1.00800000E+00  1.00800000E+00  1.60000000E+01  1.00800000E+00  1.00800000E+00
  1.60000000E+01  1.00800000E+00  1.00800000E+00  1.60000000E+01  1.00800000E+00
  1.00800000E+00  1.60000000E+01  1.00800000E+00  1.00800000E+00  1.60000000E+01
  1.00800000E+00  1.00800000E+00  1.60000000E+01  1.00800000E+00  1.00800000E+00
  1.60000000E+01  1.00800000E+00  1.00800000E+00  1.60000000E+01  1.00800000E+00
  1.00800000E+00  1.60000000E+01  1.00800000E+00  1.00800000E+00  1.60000000E+01
  1.00800000E+00  1.00800000E+00  1.60000000E+01  1.00800000E+00  1.00800000E+00
  1.60000000E+01  1.00800000E+00  1.00800000E+00  1.60000000E+01  1.00800000E+00
  1.00800000E+00  1.60000000E+01  1.00800000E+00  1.00800000E+00  1.60000000E+01
  1.00800000E+00  1.00800000E+00  1.60000000E+01  1.00800000E+00  1.00800000E+00
  1.60000000E+01  1.00800000E+00  1.00800000E+00  1.60000000E+01  1.00800000E+00
  1.00800000E+00  1.60000000E+01  1.00800000E+00  1.00800000E+00  1.60000000E+01
  1.00800000E+00  1.00800000E+00  1.60000000E+01  1.00800000E+00  1.00800000E+00
  1.60000000E+01  1.00800000E+00  1.00800000E+00  1.60000000E+01  1.00800000E+00
  1.00800000E+00  1.60000000E+01  1.00800000E+00  1.00800000E+00  1.60000000E+01
  1.00800000E+00  1.00800000E+00  1.60000000E+01  1.00800000E+00  1.00800000E+00
  1.60000000E+01  1.00800000E+00  1.00800000E+00  1.60000000E+01  1.00800000E+00
  1.00800000E+00  1.60000000E+01  1.00800000E+00  1.00800000E+00  1.60000000E+01
  1.00800000E+00  1.00800000E+00  1.60000000E+01  1.00800000E+00  1.00800000E+00
  1.60000000E+01  1.00800000E+00  1.00800000E+00  1.60000000E+01  1.00800000E+00
  1.00800000E+00  1.60000000E+01  1.00800000E+00  1.00800000E+00  1.60000000E+01
  1.00800000E+00  1.00800000E+00  1.60000000E+01  1.00800000E+00  1.00800000E+00
  1.60000000E+01  1.00800000E+00  1.00800000E+00  1.60000000E+01  1.00800000E+00
  1.00800000E+00  1.60000000E+01  1.00800000E+00  1.00800000E+00  1.60000000E+01
  1.00800000E+00  1.00800000E+00  1.60000000E+01  1.00800000E+00  1.00800000E+00
  1.60000000E+01  1.00800000E+00  1.00800000E+00  1.60000000E+01  1.00800000E+00
  1.00800000E+00  1.60000000E+01  1.00800000E+00  1.00800000E+00  1.60000000E+01
  1.00800000E+00  1.00800000E+00  1.60000000E+01  1.00800000E+00  1.00800000E+00
  1.60000000E+01  1.00800000E+00  1.00800000E+00  1.60000000E+01  1.00800000E+00
  1.00800000E+00  1.60000000E+01  1.00800000E+00  1.00800000E+00  1.60000000E+01
  1.00800000E+00  1.00800000E+00  1.60000000E+01  1.00800000E+00  1.00800000E+00
  1.60000000E+01  1.00800000E+00  1.00800000E+00  1.60000000E+01  1.00800000E+00
  1.00800000E+00  1.60000000E+01  1.00800000E+00  1.00800000E+00  1.60000000E+01
  1.00800000E+00  1.00800000E+00  1.60000000E+01  1.00800000E+00  1.00800000E+00
  1.60000000E+01  1.00800000E+00  1.00800000E+00  1.60000000E+01  1.00800000E+00
  1.00800000E+00  1.60000000E+01  1.00800000E+00  1.00800000E+00  1.60000000E+01
  1.00800000E+00  1.00800000E+00  1.60000000E+01  1.00800000E+00  1.00800000E+00
  1.60000000E+01  1.00800000E+00  1.00800000E+00  1.60000000E+01  1.00800000E+00
  1.00800000E+00  1.60000000E+01  1.00800000E+00  1.00800000E+00  1.60000000E+01
  1.00800000E+00  1.00800000E+00  1.60000000E+01  1.00800000E+00  1.00800000E+00
  1.60000000E+01  1.00800000E+00  1.00800000E+00  1.60000000E+01  1.00800000E+00
  1.00800000E+00  1.60000000E+01  1.00800000E+00  1.00800000E+00  1.60000000E+01
  1.00800000E+00  1.00800000E+00  1.60000000E+01  1.00800000E+00  1.00800000E+00
  1.60000000E+01  1.00800000E+00  1.00800000E+00  1.60000000E+01  1.00800000E+00
  1.00800000E+00  1.60000000E+01  1.00800000E+00  1.00800000E+00  1.60000000E+01
  1.00800000E+00  1.00800000E+00  1.60000000E+01  1.00800000E+00  1.00800000E+00
  1.60000000E+01  1.00800000E+00  1.00800000E+00  1.60000000E+01  1.00800000E+00
  1.00800000E+00  1.60000000E+01  1.00800000E+00  1.00800000E+00  1.60000000E+01
  1.00800000E+00  1.00800000E+00  1.60000000E+01  1.00800000E+00  1.00800000E+00
  1.60000000E+01  1.00800000E+00  1.00800000E+00  1.60000000E+01  1.00800000E+00
  1.00800000E+00  1.60000000E+01  1.00800000E+00  1.00800000E+00  1.60000000E+01
  1.00800000E+00  1.00800000E+00  1.60000000E+01  1.00800000E+00  1.00800000E+00
  1.60000000E+01  1.00800000E+00  1.00800000E+00  1.60000000E+01  1.00800000E+00
  1.00800000E+00  1.60000000E+01  1.00800000E+00  1.00800000E+00  1.60000000E+01
  1.00800000E+00  1.00800000E+00  1.60000000E+01  1.00800000E+00  1.00800000E+00
  1.60000000E+01  1.00800000E+00  1.00800000E+00  1.60000000E+01  1.00800000E+00
  1.00800000E+00  1.60000000E+01  1.00800000E+00  1.00800000E+00  1.60000000E+01
  1.00800000E+00  1.00800000E+00  1.60000000E+01  1.00800000E+00  1.00800000E+00
  1.60000000E+01  1.00800000E+00  1.00800000E+00  1.60000000E+01  1.00800000E+00
  1.00800000E+00  1.60000000E+01  1.00800000E+00  1.00800000E+00  1.60000000E+01
  1.00800000E+00  1.00800000E+00  1.60000000E+01  1.00800000E+00  1.00800000E+00
  1.60000000E+01  1.00800000E+00  1.00800000E+00  1.60000000E+01  1.00800000E+00
  1.00800000E+00  1.60000000E+01  1.00800000E+00  1.00800000E+00  1.60000000E+01
  1.00800000E+00  1.00800000E+00  1.60000000E+01  1.00800000E+00  1.00800000E+00
  1.60000000E+01  1.00800000E+00  1.00800000E+00  1.60000000E+01  1.00800000E+00
  1.00800000E+00  1.60000000E+01  1.00800000E+00  1.00800000E+00  1.60000000E+01
  1.00800000E+00  1.00800000E+00  1.60000000E+01  1.00800000E+00  1.00800000E+00
  1.60000000E+01  1.00800000E+00  1.00800000E+00  1.60000000E+01  1.00800000E+00
  1.00800000E+00  1.60000000E+01  1.00800000E+00  1.00800000E+00  1.60000000E+01
  1.00800000E+00  1.00800000E+00  1.60000000E+01  1.00800000E+00  1.00800000E+00
  1.60000000E+01  1.00800000E+00  1.00800000E+00  1.60000000E+01  1.00800000E+00
  1.00800000E+00  1.60000000E+01  1.00800000E+00  1.00800000E+00  1.60000000E+01
  1.00800000E+00  1.00800000E+00  1.60000000E+01  1.00800000E+00  1.00800000E+00
  1.60000000E+01  1.00800000E+00  1.00800000E+00  1.60000000E+01  1.00800000E+00
  1.00800000E+00  1.60000000E+01  1.00800000E+00  1.00800000E+00  1.60000000E+01
  1.00800000E+00  1.00800000E+00  1.60000000E+01  1.00800000E+00  1.00800000E+00
  1.60000000E+01  1.00800000E+00  1.00800000E+00  1.60000000E+01  1.00800000E+00
  1.00800000E+00  1.60000000E+01  1.00800000E+00  1.00800000E+00  1.60000000E+01
  1.00800000E+00  1.00800000E+00  1.60000000E+01  1.00800000E+00  1.00800000E+00
  1.60000000E+01  1.00800000E+00  1.00800000E+00  1.60000000E+01  1.00800000E+00
  1.00800000E+00  1.60000000E+01  1.00800000E+00  1.00800000E+00  1.60000000E+01
  1.00800000E+00  1.00800000E+00  1.60000000E+01  1.00800000E+00  1.00800000E+00
  1.60000000E+01  1.00800000E+00  1.00800000E+00  1.60000000E+01  1.00800000E+00
  1.00800000E+00  1.60000000E+01  1.00800000E+00  1.00800000E+00  1.60000000E+01
  1.00800000E+00  1.00800000E+00  1.60000000E+01  1.00800000E+00  1.00800000E+00
  1.60000000E+01  1.00800000E+00  1.00800000E+00  1.60000000E+01  1.00800000E+00
  1.00800000E+00  1.60000000E+01  1.00800000E+00  1.00800000E+00  1.60000000E+01
  1.00800000E+00  1.00800000E+00  1.60000000E+01  1.00800000E+00  1.00800000E+00
  1.60000000E+01  1.00800000E+00  1.00800000E+00  1.60000000E+01  1.00800000E+00
  1.00800000E+00  1.60000000E+01  1.00800000E+00  1.00800000E+00  1.60000000E+01
  1.00800000E+00  1.00800000E+00  1.60000000E+01  1.00800000E+00  1.00800000E+00
  1.60000000E+01  1.00800000E+00  1.00800000E+00  1.60000000E+01  1.00800000E+00
  1.00800000E+00  1.60000000E+01  1.00800000E+00  1.00800000E+00  1.60000000E+01
  1.00800000E+00  1.00800000E+00  1.60000000E+01  1.00800000E+00  1.00800000E+00
  1.60000000E+01  1.00800000E+00  1.00800000E+00  1.60000000E+01  1.00800000E+00
  1.00800000E+00  1.60000000E+01  1.00800000E+00  1.00800000E+00  1.60000000E+01
  1.00800000E+00  1.00800000E+00  1.60000000E+01  1.00800000E+00  1.00800000E+00
  1.60000000E+01  1.00800000E+00  1.00800000E+00  1.60000000E+01  1.00800000E+00
  1.00800000E+00  1.60000000E+01  1.00800000E+00  1.00800000E+00  1.60000000E+01
  1.00800000E+00  1.00800000E+00  1.60000000E+01  1.00800000E+00  1.00800000E+00
  1.60000000E+01  1.00800000E+00  1.00800000E+00  1.60000000E+01  1.00800000E+00
  1.00800000E+00  1.60000000E+01  1.00800000E+00  1.00800000E+00  1.60000000E+01
  1.00800000E+00  1.00800000E+00  1.60000000E+01  1.00800000E+00  1.00800000E+00
  1.60000000E+01  1.00800000E+00  1.00800000E+00  1.60000000E+01  1.00800000E+00
  1.00800000E+00  1.60000000E+01  1.00800000E+00  1.00800000E+00  1.60000000E+01
  1.00800000E+00  1.00800000E+00  1.60000000E+01  1.00800000E+00  1.00800000E+00
  1.60000000E+01  1.00800000E+00  1.00800000E+00  1.60000000E+01  1.00800000E+00
  1.00800000E+00  1.60000000E+01  1.00800000E+00  1.00800000E+00  1.60000000E+01
  1.00800000E+00  1.00800000E+00  1.60000000E+01  1.00800000E+00  1.00800000E+00
  1.60000000E+01  1.00800000E+00  1.00800000E+00  1.60000000E+01  1.00800000E+00
  1.00800000E+00  1.60000000E+01  1.00800000E+00  1.00800000E+00  1.60000000E+01
  1.00800000E+00  1.00800000E+00  1.60000000E+01  1.00800000E+00  1.00800000E+00
  1.60000000E+01  1.00800000E+00  1.00800000E+00  1.60000000E+01  1.00800000E+00
  1.00800000E+00  1.60000000E+01  1.00800000E+00  1.00800000E+00  1.60000000E+01
  1.00800000E+00  1.00800000E+00  1.60000000E+01  1.00800000E+00  1.00800000E+00
  1.60000000E+01  1.00800000E+00  1.00800000E+00  1.60000000E+01  1.00800000E+00
  1.00800000E+00  1.60000000E+01  1.00800000E+00  1.00800000E+00  1.60000000E+01
  1.00800000E+00  1.00800000E+00  1.60000000E+01  1.00800000E+00  1.00800000E+00
  1.60000000E+01  1.00800000E+00  1.00800000E+00  1.60000000E+01  1.00800000E+00
  1.00800000E+00  1.60000000E+01  1.00800000E+00  1.00800000E+00  1.60000000E+01
  1.00800000E+00  1.00800000E+00  1.60000000E+01  1.00800000E+00  1.00800000E+00
  1.60000000E+01  1.00800000E+00  1.00800000E+00  1.60000000E+01  1.00800000E+00
  1.00800000E+00  1.60000000E+01  1.00800000E+00  1.00800000E+00  1.60000000E+01
  1.00800000E+00  1.00800000E+00  1.60000000E+01  1.00800000E+00  1.00800000E+00
  1.60000000E+01  1.00800000E+00  1.00800000E+00  1.60000000E+01  1.00800000E+00
  1.00800000E+00  1.60000000E+01  1.00800000E+00  1.00800000E+00  1.60000000E+01
  1.00800000E+00  1.00800000E+00  1.60000000E+01  1.00800000E+00  1.00800000E+00
  1.60000000E+01  1.00800000E+00  1.00800000E+00  1.60000000E+01  1.00800000E+00
  1.00800000E+00  1.60000000E+01  1.00800000E+00  1.00800000E+00  1.60000000E+01
  1.00800000E+00  1.00800000E+00  1.60000000E+01  1.00800000E+00  1.00800000E+00
  1.60000000E+01  1.00800000E+00  1.00800000E+00  1.60000000E+01  1.00800000E+00
  1.00800000E+00  1.60000000E+01  1.00800000E+00  1.00800000E+00  1.60000000E+01
  1.00800000E+00  1.00800000E+00  1.60000000E+01  1.00800000E+00  1.00800000E+00
  1.60000000E+01  1.00800000E+00  1.00800000E+00  1.60000000E+01  1.00800000E+00
  1.00800000E+00  1.60000000E+01  1.00800000E+00  1.00800000E+00  1.60000000E+01
  1.00800000E+00  1.00800000E+00  1.60000000E+01  1.00800000E+00  1.00800000E+00
  1.60000000E+01  1.00800000E+00  1.00800000E+00  1.60000000E+01  1.00800000E+00
  1.00800000E+00  1.60000000E+01  1.00800000E+00  1.00800000E+00  1.60000000E+01
  1.00800000E+00  1.00800000E+00  1.60000000E+01  1.00800000E+00  1.00800000E+00
  1.60000000E+01  1.00800000E+00  1.00800000E+00  1.60000000E+01  1.00800000E+00
  1.00800000E+00  1.60000000E+01  1.00800000E+00  1.00800000E+00  1.60000000E+01
  1.00800000E+00  1.00800000E+00  1.60000000E+01  1.00800000E+00  1.00800000E+00
  1.60000000E+01  1.00800000E+00  1.00800000E+00  1.60000000E+01  1.00800000E+00
  1.00800000E+00  1.60000000E+01  1.00800000E+00  1.00800000E+00  1.60000000E+01
  1.00800000E+00  1.00800000E+00  1.60000000E+01  1.00800000E+00  1.00800000E+00
  1.60000000E+01  1.00800000E+00  1.00800000E+00  1.60000000E+01  1.00800000E+00
  1.00800000E+00  1.60000000E+01  1.00800000E+00  1.00800000E+00  1.60000000E+01
  1.00800000E+00  1.00800000E+00  1.60000000E+01  1.00800000E+00  1.00800000E+00
  1.60000000E+01  1.00800000E+00  1.00800000E+00  1.60000000E+01  1.00800000E+00
  1.00800000E+00  1.60000000E+01  1.00800000E+00  1.00800000E+00  1.60000000E+01
  1.00800000E+00  1.00800000E+00  1.60000000E+01  1.00800000E+00  1.00800000E+00
  1.60000000E+01  1.00800000E+00  1.00800000E+00  1.60000000E+01  1.00800000E+00
  1.00800000E+00  1.60000000E+01  1.00800000E+00  1.00800000E+00  1.60000000E+01
  1.00800000E+00  1.00800000E+00  1.60000000E+01  1.00800000E+00  1.00800000E+00
  1.60000000E+01  1.00800000E+00  1.00800000E+00  1.60000000E+01  1.00800000E+00
  1.00800000E+00  1.60000000E+01  1.00800000E+00  1.00800000E+00  1.60000000E+01
  1.00800000E+00  1.00800000E+00  1.60000000E+01  1.00800000E+00  1.00800000E+00
  1.60000000E+01  1.00800000E+00  1.00800000E+00  1.60000000E+01  1.00800000E+00
  1.00800000E+00  1.60000000E+01  1.00800000E+00  1.00800000E+00  1.60000000E+01
  1.00800000E+00  1.00800000E+00  1.60000000E+01  1.00800000E+00  1.00800000E+00
  1.60000000E+01  1.00800000E+00  1.00800000E+00  1.60000000E+01  1.00800000E+00
  1.00800000E+00  1.60000000E+01  1.00800000E+00  1.00800000E+00  1.60000000E+01
  1.00800000E+00  1.00800000E+00  1.60000000E+01  1.00800000E+00  1.00800000E+00
  1.60000000E+01  1.00800000E+00  1.00800000E+00  1.60000000E+01  1.00800000E+00
  1.00800000E+00  1.60000000E+01  1.00800000E+00  1.00800000E+00  1.60000000E+01
  1.00800000E+00  1.00800000E+00  1.60000000E+01  1.00800000E+00  1.00800000E+00
  1.60000000E+01  1.00800000E+00  1.00800000E+00  1.60000000E+01  1.00800000E+00
  1.00800000E+00  1.60000000E+01  1.00800000E+00  1.00800000E+00  1.60000000E+01
  1.00800000E+00  1.00800000E+00  1.60000000E+01  1.00800000E+00  1.00800000E+00
  1.60000000E+01  1.00800000E+00  1.00800000E+00  1.60000000E+01  1.00800000E+00
  1.00800000E+00  1.60000000E+01  1.00800000E+00  1.00800000E+00  1.60000000E+01
  1.00800000E+00  1.00800000E+00  1.60000000E+01  1.00800000E+00  1.00800000E+00
  1.60000000E+01  1.00800000E+00  1.00800000E+00  1.60000000E+01  1.00800000E+00
  1.00800000E+00  1.60000000E+01  1.00800000E+00  1.00800000E+00  1.60000000E+01
  1.00800000E+00  1.00800000E+00  1.60000000E+01  1.00800000E+00  1.00800000E+00
  1.60000000E+01  1.00800000E+00  1.00800000E+00  1.60000000E+01  1.00800000E+00
  1.00800000E+00  1.60000000E+01  1.00800000E+00  1.00800000E+00  1.60000000E+01
  1.00800000E+00  1.00800000E+00  1.60000000E+01  1.00800000E+00  1.00800000E+00
  1.60000000E+01  1.00800000E+00  1.00800000E+00  1.60000000E+01  1.00800000E+00
  1.00800000E+00  1.60000000E+01  1.00800000E+00  1.00800000E+00  1.60000000E+01
  1.00800000E+00  1.00800000E+00  1.60000000E+01  1.00800000E+00  1.00800000E+00
  1.60000000E+01  1.00800000E+00  1.00800000E+00  1.60000000E+01  1.00800000E+00
  1.00800000E+00  1.60000000E+01  1.00800000E+00  1.00800000E+00  1.60000000E+01
  1.00800000E+00  1.00800000E+00  1.60000000E+01  1.00800000E+00  1.00800000E+00
  1.60000000E+01  1.00800000E+00  1.00800000E+00  1.60000000E+01  1.00800000E+00
  1.00800000E+00  1.60000000E+01  1.00800000E+00  1.00800000E+00  1.60000000E+01
  1.00800000E+00  1.00800000E+00  1.60000000E+01  1.00800000E+00  1.00800000E+00
  1.60000000E+01  1.00800000E+00  1.00800000E+00  1.60000000E+01  1.00800000E+00
  1.00800000E+00  1.60000000E+01  1.00800000E+00  1.00800000E+00  1.60000000E+01
  1.00800000E+00  1.00800000E+00  1.60000000E+01  1.00800000E+00  1.00800000E+00
  1.60000000E+01  1.00800000E+00  1.00800000E+00  1.60000000E+01  1.00800000E+00
  1.00800000E+00  1.60000000E+01  1.00800000E+00  1.00800000E+00  1.60000000E+01
  1.00800000E+00  1.00800000E+00  1.60000000E+01  1.00800000E+00  1.00800000E+00
  1.60000000E+01  1.00800000E+00  1.00800000E+00  1.60000000E+01  1.00800000E+00
  1.00800000E+00  1.60000000E+01  1.00800000E+00  1.00800000E+00  1.60000000E+01
  1.00800000E+00  1.00800000E+00  1.60000000E+01  1.00800000E+00  1.00800000E+00
  1.60000000E+01  1.00800000E+00  1.00800000E+00  1.60000000E+01  1.00800000E+00
  1.00800000E+00  1.60000000E+01  1.00800000E+00  1.00800000E+00  1.60000000E+01
  1.00800000E+00  1.00800000E+00  1.60000000E+01  1.00800000E+00  1.00800000E+00
  1.60000000E+01  1.00800000E+00  1.00800000E+00  1.60000000E+01  1.00800000E+00
  1.00800000E+00  1.60000000E+01  1.00800000E+00  1.00800000E+00  1.60000000E+01
  1.00800000E+00  1.00800000E+00  1.60000000E+01  1.00800000E+00  1.00800000E+00
  1.60000000E+01  1.00800000E+00  1.00800000E+00  1.60000000E+01  1.00800000E+00
  1.00800000E+00  1.60000000E+01  1.00800000E+00  1.00800000E+00  1.60000000E+01
  1.00800000E+00  1.00800000E+00  1.60000000E+01  1.00800000E+00  1.00800000E+00
  1.60000000E+01  1.00800000E+00  1.00800000E+00  1.60000000E+01  1.00800000E+00
  1.00800000E+00  1.60000000E+01  1.00800000E+00  1.00800000E+00  1.60000000E+01
  1.00800000E+00  1.00800000E+00  1.60000000E+01  1.00800000E+00  1.00800000E+00
  1.60000000E+01  1.00800000E+00  1.00800000E+00  1.60000000E+01  1.00800000E+00
  1.00800000E+00  1.60000000E+01  1.00800000E+00  1.00800000E+00  1.60000000E+01
  1.00800000E+00  1.00800000E+00  1.60000000E+01  1.00800000E+00  1.00800000E+00
  1.60000000E+01  1.00800000E+00  1.00800000E+00  1.60000000E+01  1.00800000E+00
  1.00800000E+00  1.60000000E+01  1.00800000E+00  1.00800000E+00  1.60000000E+01
  1.00800000E+00  1.00800000E+00  1.60000000E+01  1.00800000E+00  1.00800000E+00
  1.60000000E+01  1.00800000E+00  1.00800000E+00  1.60000000E+01  1.00800000E+00
  1.00800000E+00  1.60000000E+01  1.00800000E+00  1.00800000E+00  1.60000000E+01
  1.00800000E+00  1.00800000E+00  1.60000000E+01  1.00800000E+00  1.00800000E+00
  1.60000000E+01  1.00800000E+00  1.00800000E+00  1.60000000E+01  1.00800000E+00
  1.00800000E+00  1.60000000E+01  1.00800000E+00  1.00800000E+00  1.60000000E+01
  1.00800000E+00  1.00800000E+00  1.60000000E+01  1.00800000E+00  1.00800000E+00
  1.60000000E+01  1.00800000E+00  1.00800000E+00  1.60000000E+01  1.00800000E+00
  1.00800000E+00  1.60000000E+01  1.00800000E+00  1.00800000E+00  1.60000000E+01
  1.00800000E+00  1.00800000E+00  1.60000000E+01  1.00800000E+00  1.00800000E+00
  1.60000000E+01  1.00800000E+00  1.00800000E+00  1.60000000E+01  1.00800000E+00
  1.00800000E+00  1.60000000E+01  1.00800000E+00  1.00800000E+00  1.60000000E+01
  1.00800000E+00  1.00800000E+00  1.60000000E+01  1.00800000E+00  1.00800000E+00
  1.60000000E+01  1.00800000E+00  1.00800000E+00  1.60000000E+01  1.00800000E+00
  1.00800000E+00  1.60000000E+01  1.00800000E+00  1.00800000E+00  1.60000000E+01
  1.00800000E+00  1.00800000E+00  1.60000000E+01  1.00800000E+00  1.00800000E+00
  1.60000000E+01  1.00800000E+00  1.00800000E+00  1.60000000E+01  1.00800000E+00
  1.00800000E+00  1.60000000E+01  1.00800000E+00  1.00800000E+00  1.60000000E+01
  1.00800000E+00  1.00800000E+00  1.60000000E+01  1.00800000E+00  1.00800000E+00
  1.60000000E+01  1.00800000E+00  1.00800000E+00  1.60000000E+01  1.00800000E+00
  1.00800000E+00  1.60000000E+01  1.00800000E+00  1.00800000E+00  1.60000000E+01
  1.00800000E+00  1.00800000E+00  1.60000000E+01  1.00800000E+00  1.00800000E+00
  1.60000000E+01  1.00800000E+00  1.00800000E+00  1.60000000E+01  1.00800000E+00
  1.00800000E+00  1.60000000E+01  1.00800000E+00  1.00800000E+00  1.60000000E+01
  1.00800000E+00  1.00800000E+00  1.60000000E+01  1.00800000E+00  1.00800000E+00
  1.60000000E+01  1.00800000E+00  1.00800000E+00  1.60000000E+01  1.00800000E+00
  1.00800000E+00  1.60000000E+01  1.00800000E+00  1.00800000E+00  1.60000000E+01
  1.00800000E+00  1.00800000E+00  1.60000000E+01  1.00800000E+00  1.00800000E+00
  1.60000000E+01  1.00800000E+00  1.00800000E+00  1.60000000E+01  1.00800000E+00
  1.00800000E+00  1.60000000E+01  1.00800000E+00  1.00800000E+00  1.60000000E+01
  1.00800000E+00  1.00800000E+00  1.60000000E+01  1.00800000E+00  1.00800000E+00
  1.60000000E+01  1.00800000E+00  1.00800000E+00  1.60000000E+01  1.00800000E+00
  1.00800000E+00  1.60000000E+01  1.00800000E+00  1.00800000E+00  1.60000000E+01
  1.00800000E+00  1.00800000E+00  1.60000000E+01  1.00800000E+00  1.00800000E+00
  1.60000000E+01  1.00800000E+00  1.00800000E+00  1.60000000E+01  1.00800000E+00
  1.00800000E+00  1.60000000E+01  1.00800000E+00  1.00800000E+00  1.60000000E+01
  1.00800000E+00  1.00800000E+00  1.60000000E+01  1.00800000E+00  1.00800000E+00
  1.60000000E+01  1.00800000E+00  1.00800000E+00  1.60000000E+01  1.00800000E+00
  1.00800000E+00  1.60000000E+01  1.00800000E+00  1.00800000E+00  1.60000000E+01
  1.00800000E+00  1.00800000E+00  1.60000000E+01  1.00800000E+00  1.00800000E+00
  1.60000000E+01  1.00800000E+00  1.00800000E+00  1.60000000E+01  1.00800000E+00
  1.00800000E+00  1.60000000E+01  1.00800000E+00  1.00800000E+00  1.60000000E+01
  1.00800000E+00  1.00800000E+00  1.60000000E+01  1.00800000E+00  1.00800000E+00
  1.60000000E+01  1.00800000E+00  1.00800000E+00  1.60000000E+01  1.00800000E+00
  1.00800000E+00  1.60000000E+01  1.00800000E+00  1.00800000E+00  1.60000000E+01
  1.00800000E+00  1.00800000E+00  1.60000000E+01  1.00800000E+00  1.00800000E+00
  1.60000000E+01  1.00800000E+00  1.00800000E+00  1.60000000E+01  1.00800000E+00
  1.00800000E+00  1.60000000E+01  1.00800000E+00  1.00800000E+00  1.60000000E+01
  1.00800000E+00  1.00800000E+00  1.60000000E+01  1.00800000E+00  1.00800000E+00
  1.60000000E+01  1.00800000E+00  1.00800000E+00  1.60000000E+01  1.00800000E+00
  1.00800000E+00  1.60000000E+01  1.00800000E+00  1.00800000E+00  1.60000000E+01
  1.00800000E+00  1.00800000E+00  1.60000000E+01  1.00800000E+00  1.00800000E+00
  1.60000000E+01  1.00800000E+00  1.00800000E+00  1.60000000E+01  1.00800000E+00
  1.00800000E+00  1.60000000E+01  1.00800000E+00  1.00800000E+00  1.60000000E+01
  1.00800000E+00  1.00800000E+00  1.60000000E+01  1.00800000E+00  1.00800000E+00
  1.60000000E+01  1.00800000E+00  1.00800000E+00  1.60000000E+01  1.00800000E+00
  1.00800000E+00  1.60000000E+01  1.00800000E+00  1.00800000E+00  1.60000000E+01
  1.00800000E+00  1.00800000E+00  1.60000000E+01  1.00800000E+00  1.00800000E+00
  1.60000000E+01  1.00800000E+00  1.00800000E+00  1.60000000E+01  1.00800000E+00
  1.00800000E+00  1.60000000E+01  1.00800000E+00  1.00800000E+00  1.60000000E+01
  1.00800000E+00  1.00800000E+00  1.60000000E+01  1.00800000E+00  1.00800000E+00
  1.60000000E+01  1.00800000E+00  1.00800000E+00  1.60000000E+01  1.00800000E+00
  1.00800000E+00  1.60000000E+01  1.00800000E+00  1.00800000E+00  1.60000000E+01
  1.00800000E+00  1.00800000E+00  1.60000000E+01  1.00800000E+00  1.00800000E+00
  1.60000000E+01  1.00800000E+00  1.00800000E+00  1.60000000E+01  1.00800000E+00
  1.00800000E+00  1.60000000E+01  1.00800000E+00  1.00800000E+00  1.60000000E+01
  1.00800000E+00  1.00800000E+00  1.60000000E+01  1.00800000E+00  1.00800000E+00
  1.60000000E+01  1.00800000E+00  1.00800000E+00  1.60000000E+01  1.00800000E+00
  1.00800000E+00  1.60000000E+01  1.00800000E+00  1.00800000E+00  1.60000000E+01
  1.00800000E+00  1.00800000E+00  1.60000000E+01  1.00800000E+00  1.00800000E+00
  1.60000000E+01  1.00800000E+00  1.00800000E+00  1.60000000E+01  1.00800000E+00
  1.00800000E+00  1.60000000E+01  1.00800000E+00  1.00800000E+00  1.60000000E+01
  1.00800000E+00  1.00800000E+00  1.60000000E+01  1.00800000E+00  1.00800000E+00
  1.60000000E+01  1.00800000E+00  1.00800000E+00  1.60000000E+01  1.00800000E+00
  1.00800000E+00  1.60000000E+01  1.00800000E+00  1.00800000E+00  1.60000000E+01
  1.00800000E+00  1.00800000E+00  1.60000000E+01  1.00800000E+00  1.00800000E+00
  1.60000000E+01  1.00800000E+00  1.00800000E+00  1.60000000E+01  1.00800000E+00
  1.00800000E+00  1.60000000E+01  1.00800000E+00  1.00800000E+00  1.60000000E+01
  1.00800000E+00  1.00800000E+00  1.60000000E+01  1.00800000E+00  1.00800000E+00
  1.60000000E+01  1.00800000E+00  1.00800000E+00  1.60000000E+01  1.00800000E+00
  1.00800000E+00  1.60000000E+01  1.00800000E+00  1.00800000E+00  1.60000000E+01
  1.00800000E+00  1.00800000E+00  1.60000000E+01  1.00800000E+00  1.00800000E+00
  1.60000000E+01  1.00800000E+00  1.00800000E+00  1.60000000E+01  1.00800000E+00
  1.00800000E+00  1.60000000E+01  1.00800000E+00  1.00800000E+00  1.60000000E+01
  1.00800000E+00  1.00800000E+00  1.60000000E+01  1.00800000E+00  1.00800000E+00
  1.60000000E+01  1.00800000E+00  1.00800000E+00  1.60000000E+01  1.00800000E+00
  1.00800000E+00  1.60000000E+01  1.00800000E+00  1.00800000E+00  1.60000000E+01
  1.00800000E+00  1.00800000E+00  1.60000000E+01  1.00800000E+00  1.00800000E+00
  1.60000000E+01  1.00800000E+00  1.00800000E+00  1.60000000E+01  1.00800000E+00
  1.00800000E+00  1.60000000E+01  1.00800000E+00  1.00800000E+00  1.60000000E+01
  1.00800000E+00  1.00800000E+00  1.60000000E+01  1.00800000E+00  1.00800000E+00
  1.60000000E+01  1.00800000E+00  1.00800000E+00  1.60000000E+01  1.00800000E+00
  1.00800000E+00  1.60000000E+01  1.00800000E+00  1.00800000E+00  1.60000000E+01
  1.00800000E+00  1.00800000E+00  1.60000000E+01  1.00800000E+00  1.00800000E+00
  1.60000000E+01  1.00800000E+00  1.00800000E+00  1.60000000E+01  1.00800000E+00
  1.00800000E+00  1.60000000E+01  1.00800000E+00  1.00800000E+00  1.60000000E+01
  1.00800000E+00  1.00800000E+00  1.60000000E+01  1.00800000E+00  1.00800000E+00
  1.60000000E+01  1.00800000E+00  1.00800000E+00  1.60000000E+01  1.00800000E+00
  1.00800000E+00  1.60000000E+01  1.00800000E+00  1.00800000E+00  1.60000000E+01
  1.00800000E+00  1.00800000E+00  1.60000000E+01  1.00800000E+00  1.00800000E+00
  1.60000000E+01  1.00800000E+00  1.00800000E+00  1.60000000E+01  1.00800000E+00
  1.00800000E+00  1.60000000E+01  1.00800000E+00  1.00800000E+00  1.60000000E+01
  1.00800000E+00  1.00800000E+00  1.60000000E+01  1.00800000E+00  1.00800000E+00
  1.60000000E+01  1.00800000E+00  1.00800000E+00  1.60000000E+01  1.00800000E+00
  1.00800000E+00  1.60000000E+01  1.00800000E+00  1.00800000E+00  1.60000000E+01
  1.00800000E+00  1.00800000E+00  1.60000000E+01  1.00800000E+00  1.00800000E+00
  1.60000000E+01  1.00800000E+00  1.00800000E+00  1.60000000E+01  1.00800000E+00
  1.00800000E+00  1.60000000E+01  1.00800000E+00  1.00800000E+00  1.60000000E+01
  1.00800000E+00  1.00800000E+00  1.60000000E+01  1.00800000E+00  1.00800000E+00
  1.60000000E+01  1.00800000E+00  1.00800000E+00  1.60000000E+01  1.00800000E+00
  1.00800000E+00  1.60000000E+01  1.00800000E+00  1.00800000E+00  1.60000000E+01
  1.00800000E+00  1.00800000E+00  1.60000000E+01  1.00800000E+00  1.00800000E+00
  1.60000000E+01  1.00800000E+00  1.00800000E+00  1.60000000E+01  1.00800000E+00
  1.00800000E+00  1.60000000E+01  1.00800000E+00  1.00800000E+00  1.60000000E+01
  1.00800000E+00  1.00800000E+00  1.60000000E+01  1.00800000E+00  1.00800000E+00
  1.60000000E+01  1.00800000E+00  1.00800000E+00  1.60000000E+01  1.00800000E+00
  1.00800000E+00  1.60000000E+01  1.00800000E+00  1.00800000E+00  1.60000000E+01
  1.00800000E+00  1.00800000E+00  1.60000000E+01  1.00800000E+00  1.00800000E+00
  1.60000000E+01  1.00800000E+00  1.00800000E+00  1.60000000E+01  1.00800000E+00
  1.00800000E+00  1.60000000E+01  1.00800000E+00  1.00800000E+00  1.60000000E+01
  1.00800000E+00  1.00800000E+00  1.60000000E+01  1.00800000E+00  1.00800000E+00
  1.60000000E+01  1.00800000E+00  1.00800000E+00  1.60000000E+01  1.00800000E+00
  1.00800000E+00  1.60000000E+01  1.00800000E+00  1.00800000E+00  1.60000000E+01
  1.00800000E+00  1.00800000E+00  1.60000000E+01  1.00800000E+00  1.00800000E+00
  1.60000000E+01  1.00800000E+00  1.00800000E+00  1.60000000E+01  1.00800000E+00
  1.00800000E+00  1.60000000E+01  1.00800000E+00  1.00800000E+00  1.60000000E+01
  1.00800000E+00  1.00800000E+00  1.60000000E+01  1.00800000E+00  1.00800000E+00
  1.60000000E+01  1.00800000E+00  1.00800000E+00  1.60000000E+01  1.00800000E+00
  1.00800000E+00  1.60000000E+01  1.00800000E+00  1.00800000E+00  1.60000000E+01
  1.00800000E+00  1.00800000E+00  1.60000000E+01  1.00800000E+00  1.00800000E+00
  1.60000000E+01  1.00800000E+00  1.00800000E+00  1.60000000E+01  1.00800000E+00
  1.00800000E+00  1.60000000E+01  1.00800000E+00  1.00800000E+00  1.60000000E+01
  1.00800000E+00  1.00800000E+00  1.60000000E+01  1.00800000E+00  1.00800000E+00
  1.60000000E+01  1.00800000E+00  1.00800000E+00  1.60000000E+01  1.00800000E+00
  1.00800000E+00  1.60000000E+01  1.00800000E+00  1.00800000E+00  1.60000000E+01
  1.00800000E+00  1.00800000E+00  1.60000000E+01  1.00800000E+00  1.00800000E+00
  1.60000000E+01  1.00800000E+00  1.00800000E+00  1.60000000E+01  1.00800000E+00
  1.00800000E+00  1.60000000E+01  1.00800000E+00  1.00800000E+00  1.60000000E+01
  1.00800000E+00  1.00800000E+00  1.60000000E+01  1.00800000E+00  1.00800000E+00
  1.60000000E+01  1.00800000E+00  1.00800000E+00  1.60000000E+01  1.00800000E+00
  1.00800000E+00  1.60000000E+01  1.00800000E+00  1.00800000E+00  1.60000000E+01
  1.00800000E+00  1.00800000E+00  1.60000000E+01  1.00800000E+00  1.00800000E+00
  1.60000000E+01  1.00800000E+00  1.00800000E+00  1.60000000E+01  1.00800000E+00
  1.00800000E+00  1.60000000E+01  1.00800000E+00  1.00800000E+00  1.60000000E+01
  1.00800000E+00  1.00800000E+00  1.60000000E+01  1.00800000E+00  1.00800000E+00
  1.60000000E+01  1.00800000E+00  1.00800000E+00  1.60000000E+01  1.00800000E+00
  1.00800000E+00  1.60000000E+01  1.00800000E+00  1.00800000E+00  1.60000000E+01
  1.00800000E+00  1.00800000E+00  1.60000000E+01  1.00800000E+00  1.00800000E+00
  1.60000000E+01  1.00800000E+00  1.00800000E+00  1.60000000E+01  1.00800000E+00
  1.00800000E+00  1.60000000E+01  1.00800000E+00  1.00800000E+00  1.60000000E+01
  1.00800000E+00  1.00800000E+00  1.60000000E+01  1.00800000E+00  1.00800000E+00
  1.60000000E+01  1.00800000E+00  1.00800000E+00  1.60000000E+01  1.00800000E+00
  1.00800000E+00  1.60000000E+01  1.00800000E+00  1.00800000E+00  1.60000000E+01
  1.00800000E+00  1.00800000E+00  1.60000000E+01  1.00800000E+00  1.00800000E+00
  1.60000000E+01  1.00800000E+00  1.00800000E+00  1.60000000E+01  1.00800000E+00
  1.00800000E+00  1.60000000E+01  1.00800000E+00  1.00800000E+00  1.60000000E+01
  1.00800000E+00  1.00800000E+00  1.60000000E+01  1.00800000E+00  1.00800000E+00
  1.60000000E+01  1.00800000E+00  1.00800000E+00  1.60000000E+01  1.00800000E+00
  1.00800000E+00  1.60000000E+01  1.00800000E+00  1.00800000E+00  1.60000000E+01
  1.00800000E+00  1.00800000E+00  1.60000000E+01  1.00800000E+00  1.00800000E+00
  1.60000000E+01  1.00800000E+00  1.00800000E+00  1.60000000E+01  1.00800000E+00
  1.00800000E+00  1.60000000E+01  1.00800000E+00  1.00800000E+00  1.60000000E+01
  1.00800000E+00  1.00800000E+00  1.60000000E+01  1.00800000E+00  1.00800000E+00
  1.60000000E+01  1.00800000E+00  1.00800000E+00  1.60000000E+01  1.00800000E+00
  1.00800000E+00  1.60000000E+01  1.00800000E+00  1.00800000E+00  1.60000000E+01
  1.00800000E+00  1.00800000E+00  1.60000000E+01  1.00800000E+00  1.00800000E+00
  1.60000000E+01  1.00800000E+00  1.00800000E+00  1.60000000E+01  1.00800000E+00
  1.00800000E+00  1.60000000E+01  1.00800000E+00  1.00800000E+00  1.60000000E+01
  1.00800000E+00  1.00800000E+00  1.60000000E+01  1.00800000E+00  1.00800000E+00
  1.60000000E+01  1.00800000E+00  1.00800000E+00  1.60000000E+01  1.00800000E+00
  1.00800000E+00  1.60000000E+01  1.00800000E+00  1.00800000E+00  1.60000000E+01
  1.00800000E+00  1.00800000E+00  1.60000000E+01  1.00800000E+00  1.00800000E+00
  1.60000000E+01  1.00800000E+00  1.00800000E+00  1.60000000E+01  1.00800000E+00
  1.00800000E+00  1.60000000E+01  1.00800000E+00  1.00800000E+00  1.60000000E+01
  1.00800000E+00  1.00800000E+00  1.60000000E+01  1.00800000E+00  1.00800000E+00
  1.60000000E+01  1.00800000E+00  1.00800000E+00  1.60000000E+01  1.00800000E+00
  1.00800000E+00  1.60000000E+01  1.00800000E+00  1.00800000E+00  1.60000000E+01
  1.00800000E+00  1.00800000E+00  1.60000000E+01  1.00800000E+00  1.00800000E+00
  1.60000000E+01  1.00800000E+00  1.00800000E+00  1.60000000E+01  1.00800000E+00
  1.00800000E+00  1.60000000E+01  1.00800000E+00  1.00800000E+00  1.60000000E+01
  1.00800000E+00  1.00800000E+00  1.60000000E+01  1.00800000E+00  1.00800000E+00
  1.60000000E+01  1.00800000E+00  1.00800000E+00  1.60000000E+01  1.00800000E+00
  1.00800000E+00  1.60000000E+01  1.00800000E+00  1.00800000E+00  1.60000000E+01
  1.00800000E+00  1.00800000E+00  1.60000000E+01  1.00800000E+00  1.00800000E+00
  1.60000000E+01  1.00800000E+00  1.00800000E+00  1.60000000E+01  1.00800000E+00
  1.00800000E+00  1.60000000E+01  1.00800000E+00  1.00800000E+00  1.60000000E+01
  1.00800000E+00  1.00800000E+00  1.60000000E+01  1.00800000E+00  1.00800000E+00
  1.60000000E+01  1.00800000E+00  1.00800000E+00  1.60000000E+01  1.00800000E+00
  1.00800000E+00  1.60000000E+01  1.00800000E+00  1.00800000E+00  1.60000000E+01
  1.00800000E+00  1.00800000E+00  1.60000000E+01  1.00800000E+00  1.00800000E+00
  1.60000000E+01  1.00800000E+00  1.00800000E+00  1.60000000E+01  1.00800000E+00
  1.00800000E+00  1.60000000E+01  1.00800000E+00  1.00800000E+00  1.60000000E+01
  1.00800000E+00  1.00800000E+00  1.60000000E+01  1.00800000E+00  1.00800000E+00
  1.60000000E+01  1.00800000E+00  1.00800000E+00  1.60000000E+01  1.00800000E+00
  1.00800000E+00  1.60000000E+01  1.00800000E+00  1.00800000E+00  1.60000000E+01
  1.00800000E+00  1.00800000E+00  1.60000000E+01  1.00800000E+00  1.00800000E+00
  1.60000000E+01  1.00800000E+00  1.00800000E+00  1.60000000E+01  1.00800000E+00
  1.00800000E+00  1.60000000E+01  1.00800000E+00  1.00800000E+00  1.60000000E+01
  1.00800000E+00  1.00800000E+00  1.60000000E+01  1.00800000E+00  1.00800000E+00
  1.60000000E+01  1.00800000E+00  1.00800000E+00  1.60000000E+01  1.00800000E+00
  1.00800000E+00  1.60000000E+01  1.00800000E+00  1.00800000E+00  1.60000000E+01
  1.00800000E+00  1.00800000E+00  1.60000000E+01  1.00800000E+00  1.00800000E+00
  1.60000000E+01  1.00800000E+00  1.00800000E+00  1.60000000E+01  1.00800000E+00
  1.00800000E+00  1.60000000E+01  1.00800000E+00  1.00800000E+00  1.60000000E+01
  1.00800000E+00  1.00800000E+00  1.60000000E+01  1.00800000E+00  1.00800000E+00
  1.60000000E+01  1.00800000E+00  1.00800000E+00  1.60000000E+01  1.00800000E+00
  1.00800000E+00  1.60000000E+01  1.00800000E+00  1.00800000E+00  1.60000000E+01
  1.00800000E+00  1.00800000E+00  1.60000000E+01  1.00800000E+00  1.00800000E+00
  1.60000000E+01  1.00800000E+00  1.00800000E+00  1.60000000E+01  1.00800000E+00
  1.00800000E+00  1.60000000E+01  1.00800000E+00  1.00800000E+00  1.60000000E+01
  1.00800000E+00  1.00800000E+00  1.60000000E+01  1.00800000E+00  1.00800000E+00
  1.60000000E+01  1.00800000E+00  1.00800000E+00  1.60000000E+01  1.00800000E+00
  1.00800000E+00  1.60000000E+01  1.00800000E+00  1.00800000E+00  1.60000000E+01
  1.00800000E+00  1.00800000E+00  1.60000000E+01  1.00800000E+00  1.00800000E+00
  1.60000000E+01  1.00800000E+00  1.00800000E+00  1.60000000E+01  1.00800000E+00
  1.00800000E+00  1.60000000E+01  1.00800000E+00  1.00800000E+00  1.60000000E+01
  1.00800000E+00  1.00800000E+00  1.60000000E+01  1.00800000E+00  1.00800000E+00
  1.60000000E+01  1.00800000E+00  1.00800000E+00  1.60000000E+01  1.00800000E+00
  1.00800000E+00  1.60000000E+01  1.00800000E+00  1.00800000E+00  1.60000000E+01
  1.00800000E+00  1.00800000E+00  1.60000000E+01  1.00800000E+00  1.00800000E+00
  1.60000000E+01  1.00800000E+00  1.00800000E+00  1.60000000E+01  1.00800000E+00
  1.00800000E+00  1.60000000E+01  1.00800000E+00  1.00800000E+00  1.60000000E+01
  1.00800000E+00  1.00800000E+00  1.60000000E+01  1.00800000E+00  1.00800000E+00
  1.60000000E+01  1.00800000E+00  1.00800000E+00  1.60000000E+01  1.00800000E+00
  1.00800000E+00  1.60000000E+01  1.00800000E+00  1.00800000E+00  1.60000000E+01
  1.00800000E+00  1.00800000E+00  1.60000000E+01  1.00800000E+00  1.00800000E+00
  1.60000000E+01  1.00800000E+00  1.00800000E+00  1.60000000E+01  1.00800000E+00
  1.00800000E+00  1.60000000E+01  1.00800000E+00  1.00800000E+00  1.60000000E+01
  1.00800000E+00  1.00800000E+00  1.60000000E+01  1.00800000E+00  1.00800000E+00
  1.60000000E+01  1.00800000E+00  1.00800000E+00  1.60000000E+01  1.00800000E+00
  1.00800000E+00  1.60000000E+01  1.00800000E+00  1.00800000E+00  1.60000000E+01
  1.00800000E+00  1.00800000E+00  1.60000000E+01  1.00800000E+00  1.00800000E+00
  1.60000000E+01  1.00800000E+00  1.00800000E+00  1.60000000E+01  1.00800000E+00
  1.00800000E+00  1.60000000E+01  1.00800000E+00  1.00800000E+00  1.60000000E+01
  1.00800000E+00  1.00800000E+00  1.60000000E+01  1.00800000E+00  1.00800000E+00
  1.60000000E+01  1.00800000E+00  1.00800000E+00  1.60000000E+01  1.00800000E+00
  1.00800000E+00  1.60000000E+01  1.00800000E+00  1.00800000E+00  1.60000000E+01
  1.00800000E+00  1.00800000E+00  1.60000000E+01  1.00800000E+00  1.00800000E+00
  1.60000000E+01  1.00800000E+00  1.00800000E+00  1.60000000E+01  1.00800000E+00
  1.00800000E+00  1.60000000E+01  1.00800000E+00  1.00800000E+00  1.60000000E+01
  1.00800000E+00  1.00800000E+00  1.60000000E+01  1.00800000E+00  1.00800000E+00
  1.60000000E+01  1.00800000E+00  1.00800000E+00  1.60000000E+01  1.00800000E+00
  1.00800000E+00  1.60000000E+01  1.00800000E+00  1.00800000E+00  1.60000000E+01
  1.00800000E+00  1.00800000E+00  1.60000000E+01  1.00800000E+00  1.00800000E+00
  1.60000000E+01  1.00800000E+00  1.00800000E+00  1.60000000E+01  1.00800000E+00
  1.00800000E+00  1.60000000E+01  1.00800000E+00  1.00800000E+00  1.60000000E+01
  1.00800000E+00  1.00800000E+00  1.60000000E+01  1.00800000E+00  1.00800000E+00
  1.60000000E+01  1.00800000E+00  1.00800000E+00  1.60000000E+01  1.00800000E+00
  1.00800000E+00  1.60000000E+01  1.00800000E+00  1.00800000E+00  1.60000000E+01
  1.00800000E+00  1.00800000E+00  1.60000000E+01  1.00800000E+00  1.00800000E+00
  1.60000000E+01  1.00800000E+00  1.00800000E+00  1.60000000E+01  1.00800000E+00
  1.00800000E+00  1.60000000E+01  1.00800000E+00  1.00800000E+00  1.60000000E+01
  1.00800000E+00  1.00800000E+00  1.60000000E+01  1.00800000E+00  1.00800000E+00
  1.60000000E+01  1.00800000E+00  1.00800000E+00  1.60000000E+01  1.00800000E+00
  1.00800000E+00  1.60000000E+01  1.00800000E+00  1.00800000E+00  1.60000000E+01
  1.00800000E+00  1.00800000E+00  1.60000000E+01  1.00800000E+00  1.00800000E+00
  1.60000000E+01  1.00800000E+00  1.00800000E+00  1.60000000E+01  1.00800000E+00
  1.00800000E+00  1.60000000E+01  1.00800000E+00  1.00800000E+00  1.60000000E+01
  1.00800000E+00  1.00800000E+00  1.60000000E+01  1.00800000E+00  1.00800000E+00
  1.60000000E+01  1.00800000E+00  1.00800000E+00  1.60000000E+01  1.00800000E+00
  1.00800000E+00  1.60000000E+01  1.00800000E+00  1.00800000E+00  1.60000000E+01
  1.00800000E+00  1.00800000E+00  1.60000000E+01  1.00800000E+00  1.00800000E+00
  1.60000000E+01  1.00800000E+00  1.00800000E+00  1.60000000E+01  1.00800000E+00
  1.00800000E+00  1.60000000E+01  1.00800000E+00  1.00800000E+00  1.60000000E+01
  1.00800000E+00  1.00800000E+00  1.60000000E+01  1.00800000E+00  1.00800000E+00
  1.60000000E+01  1.00800000E+00  1.00800000E+00  1.60000000E+01  1.00800000E+00
  1.00800000E+00  1.60000000E+01  1.00800000E+00  1.00800000E+00  1.60000000E+01
  1.00800000E+00  1.00800000E+00  1.60000000E+01  1.00800000E+00  1.00800000E+00
  1.60000000E+01  1.00800000E+00  1.00800000E+00  1.60000000E+01  1.00800000E+00
  1.00800000E+00  1.60000000E+01  1.00800000E+00  1.00800000E+00  1.60000000E+01
  1.00800000E+00  1.00800000E+00  1.60000000E+01  1.00800000E+00  1.00800000E+00
  1.60000000E+01  1.00800000E+00  1.00800000E+00  1.60000000E+01  1.00800000E+00
  1.00800000E+00  1.60000000E+01  1.00800000E+00  1.00800000E+00  1.60000000E+01
  1.00800000E+00  1.00800000E+00  1.60000000E+01  1.00800000E+00  1.00800000E+00
  1.60000000E+01  1.00800000E+00  1.00800000E+00  1.60000000E+01  1.00800000E+00
  1.00800000E+00  1.60000000E+01  1.00800000E+00  1.00800000E+00  1.60000000E+01
  1.00800000E+00  1.00800000E+00  1.60000000E+01  1.00800000E+00  1.00800000E+00
  1.60000000E+01  1.00800000E+00  1.00800000E+00  1.60000000E+01  1.00800000E+00
  1.00800000E+00  1.60000000E+01  1.00800000E+00  1.00800000E+00  1.60000000E+01
  1.00800000E+00  1.00800000E+00  1.60000000E+01  1.00800000E+00  1.00800000E+00
  1.60000000E+01  1.00800000E+00  1.00800000E+00  1.60000000E+01  1.00800000E+00
  1.00800000E+00  1.60000000E+01  1.00800000E+00  1.00800000E+00  1.60000000E+01
  1.00800000E+00  1.00800000E+00  1.60000000E+01  1.00800000E+00  1.00800000E+00
  1.60000000E+01  1.00800000E+00  1.00800000E+00  1.60000000E+01  1.00800000E+00
  1.00800000E+00  1.60000000E+01  1.00800000E+00  1.00800000E+00  1.60000000E+01
  1.00800000E+00  1.00800000E+00  1.60000000E+01  1.00800000E+00  1.00800000E+00
  1.60000000E+01  1.00800000E+00  1.00800000E+00  1.60000000E+01  1.00800000E+00
  1.00800000E+00  1.60000000E+01  1.00800000E+00  1.00800000E+00  1.60000000E+01
  1.00800000E+00  1.00800000E+00  1.60000000E+01  1.00800000E+00  1.00800000E+00
  1.60000000E+01  1.00800000E+00  1.00800000E+00  1.60000000E+01  1.00800000E+00
  1.00800000E+00  1.60000000E+01  1.00800000E+00  1.00800000E+00  1.60000000E+01
  1.00800000E+00  1.00800000E+00  1.60000000E+01  1.00800000E+00  1.00800000E+00
  1.60000000E+01  1.00800000E+00  1.00800000E+00  1.60000000E+01  1.00800000E+00
  1.00800000E+00
%FLAG ATOM_TYPE_INDEX                                                           
%FORMAT(10I8)                                                                   
       1       2       1       1       3       4       5       6       2       7
       2       1       1       2       1       1       3       4       5       6
       6       3       4       5       6       2       7       2       7       7
       8       3       4       5       6       2       7       2       7       7
       8       3       4       5       6       2       7       2       7       2
       1       1       1       9      10       3       4       5       6       2
       7       2       7       7       9      10       3       4       5       6
       2       7       2       1       2       1       1       1       2       1
       1       2       1       1       1       3       4       5       6       2
       7       2       7       7       8       3       4       5       6       2
       7       2       7       7       9      10       3       4       5       6
       2       7       2       1       1       2       1       2       1       1
       1       2       1       1       1       3       4       5       6       2
       7       2       1       1       3       3      11       3      11       3
       9      10       3      11       3      11       3       4       5       6
       2       7       2       1       1       2       1       1       3       4
       5       6       6       3       4       5       6       2       7       2
       1       1       2       1       2       1       1       1       2       1
       1       1       3       4       5       6       2       7       2       1
       1       2       1       1       3       9       9      10       3       4
      10      10      10       5       6       2       7       2       1       1
       3       4       5       6       6       3       4       5       6       2
       7       2       1       1       3       3      11       3      11       3
       9      10       3      11       3      11       3       4       5       6
       2       7       2       7       7       8       3       4       5       6
       2       7       7       7       1       2       1       1       3       4
       5       6       2       7       2       1       1       3       5       6
       3      12       5       6       3      13       3       4       5       6
       2       7       2       1       1       2       1       2       1       1
       1       2       1       1       1       3       4       5       6       2
       7       2       7       7       8       3       4       5       6       2
       7       7       3       4       5       6       2       7       2       7
       7       9      10       3       4       5       6       2       7       2
       1       1       3       5       6       3      12       5       6       3
      13       3       4       5       6       2       7       2       1       1
       2       1       2       1       1       1       2       1       1       1
       3       4       5       6       2       7       2       1       2       1
       1       1       2       1       1       1       3       4       5       6
       2       7       2       1       1       2       1       1       3       9
       9      10       3       4      10      10      10       5       6       2
       7       2       1       1       1       3       4       5       6       2
       7       2       1       1       2       1       2       1       1       1
       2       1       1       1       3       4       5       6       2       7
       2       1       1       3       3      11       3      11       3       9
      10       3      11       3      11       3       4       5       6       2
       7       2       1       1       2       1       2       1       1       1
       2       1       1       1       3       4       5       6       2       7
       2       1       2       1       1       1       2       1       1       1
       3       4       5       6       2       7       2       7       7       8
       3       4       5       6       2       7       7       3       4       5
       6       2       7       2       1       1       2       1       1       3
       9       9      10       3       4      10      10      10       5       6
       2       7       2       1       1       2       1       1       2       7
       7       5       6       3       5       6       6       5       6       6
       3       4       5       6       2       7       7       3       4       5
       6       2       7       2       1       1       3       3      11       3
      11       3      11       3      11       3      11       3       4       5
       6       2       7       2       1       1       3       3      11       3
      11       3      11       3      11       3      11       3       4       5
       6       2       7       2       1       1       3       3      11       3
      11       3       9      10       3      11       3      11       3       4
       5       6       2       7       2       7       2       1       1       1
       9      10       3       4       5       6       2       7       7       7
       1       2       1       1       3       4       5       6       2       7
       2       1       1       2       1       1       3       4       5       6
       6       3       4       5       6       2       7       2       7       7
       8       3       4       5       6       2       7       2       7       7
       8       3       4       5       6       2       7       2       7       2
       1       1       1       9      10       3       4       5       6       2
       7       2       7       7       9      10       3       4       5       6
       2       7       2       1       2       1       1       1       2       1
       1       2       1       1       1       3       4       5       6       2
       7       2       7       7       8       3       4       5       6       2
       7       2       7       7       9      10       3       4       5       6
       2       7       2       1       1       2       1       2       1       1
       1       2       1       1       1       3       4       5       6       2
       7       2       1       1       3       3      11       3      11       3
       9      10       3      11       3      11       3       4       5       6
       2       7       2       1       1       2       1       1       3       4
       5       6       6       3       4       5       6       2       7       2
       1       1       2       1       2       1       1       1       2       1
       1       1       3       4       5       6       2       7       2       1
       1       2       1       1       3       9       9      10       3       4
      10      10      10       5       6       2       7       2       1       1
       3       4       5       6       6       3       4       5       6       2
       7       2       1       1       3       3      11       3      11       3
       9      10       3      11       3      11       3       4       5       6
       2       7       2       7       7       8       3       4       5       6
       2       7       7       7       1       2       1       1       3       4
       5       6       2       7       2       1       1       3       5       6
       3      12       5       6       3      13       3       4       5       6
       2       7       2       1       1       2       1       2       1       1
       1       2       1       1       1       3       4       5       6       2
       7       2       7       7       8       3       4       5       6       2
       7       7       3       4       5       6       2       7       2       7
       7       9      10       3       4       5       6       2       7       2
       1       1       3       5       6       3      12       5       6       3
      13       3       4       5       6       2       7       2       1       1
       2       1       2       1       1       1       2       1       1       1
       3       4       5       6       2       7       2       1       2       1
       1       1       2       1       1       1       3       4       5       6
       2       7       2       1       1       2       1       1       3       9
       9      10       3       4      10      10      10       5       6       2
       7       2       1       1       1       3       4       5       6       2
       7       2       1       1       2       1       2       1       1       1
       2       1       1       1       3       4       5       6       2       7
       2       1       1       3       3      11       3      11       3       9
      10       3      11       3      11       3       4       5       6       2
       7       2       1       1       2       1       2       1       1       1
       2       1       1       1       3       4       5       6       2       7
       2       1       2       1       1       1       2       1       1       1
       3       4       5       6       2       7       2       7       7       8
       3       4       5       6       2       7       7       3       4       5
       6       2       7       2       1       1       2       1       1       3
       9       9      10       3       4      10      10      10       5       6
       2       7       2       1       1       2       1       1       2       7
       7       5       6       3       5       6       6       5       6       6
       3       4       5       6       2       7       7       3       4       5
       6       2       7       2       1       1       3       3      11       3
      11       3      11       3      11       3      11       3       4       5
       6       2       7       2       1       1       3       3      11       3
      11       3      11       3      11       3      11       3       4       5
       6       2       7       2       1       1       3       3      11       3
      11       3       9      10       3      11       3      11       3       4
       5       6       2       7       2       7       2       1       1       1
       9      10       3       4       5       6       2       7       7       7
       1       2       1       1       3       4       5       6       2       7
       2       1       1       2       1       1       3       4       5       6
       6       3       4       5       6       2       7       2       7       7
       8       3       4       5       6       2       7       2       7       7
       8       3       4       5       6       2       7       2       7       2
       1       1       1       9      10       3       4       5       6       2
       7       2       7       7       9      10       3       4       5       6
       2       7       2       1       2       1       1       1       2       1
       1       2       1       1       1       3       4       5       6       2
       7       2       7       7       8       3       4       5       6       2
       7       2       7       7       9      10       3       4       5       6
       2       7       2       1       1       2       1       2       1       1
       1       2       1       1       1       3       4       5       6       2
       7       2       1       1       3       3      11       3      11       3
       9      10       3      11       3      11       3       4       5       6
       2       7       2       1       1       2       1       1       3       4
       5       6       6       3       4       5       6       2       7       2
       1       1       2       1       2       1       1       1       2       1
       1       1       3       4       5       6       2       7       2       1
       1       2       1       1       3       9       9      10       3       4
      10      10      10       5       6       2       7       2       1       1
       3       4       5       6       6       3       4       5       6       2
       7       2       1       1       3       3      11       3      11       3
       9      10       3      11       3      11       3       4       5       6
       2       7       2       7       7       8       3       4       5       6
       2       7       7       7       1       2       1       1       3       4
       5       6       2       7       2       1       1       3       5       6
       3      12       5       6       3      13       3       4       5       6
       2       7       2       1       1       2       1       2       1       1
       1       2       1       1       1       3       4       5       6       2
       7       2       7       7       8       3       4       5       6       2
       7       7       3       4       5       6       2       7       2       7
       7       9      10       3       4       5       6       2       7       2
       1       1       3       5       6       3      12       5       6       3
      13       3       4       5       6       2       7       2       1       1
       2       1       2       1       1       1       2       1       1       1
       3       4       5       6       2       7       2       1       2       1
       1       1       2       1       1       1       3       4       5       6
       2       7       2       1       1       2       1       1       3       9
       9      10       3       4      10      10      10       5       6       2
       7       2       1       1       1       3       4       5       6       2
       7       2       1       1       2       1       2       1       1       1
       2       1       1       1       3       4       5       6       2       7
       2       1       1       3       3      11       3      11       3       9
      10       3      11       3      11       3       4       5       6       2
       7       2       1       1       2       1       2       1       1       1
       2       1       1       1       3       4       5       6       2       7
       2       1       2       1       1       1       2       1       1       1
       3       4       5       6       2       7       2       7       7       8
       3       4       5       6       2       7       7       3       4       5
       6       2       7       2       1       1       2       1       1       3
       9       9      10       3       4      10      10      10       5       6
       2       7       2       1       1       2       1       1       2       7
       7       5       6       3       5       6       6       5       6       6
       3       4       5       6       2       7       7       3       4       5
       6       2       7       2       1       1       3       3      11       3
      11       3      11       3      11       3      11       3       4       5
       6       2       7       2       1       1       3       3      11       3
      11       3      11       3      11       3      11       3       4       5
       6       2       7       2       1       1       3       3      11       3
      11       3       9      10       3      11       3      11       3       4
       5       6       2       7       2       7       2       1       1       1
       9      10       3       4       5       6       2       7       7       7
       1       2       1       1       3       4       5       6       2       7
       2       1       1       2       1       1       3       4       5       6
       6       3       4       5       6       2       7       2       7       7
       8       3       4       5       6       2       7       2       7       7
       8       3       4       5       6       2       7       2       7       2
       1       1       1       9      10       3       4       5       6       2
       7       2       7       7       9      10       3       4       5       6
       2       7       2       1       2       1       1       1       2       1
       1       2       1       1       1       3       4       5       6       2
       7       2       7       7       8       3       4       5       6       2
       7       2       7       7       9      10       3       4       5       6
       2       7       2       1       1       2       1       2       1       1
       1       2       1       1       1       3       4       5       6       2
       7       2       1       1       3       3      11       3      11       3
       9      10       3      11       3      11       3       4       5       6
       2       7       2       1       1       2       1       1       3       4
       5       6       6       3       4       5       6       2       7       2
       1       1       2       1       2       1       1       1       2       1
       1       1       3       4       5       6       2       7       2       1
       1       2       1       1       3       9       9      10       3       4
      10      10      10       5       6       2       7       2       1       1
       3       4       5       6       6       3       4       5       6       2
       7       2       1       1       3       3      11       3      11       3
       9      10       3      11       3      11       3       4       5       6
       2       7       2       7       7       8       3       4       5       6
       2       7       7       7       1       2       1       1       3       4
       5       6       2       7       2       1       1       3       5       6
       3      12       5       6       3      13       3       4       5       6
       2       7       2       1       1       2       1       2       1       1
       1       2       1       1       1       3       4       5       6       2
       7       2       7       7       8       3       4       5       6       2
       7       7       3       4       5       6       2       7       2       7
       7       9      10       3       4       5       6       2       7       2
       1       1       3       5       6       3      12       5       6       3
      13       3       4       5       6       2       7       2       1       1
       2       1       2       1       1       1       2       1       1       1
       3       4       5       6       2       7       2       1       2       1
       1       1       2       1       1       1       3       4       5       6
       2       7       2       1       1       2       1       1       3       9
       9      10       3       4      10      10      10       5       6       2
       7       2       1       1       1       3       4       5       6       2
       7       2       1       1       2       1       2       1       1       1
       2       1       1       1       3       4       5       6       2       7
       2       1       1       3       3      11       3      11       3       9
      10       3      11       3      11       3       4       5       6       2
       7       2       1       1       2       1       2       1       1       1
       2       1       1       1       3       4       5       6       2       7
       2       1       2       1       1       1       2       1       1       1
       3       4       5       6       2       7       2       7       7       8
       3       4       5       6       2       7       7       3       4       5
       6       2       7       2       1       1       2       1       1       3
       9       9      10       3       4      10      10      10       5       6
       2       7       2       1       1       2       1       1       2       7
       7       5       6       3       5       6       6       5       6       6
       3       4       5       6       2       7       7       3       4       5
       6       2       7       2       1       1       3       3      11       3
      11       3      11       3      11       3      11       3       4       5
       6       2       7       2       1       1       3       3      11       3
      11       3      11       3      11       3      11       3       4       5
       6       2       7       2       1       1       3       3      11       3
      11       3       9      10       3      11       3      11       3       4
       5       6       2       7       2       7       2       1       1       1
       9      10       3       4       5       6       2       7       7       7
      14      10      10      14      10      10      14      10      10      14
      10      10      14      10      10      14      10      10      14      10
      10      14      10      10      14      10      10      14      10      10
      14      10      10      14      10      10      14      10      10      14
      10      10      14      10      10      14      10      10      14      10
      10      14      10      10      14      10      10      14      10      10
      14      10      10      14      10      10      14      10      10      14
      10      10      14      10      10      14      10      10      14      10
      10      14      10      10      14      10      10      14      10      10
      14      10      10      14      10      10      14      10      10      14
      10      10      14      10      10      14      10      10      14      10
      10      14      10      10      14      10      10      14      10      10
      14      10      10      14      10      10      14      10      10      14
      10      10      14      10      10      14      10      10      14      10
      10      14      10      10      14      10      10      14      10      10
      14      10      10      14      10      10      14      10      10      14
      10      10      14      10      10      14      10      10      14      10
      10      14      10      10      14      10      10      14      10      10
      14      10      10      14      10      10      14      10      10      14
      10      10      14      10      10      14      10      10      14      10
      10      14      10      10      14      10      10      14      10      10
      14      10      10      14      10      10      14      10      10      14
      10      10      14      10      10      14      10      10      14      10
      10      14      10      10      14      10      10      14      10      10
      14      10      10      14      10      10      14      10      10      14
      10      10      14      10      10      14      10      10      14      10
      10      14      10      10      14      10      10      14      10      10
      14      10      10      14      10      10      14      10      10      14
      10      10      14      10      10      14      10      10      14      10
      10      14      10      10      14      10      10      14      10      10
      14      10      10      14      10      10      14      10      10      14
      10      10      14      10      10      14      10      10      14      10
      10      14      10      10      14      10      10      14      10      10
      14      10      10      14      10      10      14      10      10      14
      10      10      14      10      10      14      10      10      14      10
      10      14      10      10      14      10      10      14      10      10
      14      10      10      14      10      10      14      10      10      14
      10      10      14      10      10      14      10      10      14      10
      10      14      10      10      14      10      10      14      10      10
      14      10      10      14      10      10      14      10      10      14
      10      10      14      10      10      14      10      10      14      10
      10      14      10      10      14      10      10      14      10      10
      14      10      10      14      10      10      14      10      10      14
      10      10      14      10      10      14      10      10      14      10
      10      14      10      10      14      10      10      14      10      10
      14      10      10      14      10      10      14      10      10      14
      10      10      14      10      10      14      10      10      14      10
      10      14      10      10      14      10      10      14      10      10
      14      10      10      14      10      10      14      10      10      14
      10      10      14      10      10      14      10      10      14      10
      10      14      10      10      14      10      10      14      10      10
      14      10      10      14      10      10      14      10      10      14
      10      10      14      10      10      14      10      10      14      10
      10      14      10      10      14      10      10      14      10      10
      14      10      10      14      10      10      14      10      10      14
      10      10      14      10      10      14      10      10      14      10
      10      14      10      10      14      10      10      14      10      10
      14      10      10      14      10      10      14      10      10      14
      10      10      14      10      10      14      10      10      14      10
      10      14      10      10      14      10      10      14      10      10
      14      10      10      14      10      10      14      10      10      14
      10      10      14      10      10      14      10      10      14      10
      10      14      10      10      14      10      10      14      10      10
      14      10      10      14      10      10      14      10      10      14
      10      10      14      10      10      14      10      10      14      10
      10      14      10      10      14      10      10      14      10      10
      14      10      10      14      10      10      14      10      10      14
      10      10      14      10      10      14      10      10      14      10
      10      14      10      10      14      10      10      14      10      10
      14      10      10      14      10      10      14      10      10      14
      10      10      14      10      10      14      10      10      14      10
      10      14      10      10      14      10      10      14      10      10
      14      10      10      14      10      10      14      10      10      14
      10      10      14      10      10      14      10      10      14      10
      10      14      10      10      14      10      10      14      10      10
      14      10      10      14      10      10      14      10      10      14
      10      10      14      10      10      14      10      10      14      10
      10      14      10      10      14      10      10      14      10      10
      14      10      10      14      10      10      14      10      10      14
      10      10      14      10      10      14      10      10      14      10
      10      14      10      10      14      10      10      14      10      10
      14      10      10      14      10      10      14      10      10      14
      10      10      14      10      10      14      10      10      14      10
      10      14      10      10      14      10      10      14      10      10
      14      10      10      14      10      10      14      10      10      14
      10      10      14      10      10      14      10      10      14      10
      10      14      10      10      14      10      10      14      10      10
      14      10      10      14      10      10      14      10      10      14
      10      10      14      10      10      14      10      10      14      10
      10      14      10      10      14      10      10      14      10      10
      14      10      10      14      10      10      14      10      10      14
      10      10      14      10      10      14      10      10      14      10
      10      14      10      10      14      10      10      14      10      10
      14      10      10      14      10      10      14      10      10      14
      10      10      14      10      10      14      10      10      14      10
      10      14      10      10      14      10      10      14      10      10
      14      10      10      14      10      10      14      10      10      14
      10      10      14      10      10      14      10      10      14      10
      10      14      10      10      14      10      10      14      10      10
      14      10      10      14      10      10      14      10      10      14
      10      10      14      10      10      14      10      10      14      10
      10      14      10      10      14      10      10      14      10      10
      14      10      10      14      10      10      14      10      10      14
      10      10      14      10      10      14      10      10      14      10
      10      14      10      10      14      10      10      14      10      10
      14      10      10      14      10      10      14      10      10      14
      10      10      14      10      10      14      10      10      14      10
      10      14      10      10      14      10      10      14      10      10
      14      10      10      14      10      10      14      10      10      14
      10      10      14      10      10      14      10      10      14      10
      10      14      10      10      14      10      10      14      10      10
      14      10      10      14      10      10      14      10      10      14
      10      10      14      10      10      14      10      10      14      10
      10      14      10      10      14      10      10      14      10      10
      14      10      10      14      10      10      14      10      10      14
      10      10      14      10      10      14      10      10      14      10
      10      14      10      10      14      10      10      14      10      10
      14      10      10      14      10      10      14      10      10      14
      10      10      14      10      10      14      10      10      14      10
      10      14      10      10      14      10      10      14      10      10
      14      10      10      14      10      10      14      10      10      14
      10      10      14      10      10      14      10      10      14      10
      10      14      10      10      14      10      10      14      10      10
      14      10      10      14      10      10      14      10      10      14
      10      10      14      10      10      14      10      10      14      10
      10      14      10      10      14      10      10      14      10      10
      14      10      10      14      10      10      14      10      10      14
      10      10      14      10      10      14      10      10      14      10
      10      14      10      10      14      10      10      14      10      10
      14      10      10      14      10      10      14      10      10      14
      10      10      14      10      10      14      10      10      14      10
      10      14      10      10      14      10      10      14      10      10
      14      10      10      14      10      10      14      10      10      14
      10      10      14      10      10      14      10      10      14      10
      10      14      10      10      14      10      10      14      10      10
      14      10      10      14      10      10      14      10      10      14
      10      10      14      10      10      14      10      10      14      10
      10      14      10      10      14      10      10      14      10      10
      14      10      10      14      10      10      14      10      10      14
      10      10      14      10      10      14      10      10      14      10
      10      14      10      10      14      10      10      14      10      10
      14      10      10      14      10      10      14      10      10      14
      10      10      14      10      10      14      10      10      14      10
      10      14      10      10      14      10      10      14      10      10
      14      10      10      14      10      10      14      10      10      14
      10      10      14      10      10      14      10      10      14      10
      10      14      10      10      14      10      10      14      10      10
      14      10      10      14      10      10      14      10      10      14
      10      10      14      10      10      14      10      10      14      10
      10      14      10      10      14      10      10      14      10      10
      14      10      10      14      10      10      14      10      10      14
      10      10      14      10      10      14      10      10      14      10
      10      14      10      10      14      10      10      14      10      10
      14      10      10      14      10      10      14      10      10      14
      10      10      14      10      10      14      10      10      14      10
      10      14      10      10      14      10      10      14      10      10
      14      10      10      14      10      10      14      10      10      14
      10      10      14      10      10      14      10      10      14      10
      10      14      10      10      14      10      10      14      10      10
      14      10      10      14      10      10      14      10      10      14
      10      10      14      10      10      14      10      10      14      10
      10      14      10      10      14      10      10      14      10      10
      14      10      10      14      10      10      14      10      10      14
      10      10      14      10      10      14      10      10      14      10
      10      14      10      10      14      10      10      14      10      10
      14      10      10      14      10      10      14      10      10      14
      10      10      14      10      10      14      10      10      14      10
      10      14      10      10      14      10      10      14      10      10
      14      10      10      14      10      10      14      10      10      14
      10      10      14      10      10      14      10      10      14      10
      10      14      10      10      14      10      10      14      10      10
      14      10      10      14      10      10      14      10      10      14
      10      10      14      10      10      14      10      10      14      10
      10      14      10      10      14      10      10      14      10      10
      14      10      10      14      10      10      14      10      10      14
      10      10      14      10      10      14      10      10      14      10
      10      14      10      10      14      10      10      14      10      10
      14      10      10      14      10      10      14      10      10      14
      10      10      14      10      10      14      10      10      14      10
      10      14      10      10      14      10      10      14      10      10
      14      10      10      14      10      10      14      10      10      14
      10      10      14      10      10      14      10      10      14      10
      10      14      10      10      14      10      10      14      10      10
      14      10      10      14      10      10      14      10      10      14
      10      10      14      10      10      14      10      10      14      10
      10      14      10      10      14      10      10      14      10      10
      14      10      10      14      10      10      14      10      10      14
      10      10      14      10      10      14      10      10      14      10
      10      14      10      10      14      10      10      14      10      10
      14      10      10      14      10      10      14      10      10      14
      10      10      14      10      10      14      10      10      14      10
      10      14      10      10      14      10      10      14      10      10
      14      10      10      14      10      10      14      10      10      14
      10      10      14      10      10      14      10      10      14      10
      10      14      10      10      14      10      10      14      10      10
      14      10      10      14      10      10      14      10      10      14
      10      10      14      10      10      14      10      10      14      10
      10      14      10      10      14      10      10      14      10      10
      14      10      10      14      10      10      14      10      10      14
      10      10      14      10      10      14      10      10      14      10
      10      14      10      10      14      10      10      14      10      10
      14      10      10      14      10      10      14      10      10      14
      10      10      14      10      10      14      10      10      14      10
      10      14      10      10      14      10      10      14      10      10
      14      10      10      14      10      10      14      10      10      14
      10      10      14      10      10      14      10      10      14      10
      10      14      10      10      14      10      10      14      10      10
      14      10      10      14      10      10      14      10      10      14
      10      10      14      10      10      14      10      10      14      10
      10      14      10      10      14      10      10      14      10      10
      14      10      10      14      10      10      14      10      10      14
      10      10      14      10      10      14      10      10      14      10
      10      14      10      10      14      10      10      14      10      10
      14      10      10      14      10      10      14      10      10      14
      10      10      14      10      10      14      10      10      14      10
      10      14      10      10      14      10      10      14      10      10
      14      10      10      14      10      10      14      10      10      14
      10      10      14      10      10      14      10      10      14      10
      10      14      10      10      14      10      10      14      10      10
      14      10      10      14      10      10      14      10      10      14
      10      10      14      10      10      14      10      10      14      10
      10      14      10      10      14      10      10      14      10      10
      14      10      10      14      10      10      14      10      10      14
      10      10      14      10      10      14      10      10      14      10
      10      14      10      10      14      10      10      14      10      10
      14      10      10      14      10      10      14      10      10      14
      10      10      14      10      10      14      10      10      14      10
      10      14      10      10      14      10      10      14      10      10
      14      10      10      14      10      10      14      10      10      14
      10      10      14      10      10      14      10      10      14      10
      10      14      10      10      14      10      10      14      10      10
      14      10      10      14      10      10      14      10      10      14
      10      10      14      10      10      14      10      10      14      10
      10      14      10      10      14      10      10      14      10      10
      14      10      10      14      10      10      14      10      10      14
      10      10      14      10      10      14      10      10      14      10
      10      14      10      10      14      10      10      14      10      10
      14      10      10      14      10      10      14      10      10      14
      10      10      14      10      10      14      10      10      14      10
      10      14      10      10      14      10      10      14      10      10
      14      10      10      14      10      10      14      10      10      14
      10      10      14      10      10      14      10      10      14      10
      10      14      10      10      14      10      10      14      10      10
      14      10      10      14      10      10      14      10      10      14
      10      10      14      10      10      14      10      10      14      10
      10      14      10      10      14      10      10      14      10      10
      14      10      10      14      10      10      14      10      10      14
      10      10      14      10      10      14      10      10      14      10
      10      14      10      10      14      10      10      14      10      10
      14      10      10      14      10      10      14      10      10      14
      10      10      14      10      10      14      10      10      14      10
      10      14      10      10      14      10      10      14      10      10
      14      10      10      14      10      10      14      10      10      14
      10      10      14      10      10      14      10      10      14      10
      10      14      10      10      14      10      10      14      10      10
      14      10      10      14      10      10      14      10      10      14
      10      10      14      10      10      14      10      10      14      10
      10      14      10      10      14      10      10      14      10      10
      14      10      10      14      10      10      14      10      10      14
      10      10      14      10      10      14      10      10      14      10
      10      14      10      10      14      10      10      14      10      10
      14      10      10      14      10      10      14      10      10      14
      10      10      14      10      10      14      10      10      14      10
      10      14      10      10      14      10      10      14      10      10
      14      10      10      14      10      10      14      10      10      14
      10      10      14      10      10      14      10      10      14      10
      10      14      10      10      14      10      10      14      10      10
      14      10      10      14      10      10      14      10      10      14
      10      10      14      10      10      14      10      10      14      10
      10      14      10      10      14      10      10      14      10      10
      14      10      10      14      10      10      14      10      10      14
      10      10      14      10      10      14      10      10      14      10
      10      14      10      10      14      10      10      14      10      10
      14      10      10      14      10      10      14      10      10      14
      10      10      14      10      10      14      10      10      14      10
      10      14      10      10      14      10      10      14      10      10
      14      10      10      14      10      10      14      10      10      14
      10      10      14      10      10      14      10      10      14      10
      10      14      10      10      14      10      10      14      10      10
      14      10      10      14      10      10      14      10      10      14
      10      10      14      10      10      14      10      10      14      10
      10      14      10      10      14      10      10      14      10      10
      14      10      10      14      10      10      14      10      10      14
      10      10      14      10      10      14      10      10      14      10
      10      14      10      10      14      10      10      14      10      10
      14      10      10      14      10      10      14      10      10      14
      10      10      14      10      10      14      10      10      14      10
      10      14      10      10      14      10      10      14      10      10
      14      10      10      14      10      10      14      10      10      14
      10      10      14      10      10      14      10      10      14      10
      10      14      10      10      14      10      10      14      10      10
      14      10      10      14      10      10      14      10      10      14
      10      10      14      10      10      14      10      10      14      10
      10      14      10      10      14      10      10      14      10      10
      14      10      10      14      10      10      14      10      10      14
      10      10      14      10      10      14      10      10      14      10
      10      14      10      10      14      10      10      14      10      10
      14      10      10      14      10      10      14      10      10      14
      10      10      14      10      10      14      10      10      14      10
      10      14      10      10      14      10      10      14      10      10
      14      10      10      14      10      10      14      10      10      14
      10      10      14      10      10      14      10      10      14      10
      10      14      10      10      14      10      10      14      10      10
      14      10      10      14      10      10      14      10      10      14
      10      10      14      10      10      14      10      10      14      10
      10      14      10      10      14      10      10      14      10      10
      14      10      10      14      10      10      14      10      10      14
      10      10      14      10      10      14      10      10      14      10
      10      14      10      10      14      10      10      14      10      10
      14      10      10      14      10      10      14      10      10      14
      10      10      14      10      10      14      10      10      14      10
      10      14      10      10      14      10      10      14      10      10
      14      10      10      14      10      10      14      10      10      14
      10      10      14      10      10      14      10      10      14      10
      10      14      10      10      14      10      10      14      10      10
      14      10      10      14      10      10      14      10      10      14
      10      10      14      10      10      14      10      10      14      10
      10      14      10      10      14      10      10      14      10      10
      14      10      10      14      10      10      14      10      10      14
      10      10      14      10      10      14      10      10      14      10
      10      14      10      10      14      10      10      14      10      10
      14      10      10      14      10      10      14      10      10      14
      10      10      14      10      10      14      10      10      14      10
      10      14      10      10      14      10      10      14      10      10
      14      10      10      14      10      10      14      10      10      14
      10      10      14      10      10      14      10      10      14      10
      10      14      10      10      14      10      10      14      10      10
      14      10      10      14      10      10      14      10      10      14
      10      10      14      10      10      14      10      10      14      10
      10      14      10      10      14      10      10      14      10      10
      14      10      10      14      10      10      14      10      10      14
      10      10      14      10      10      14      10      10      14      10
      10      14      10      10      14      10      10      14      10      10
      14      10      10      14      10      10      14      10      10      14
      10      10      14      10      10      14      10      10      14      10
      10      14      10      10      14      10      10      14      10      10
      14      10      10      14      10      10      14      10      10      14
      10      10      14      10      10      14      10      10      14      10
      10      14      10      10      14      10      10      14      10      10
      14      10      10      14      10      10      14      10      10      14
      10      10      14      10      10      14      10      10      14      10
      10      14      10      10      14      10      10      14      10      10
      14      10      10      14      10      10      14      10      10      14
      10      10      14      10      10      14      10      10      14      10
      10      14      10      10      14      10      10      14      10      10
      14      10      10      14      10      10      14      10      10      14
      10      10      14      10      10      14      10      10      14      10
      10      14      10      10      14      10      10      14      10      10
      14      10      10      14      10      10      14      10      10      14
      10      10      14      10      10      14      10      10      14      10
      10      14      10      10      14      10      10      14      10      10
      14      10      10      14      10      10      14      10      10      14
      10      10      14      10      10      14      10      10      14      10
      10      14      10      10      14      10      10      14      10      10
      14      10      10      14      10      10      14      10      10      14
      10      10      14      10      10      14      10      10      14      10
      10      14      10      10      14      10      10      14      10      10
      14      10      10      14      10      10      14      10      10      14
      10      10      14      10      10      14      10      10      14      10
      10      14      10      10      14      10      10      14      10      10
      14      10      10      14      10      10      14      10      10      14
      10      10      14      10      10      14      10      10      14      10
      10      14      10      10      14      10      10      14      10      10
      14      10      10      14      10      10      14      10      10      14
      10      10      14      10      10      14      10      10      14      10
      10      14      10      10      14      10      10      14      10      10
      14      10      10      14      10      10      14      10      10      14
      10      10      14      10      10      14      10      10      14      10
      10      14      10      10      14      10      10      14      10      10
      14      10      10      14      10      10      14      10      10      14
      10      10      14      10      10      14      10      10      14      10
      10      14      10      10      14      10      10      14      10      10
      14      10      10      14      10      10      14      10      10      14
      10      10      14      10      10      14      10      10      14      10
      10      14      10      10      14      10      10      14      10      10
      14      10      10      14      10      10      14      10      10      14
      10      10      14      10      10      14      10      10      14      10
      10      14      10      10      14      10      10      14      10      10
      14      10      10      14      10      10      14      10      10      14
      10      10      14      10      10      14      10      10      14      10
      10      14      10      10      14      10      10      14      10      10
      14      10      10      14      10      10      14      10      10      14
      10      10      14      10      10      14      10      10      14      10
      10      14      10      10      14      10      10      14      10      10
      14      10      10      14      10      10      14      10      10      14
      10      10      14      10      10      14      10      10      14      10
      10      14      10      10      14      10      10      14      10      10
      14      10      10      14      10      10      14      10      10      14
      10      10      14      10      10      14      10      10      14      10
      10      14      10      10      14      10      10      14      10      10
      14      10      10      14      10      10      14      10      10      14
      10      10      14      10      10      14      10      10      14      10
      10      14      10      10      14      10      10      14      10      10
      14      10      10      14      10      10      14      10      10      14
      10      10      14      10      10      14      10      10      14      10
      10      14      10      10      14      10      10      14      10      10
      14      10      10      14      10      10      14      10      10      14
      10      10      14      10      10      14      10      10      14      10
      10      14      10      10      14      10      10      14      10      10
      14      10      10      14      10      10      14      10      10      14
      10      10      14      10      10      14      10      10      14      10
      10      14      10      10      14      10      10      14      10      10
      14      10      10      14      10      10      14      10      10      14
      10      10      14      10      10      14      10      10      14      10
      10      14      10      10      14      10      10      14      10      10
      14      10      10      14      10      10      14      10      10      14
      10      10      14      10      10      14      10      10      14      10
      10      14      10      10      14      10      10      14      10      10
      14      10      10      14      10      10      14      10      10      14
      10      10      14      10      10      14      10      10      14      10
      10      14      10      10      14      10      10      14      10      10
      14      10      10      14      10      10      14      10      10      14
      10      10      14      10      10      14      10      10      14      10
      10      14      10      10      14      10      10      14      10      10
      14      10      10      14      10      10      14      10      10      14
      10      10      14      10      10      14      10      10      14      10
      10      14      10      10      14      10      10      14      10      10
      14      10      10      14      10      10      14      10      10      14
      10      10      14      10      10      14      10      10      14      10
      10      14      10      10      14      10      10      14      10      10
      14      10      10      14      10      10      14      10      10      14
      10      10      14      10      10      14      10      10      14      10
      10      14      10      10      14      10      10      14      10      10
      14      10      10      14      10      10      14      10      10      14
      10      10      14      10      10      14      10      10      14      10
      10      14      10      10      14      10      10      14      10      10
      14      10      10      14      10      10      14      10      10      14
      10      10      14      10      10      14      10      10      14      10
      10      14      10      10      14      10      10      14      10      10
      14      10      10      14      10      10      14      10      10      14
      10      10      14      10      10      14      10      10      14      10
      10      14      10      10      14      10      10      14      10      10
      14      10      10      14      10      10      14      10      10      14
      10      10      14      10      10      14      10      10      14      10
      10      14      10      10      14      10      10      14      10      10
      14      10      10      14      10      10      14      10      10      14
      10      10      14      10      10      14      10      10      14      10
      10      14      10      10      14      10      10      14      10      10
      14      10      10      14      10      10      14      10      10      14
      10      10      14      10      10      14      10      10      14      10
      10      14      10      10      14      10      10      14      10      10
      14      10      10      14      10      10      14      10      10      14
      10      10      14      10      10      14      10      10      14      10
      10      14      10      10      14      10      10      14      10      10
      14      10      10      14      10      10      14      10      10      14
      10      10      14      10      10      14      10      10      14      10
      10      14      10      10      14      10      10      14      10      10
      14      10      10      14      10      10      14      10      10      14
      10      10      14      10      10      14      10      10      14      10
      10      14      10      10      14      10      10      14      10      10
      14      10      10      14      10      10      14      10      10      14
      10      10      14      10      10      14      10      10      14      10
      10      14      10      10      14      10      10      14      10      10
      14      10      10      14      10      10      14      10      10      14
      10      10      14      10      10      14      10      10      14      10
      10      14      10      10      14      10      10      14      10      10
      14      10      10      14      10      10      14      10      10      14
      10      10      14      10      10      14      10      10      14      10
      10      14      10      10      14      10      10      14      10      10
      14      10      10      14      10      10      14      10      10      14
      10      10      14      10      10      14      10      10      14      10
      10      14      10      10      14      10      10      14      10      10
      14      10      10      14      10      10      14      10      10      14
      10      10      14      10      10      14      10      10      14      10
      10      14      10      10      14      10      10      14      10      10
      14      10      10      14      10      10      14      10      10      14
      10      10      14      10      10      14      10      10      14      10
      10      14      10      10      14      10      10      14      10      10
      14      10      10      14      10      10      14      10      10      14
      10      10      14      10      10      14      10      10      14      10
      10      14      10      10      14      10      10      14      10      10
      14      10      10      14      10      10      14      10      10      14
      10      10      14      10      10      14      10      10      14      10
      10      14      10      10      14      10      10      14      10      10
      14      10      10      14      10      10      14      10      10      14
      10      10      14      10      10      14      10      10      14      10
      10      14      10      10      14      10      10      14      10      10
      14      10      10      14      10      10      14      10      10      14
      10      10      14      10      10      14      10      10      14      10
      10      14      10      10      14      10      10      14      10      10
      14      10      10      14      10      10      14      10      10      14
      10      10      14      10      10      14      10      10      14      10
      10      14      10      10      14      10      10      14      10      10
      14      10      10      14      10      10      14      10      10      14
      10      10      14      10      10      14      10      10      14      10
      10      14      10      10      14      10      10      14      10      10
      14      10      10      14      10      10      14      10      10      14
      10      10      14      10      10      14      10      10      14      10
      10      14      10      10      14      10      10      14      10      10
      14      10      10      14      10      10      14      10      10      14
      10      10      14      10      10      14      10      10      14      10
      10      14      10      10      14      10      10      14      10      10
      14      10      10      14      10      10      14      10      10      14
      10      10      14      10      10      14      10      10      14      10
      10      14      10      10      14      10      10      14      10      10
      14      10      10      14      10      10      14      10      10      14
      10      10      14      10      10      14      10      10      14      10
      10      14      10      10      14      10      10      14      10      10
      14      10      10      14      10      10      14      10      10      14
      10      10      14      10      10      14      10      10      14      10
      10      14      10      10      14      10      10      14      10      10
      14      10      10      14      10      10      14      10      10      14
      10      10      14      10      10      14      10      10      14      10
      10      14      10      10      14      10      10      14      10      10
      14      10      10      14      10      10      14      10      10      14
      10      10      14      10      10      14      10      10      14      10
      10      14      10      10      14      10      10      14      10      10
      14      10      10      14      10      10      14      10      10      14
      10      10      14      10      10      14      10      10      14      10
      10      14      10      10      14      10      10      14      10      10
      14      10      10      14      10      10      14      10      10      14
      10      10      14      10      10      14      10      10      14      10
      10      14      10      10      14      10      10      14      10      10
      14      10      10      14      10      10      14      10      10      14
      10      10      14      10      10      14      10      10      14      10
      10      14      10      10      14      10      10      14      10      10
      14      10      10      14      10      10      14      10      10      14
      10      10      14      10      10      14      10      10      14      10
      10      14      10      10      14      10      10      14      10      10
      14      10      10      14      10      10      14      10      10      14
      10      10      14      10      10      14      10      10      14      10
      10      14      10      10      14      10      10      14      10      10
      14      10      10      14      10      10      14      10      10      14
      10      10      14      10      10      14      10      10      14      10
      10      14      10      10      14      10      10      14      10      10
      14      10      10      14      10      10      14      10      10      14
      10      10      14      10      10      14      10      10      14      10
      10      14      10      10      14      10      10      14      10      10
      14      10      10      14      10      10      14      10      10      14
      10      10      14      10      10      14      10      10      14      10
      10      14      10      10      14      10      10      14      10      10
      14      10      10      14      10      10      14      10      10      14
      10      10      14      10      10      14      10      10      14      10
      10      14      10      10      14      10      10      14      10      10
      14      10      10      14      10      10      14      10      10      14
      10      10      14      10      10      14      10      10      14      10
      10      14      10      10      14      10      10      14      10      10
      14      10      10      14      10      10      14      10      10      14
      10      10      14      10      10      14      10      10      14      10
      10      14      10      10      14      10      10      14      10      10
      14      10      10      14      10      10      14      10      10      14
      10      10      14      10      10      14      10      10      14      10
      10      14      10      10      14      10      10      14      10      10
      14      10      10      14      10      10      14      10      10      14
      10      10      14      10      10      14      10      10      14      10
      10      14      10      10      14      10      10      14      10      10
      14      10      10      14      10      10      14      10      10      14
      10      10      14      10      10      14      10      10      14      10
      10      14      10      10      14      10      10      14      10      10
      14      10      10      14      10      10      14      10      10      14
      10      10      14      10      10      14      10      10      14      10
      10      14      10      10      14      10      10      14      10      10
      14      10      10      14      10      10      14      10      10      14
      10      10      14      10      10      14      10      10      14      10
      10      14      10      10      14      10      10      14      10      10
      14      10      10      14      10      10      14      10      10      14
      10      10      14      10      10      14      10      10      14      10
      10      14      10      10      14      10      10      14      10      10
      14      10      10      14      10      10      14      10      10      14
      10      10      14      10      10      14      10      10      14      10
      10      14      10      10      14      10      10      14      10      10
      14      10      10      14      10      10      14      10      10      14
      10      10      14      10      10      14      10      10      14      10
      10      14      10      10      14      10      10      14      10      10
      14      10      10      14      10      10      14      10      10      14
      10      10      14      10      10      14      10      10      14      10
      10      14      10      10      14      10      10      14      10      10
      14      10      10      14      10      10      14      10      10      14
      10      10      14      10      10      14      10      10      14      10
      10      14      10      10      14      10      10      14      10      10
      14      10      10      14      10      10      14      10      10      14
      10      10      14      10      10      14      10      10      14      10
      10      14      10      10      14      10      10      14      10      10
      14      10      10      14      10      10      14      10      10      14
      10      10      14      10      10      14      10      10      14      10
      10      14      10      10      14      10      10      14      10      10
      14      10      10      14      10      10      14      10      10      14
      10      10      14      10      10      14      10      10      14      10
      10      14      10      10      14      10      10      14      10      10
      14      10      10      14      10      10      14      10      10      14
      10      10      14      10      10      14      10      10      14      10
      10      14      10      10      14      10      10      14      10      10
      14      10      10      14      10      10      14      10      10      14
      10      10      14      10      10      14      10      10      14      10
      10      14      10      10      14      10      10      14      10      10
      14      10      10      14      10      10      14      10      10      14
      10      10      14      10      10      14      10      10      14      10
      10      14      10      10      14      10      10      14      10      10
      14      10      10      14      10      10      14      10      10      14
      10      10      14      10      10      14      10      10      14      10
      10      14      10      10      14      10      10      14      10      10
      14      10      10      14      10      10      14      10      10      14
      10      10      14      10      10      14      10      10      14      10
      10      14      10      10      14      10      10      14      10      10
      14      10      10      14      10      10      14      10      10      14
      10      10      14      10      10      14      10      10      14      10
      10      14      10      10      14      10      10      14      10      10
      14      10      10      14      10      10      14      10      10      14
      10      10      14      10      10      14      10      10      14      10
      10      14      10      10      14      10      10      14      10      10
      14      10      10      14      10      10      14      10      10      14
      10      10      14      10      10      14      10      10      14      10
      10      14      10      10      14      10      10      14      10      10
      14      10      10      14      10      10      14      10      10      14
      10      10      14      10      10      14      10      10      14      10
      10      14      10      10      14      10      10      14      10      10
      14      10      10      14      10      10      14      10      10      14
      10      10      14      10      10      14      10      10      14      10
      10      14      10      10      14      10      10      14      10      10
      14      10      10      14      10      10      14      10      10      14
      10      10      14      10      10      14      10      10      14      10
      10      14      10      10      14      10      10      14      10      10
      14      10      10      14      10      10      14      10      10      14
      10      10      14      10      10      14      10      10      14      10
      10      14      10      10      14      10      10      14      10      10
      14      10      10      14      10      10      14      10      10      14
      10      10      14      10      10      14      10      10      14      10
      10      14      10      10      14      10      10      14      10      10
      14      10      10      14      10      10      14      10      10      14
      10      10      14      10      10      14      10      10      14      10
      10      14      10      10      14      10      10      14      10      10
      14      10      10      14      10      10      14      10      10      14
      10      10      14      10      10      14      10      10      14      10
      10      14      10      10      14      10      10      14      10      10
      14      10      10      14      10      10      14      10      10      14
      10      10      14      10      10      14      10      10      14      10
      10      14      10      10      14      10      10      14      10      10
      14      10      10      14      10      10      14      10      10      14
      10      10      14      10      10      14      10      10      14      10
      10      14      10      10      14      10      10      14      10      10
      14      10      10      14      10      10      14      10      10      14
      10      10      14      10      10      14      10      10      14      10
      10      14      10      10      14      10      10      14      10      10
      14      10      10      14      10      10      14      10      10      14
      10      10      14      10      10      14      10      10      14      10
      10      14      10      10      14      10      10      14      10      10
      14      10      10      14      10      10      14      10      10      14
      10      10      14      10      10      14      10      10      14      10
      10      14      10      10      14      10      10      14      10      10
      14      10      10      14      10      10      14      10      10      14
      10      10      14      10      10      14      10      10      14      10
      10      14      10      10      14      10      10      14      10      10
      14      10      10      14      10      10      14      10      10      14
      10      10      14      10      10      14      10      10      14      10
      10      14      10      10      14      10      10      14      10      10
      14      10      10      14      10      10      14      10      10      14
      10      10      14      10      10      14      10      10      14      10
      10      14      10      10      14      10      10      14      10      10
      14      10      10      14      10      10      14      10      10      14
      10      10      14      10      10      14      10      10      14      10
      10      14      10      10      14      10      10      14      10      10
      14      10      10      14      10      10      14      10      10      14
      10      10      14      10      10      14      10      10      14      10
      10      14      10      10      14      10      10      14      10      10
      14      10      10      14      10      10      14      10      10      14
      10      10      14      10      10      14      10      10      14      10
      10      14      10      10      14      10      10      14      10      10
      14      10      10      14      10      10      14      10      10      14
      10      10      14      10      10      14      10      10      14      10
      10      14      10      10      14      10      10      14      10      10
      14      10      10      14      10      10      14      10      10      14
      10      10      14      10      10      14      10      10      14      10
      10      14      10      10      14      10      10      14      10      10
      14      10      10      14      10      10      14      10      10      14
      10      10      14      10      10      14      10      10      14      10
      10      14      10      10      14      10      10      14      10      10
      14      10      10      14      10      10      14      10      10      14
      10      10      14      10      10      14      10      10      14      10
      10      14      10      10      14      10      10      14      10      10
      14      10      10      14      10      10      14      10      10      14
      10      10      14      10      10      14      10      10      14      10
      10      14      10      10      14      10      10      14      10      10
      14      10      10      14      10      10      14      10      10      14
      10      10      14      10      10      14      10      10      14      10
      10      14      10      10      14      10      10      14      10      10
      14      10      10      14      10      10      14      10      10      14
      10      10      14      10      10      14      10      10      14      10
      10      14      10      10      14      10      10      14      10      10
      14      10      10      14      10      10      14      10      10      14
      10      10      14      10      10      14      10      10      14      10
      10      14      10      10      14      10      10      14      10      10
      14      10      10      14      10      10      14      10      10      14
      10      10      14      10      10      14      10      10      14      10
      10      14      10      10      14      10      10      14      10      10
      14      10      10      14      10      10      14      10      10      14
      10      10      14      10      10      14      10      10      14      10
      10      14      10      10      14      10      10      14      10      10
      14      10      10      14      10      10      14      10      10      14
      10      10      14      10      10      14      10      10      14      10
      10      14      10      10      14      10      10      14      10      10
      14      10      10      14      10      10      14      10      10      14
      10      10      14      10      10      14      10      10      14      10
      10      14      10      10      14      10      10      14      10      10
      14      10      10      14      10      10      14      10      10      14
      10      10      14      10      10      14      10      10      14      10
      10      14      10      10      14      10      10      14      10      10
      14      10      10      14      10      10      14      10      10      14
      10      10      14      10      10      14      10      10      14      10
      10      14      10      10      14      10      10      14      10      10
      14      10      10      14      10      10      14      10      10      14
      10      10      14      10      10      14      10      10      14      10
      10      14      10      10      14      10      10      14      10      10
      14      10      10      14      10      10      14      10      10      14
      10      10      14      10      10      14      10      10      14      10
      10      14      10      10      14      10      10      14      10      10
      14      10      10      14      10      10      14      10      10      14
      10      10      14      10      10      14      10      10      14      10
      10      14      10      10      14      10      10      14      10      10
      14      10      10      14      10      10      14      10      10      14
      10      10      14      10      10      14      10      10      14      10
      10      14      10      10      14      10      10      14      10      10
      14      10      10      14      10      10      14      10      10      14
      10      10      14      10      10      14      10      10      14      10
      10      14      10      10      14      10      10      14      10      10
      14      10      10      14      10      10      14      10      10      14
      10      10      14      10      10      14      10      10      14      10
      10      14      10      10      14      10      10      14      10      10
      14      10      10      14      10      10      14      10      10      14
      10      10      14      10      10      14      10      10      14      10
      10      14      10      10      14      10      10      14      10      10
      14      10      10      14      10      10      14      10      10      14
      10      10      14      10      10      14      10      10      14      10
      10      14      10      10      14      10      10      14      10      10
      14      10      10      14      10      10      14      10      10      14
      10      10      14      10      10      14      10      10      14      10
      10      14      10      10      14      10      10      14      10      10
      14      10      10      14      10      10      14      10      10      14
      10      10      14      10      10      14      10      10      14      10
      10      14      10      10      14      10      10      14      10      10
      14      10      10      14      10      10      14      10      10      14
      10      10      14      10      10      14      10      10      14      10
      10      14      10      10      14      10      10      14      10      10
      14      10      10      14      10      10      14      10      10      14
      10      10      14      10      10      14      10      10      14      10
      10      14      10      10      14      10      10      14      10      10
      14      10      10      14      10      10      14      10      10      14
      10      10      14      10      10      14      10      10      14      10
      10      14      10      10      14      10      10      14      10      10
      14      10      10      14      10      10      14      10      10      14
      10      10      14      10      10      14      10      10      14      10
      10      14      10      10      14      10      10      14      10      10
      14      10      10      14      10      10      14      10      10      14
      10      10      14      10      10      14      10      10      14      10
      10      14      10      10      14      10      10      14      10      10
      14      10      10      14      10      10      14      10      10      14
      10      10      14      10      10      14      10      10      14      10
      10      14      10      10      14      10      10      14      10      10
      14      10      10      14      10      10      14      10      10      14
      10      10      14      10      10      14      10      10      14      10
      10      14      10      10      14      10      10      14      10      10
      14      10      10      14      10      10      14      10      10      14
      10      10      14      10      10      14      10      10      14      10
      10      14      10      10      14      10      10      14      10      10
      14      10      10      14      10      10      14      10      10      14
      10      10      14      10      10      14      10      10      14      10
      10      14      10      10      14      10      10      14      10      10
      14      10      10      14      10      10      14      10      10      14
      10      10      14      10      10      14      10      10      14      10
      10      14      10      10      14      10      10      14      10      10
      14      10      10      14      10      10      14      10      10      14
      10      10      14      10      10      14      10      10      14      10
      10      14      10      10      14      10      10      14      10      10
      14      10      10      14      10      10      14      10      10      14
      10      10      14      10      10      14      10      10      14      10
      10      14      10      10      14      10      10      14      10      10
      14      10      10      14      10      10      14      10      10      14
      10      10      14      10      10      14      10      10      14      10
      10      14      10      10      14      10      10      14      10      10
      14      10      10      14      10      10      14      10      10      14
      10      10      14      10      10      14      10      10      14      10
      10      14      10      10      14      10      10      14      10      10
      14      10      10      14      10      10      14      10      10      14
      10      10      14      10      10      14      10      10      14      10
      10      14      10      10      14      10      10      14      10      10
      14      10      10      14      10      10      14      10      10      14
      10      10      14      10      10      14      10      10      14      10
      10      14      10      10      14      10      10      14      10      10
      14      10      10      14      10      10      14      10      10      14
      10      10      14      10      10      14      10      10      14      10
      10      14      10      10      14      10      10      14      10      10
      14      10      10      14      10      10      14      10      10      14
      10      10      14      10      10      14      10      10      14      10
      10      14      10      10      14      10      10      14      10      10
      14      10      10      14      10      10      14      10      10      14
      10      10      14      10      10      14      10      10      14      10
      10      14      10      10      14      10      10      14      10      10
      14      10      10      14      10      10      14      10      10      14
      10      10      14      10      10      14      10      10      14      10
      10      14      10      10      14      10      10      14      10      10
      14      10      10      14      10      10      14      10      10      14
      10      10      14      10      10      14      10      10      14      10
      10      14      10      10      14      10      10      14      10      10
      14      10      10      14      10      10      14      10      10      14
      10      10      14      10      10      14      10      10      14      10
      10      14      10      10      14      10      10      14      10      10
      14      10      10      14      10      10      14      10      10      14
      10      10      14      10      10      14      10      10      14      10
      10      14      10      10      14      10      10      14      10      10
      14      10      10      14      10      10      14      10      10      14
      10      10      14      10      10      14      10      10      14      10
      10      14      10      10      14      10      10      14      10      10
      14      10      10      14      10      10      14      10      10      14
      10      10      14      10      10      14      10      10      14      10
      10      14      10      10      14      10      10      14      10      10
      14      10      10      14      10      10      14      10      10      14
      10      10      14      10      10      14      10      10      14      10
      10      14      10      10      14      10      10      14      10      10
      14      10      10      14      10      10      14      10      10      14
      10      10      14      10      10      14      10      10      14      10
      10      14      10      10      14      10      10      14      10      10
      14      10      10      14      10      10      14      10      10      14
      10      10      14      10      10      14      10      10      14      10
      10      14      10      10      14      10      10      14      10      10
      14      10      10      14      10      10      14      10      10      14
      10      10      14      10      10      14      10      10      14      10
      10      14      10      10      14      10      10      14      10      10
      14      10      10      14      10      10      14      10      10      14
      10      10      14      10      10      14      10      10      14      10
      10      14      10      10      14      10      10      14      10      10
      14      10      10      14      10      10      14      10      10      14
      10      10      14      10      10      14      10      10      14      10
      10      14      10      10      14      10      10      14      10      10
      14      10      10      14      10      10      14      10      10      14
      10      10      14      10      10      14      10      10      14      10
      10      14      10      10      14      10      10      14      10      10
      14      10      10      14      10      10      14      10      10      14
      10      10      14      10      10      14      10      10      14      10
      10      14      10      10      14      10      10      14      10      10
      14      10      10      14      10      10      14      10      10      14
      10      10      14      10      10      14      10      10      14      10
      10      14      10      10      14      10      10      14      10      10
      14      10      10      14      10      10      14      10      10      14
      10      10      14      10      10      14      10      10      14      10
      10      14      10      10      14      10      10      14      10      10
      14      10      10      14      10      10      14      10      10      14
      10      10      14      10      10      14      10      10      14      10
      10      14      10      10      14      10      10      14      10      10
      14      10      10      14      10      10      14      10      10      14
      10      10      14      10      10      14      10      10      14      10
      10      14      10      10      14      10      10      14      10      10
      14      10      10      14      10      10      14      10      10      14
      10      10      14      10      10      14      10      10      14      10
      10      14      10      10      14      10      10      14      10      10
      14      10      10      14      10      10      14      10      10      14
      10      10      14      10      10      14      10      10      14      10
      10      14      10      10      14      10      10      14      10      10
      14      10      10      14      10      10      14      10      10      14
      10      10      14      10      10      14      10      10      14      10
      10      14      10      10      14      10      10      14      10      10
      14      10      10      14      10      10      14      10      10      14
      10      10      14      10      10      14      10      10      14      10
      10      14      10      10      14      10      10      14      10      10
      14      10      10      14      10      10      14      10      10      14
      10      10      14      10      10      14      10      10      14      10
      10      14      10      10      14      10      10      14      10      10
      14      10      10      14      10      10      14      10      10      14
      10      10      14      10      10      14      10      10      14      10
      10      14      10      10      14      10      10      14      10      10
      14      10      10      14      10      10      14      10      10      14
      10      10      14      10      10      14      10      10      14      10
      10      14      10      10      14      10      10      14      10      10
      14      10      10      14      10      10      14      10      10      14
      10      10      14      10      10      14      10      10      14      10
      10      14      10      10      14      10      10      14      10      10
      14      10      10      14      10      10      14      10      10      14
      10      10      14      10      10      14      10      10      14      10
      10      14      10      10      14      10      10      14      10      10
      14      10      10      14      10      10      14      10      10      14
      10      10      14      10      10      14      10      10      14      10
      10      14      10      10      14      10      10      14      10      10
      14      10      10      14      10      10      14      10      10      14
      10      10      14      10      10      14      10      10      14      10
      10      14      10      10      14      10      10      14      10      10
      14      10      10      14      10      10      14      10      10      14
      10      10      14      10      10      14      10      10      14      10
      10      14      10      10      14      10      10      14      10      10
      14      10      10      14      10      10      14      10      10      14
      10      10      14      10      10      14      10      10      14      10
      10      14      10      10      14      10      10      14      10      10
      14      10      10      14      10      10      14      10      10      14
      10      10      14      10      10      14      10      10      14      10
      10      14      10      10      14      10      10      14      10      10
      14      10      10      14      10      10      14      10      10      14
      10      10      14      10      10      14      10      10      14      10
      10      14      10      10      14      10      10      14      10      10
      14      10      10      14      10      10      14      10      10      14
      10      10      14      10      10      14      10      10      14      10
      10      14      10      10      14      10      10      14      10      10
      14      10      10      14      10      10      14      10      10      14
      10      10      14      10      10      14      10      10      14      10
      10      14      10      10      14      10      10      14      10      10
      14      10      10      14      10      10      14      10      10      14
      10      10      14      10      10      14      10      10      14      10
      10      14      10      10      14      10      10      14      10      10
      14      10      10      14      10      10      14      10      10      14
      10      10      14      10      10      14      10      10      14      10
      10      14      10      10      14      10      10      14      10      10
      14      10      10      14      10      10      14      10      10      14
      10      10      14      10      10      14      10      10      14      10
      10      14      10      10      14      10      10      14      10      10
      14      10      10      14      10      10      14      10      10      14
      10      10      14      10      10      14      10      10      14      10
      10      14      10      10      14      10      10      14      10      10
      14      10      10      14      10      10      14      10      10      14
      10      10      14      10      10      14      10      10      14      10
      10      14      10      10      14      10      10      14      10      10
      14      10      10      14      10      10      14      10      10      14
      10      10      14      10      10      14      10      10      14      10
      10      14      10      10      14      10      10      14      10      10
      14      10      10      14      10      10      14      10      10      14
      10      10      14      10      10      14      10      10      14      10
      10      14      10      10      14      10      10      14      10      10
      14      10      10      14      10      10      14      10      10      14
      10      10      14      10      10      14      10      10      14      10
      10      14      10      10      14      10      10      14      10      10
      14      10      10      14      10      10      14      10      10      14
      10      10      14      10      10      14      10      10      14      10
      10      14      10      10      14      10      10      14      10      10
      14      10      10      14      10      10      14      10      10      14
      10      10      14      10      10      14      10      10      14      10
      10      14      10      10      14      10      10      14      10      10
      14      10      10      14      10      10      14      10      10      14
      10      10      14      10      10      14      10      10      14      10
      10      14      10      10      14      10      10      14      10      10
      14      10      10      14      10      10      14      10      10      14
      10      10      14      10      10      14      10      10      14      10
      10      14      10      10      14      10      10      14      10      10
      14      10      10      14      10      10      14      10      10      14
      10      10      14      10      10      14      10      10      14      10
      10      14      10      10      14      10      10      14      10      10
      14      10      10      14      10      10      14      10      10      14
      10      10      14      10      10      14      10      10      14      10
      10      14      10      10      14      10      10      14      10      10
      14      10      10      14      10      10      14      10      10      14
      10      10      14      10      10      14      10      10      14      10
      10      14      10      10      14      10      10      14      10      10
      14      10      10      14      10      10      14      10      10      14
      10      10      14      10      10      14      10      10      14      10
      10      14      10      10      14      10      10      14      10      10
      14      10      10      14      10      10      14      10      10      14
      10      10      14      10      10      14      10      10      14      10
      10      14      10      10      14      10      10      14      10      10
      14      10      10      14      10      10      14      10      10      14
      10      10      14      10      10      14      10      10      14      10
      10      14      10      10      14      10      10      14      10      10
      14      10      10      14      10      10      14      10      10      14
      10      10      14      10      10      14      10      10      14      10
      10      14      10      10      14      10      10      14      10      10
      14      10      10      14      10      10      14      10      10      14
      10      10      14      10      10      14      10      10      14      10
      10      14      10      10      14      10      10      14      10      10
      14      10      10      14      10      10      14      10      10      14
      10      10      14      10      10      14      10      10      14      10
      10      14      10      10      14      10      10      14      10      10
      14      10      10      14      10      10      14      10      10      14
      10      10      14      10      10      14      10      10      14      10
      10      14      10      10      14      10      10      14      10      10
      14      10      10      14      10      10      14      10      10      14
      10      10      14      10      10      14      10      10      14      10
      10      14      10      10      14      10      10      14      10      10
      14      10      10      14      10      10      14      10      10      14
      10      10      14      10      10      14      10      10      14      10
      10      14      10      10      14      10      10      14      10      10
      14      10      10      14      10      10      14      10      10      14
      10      10      14      10      10      14      10      10      14      10
      10      14      10      10      14      10      10      14      10      10
      14      10      10      14      10      10      14      10      10      14
      10      10      14      10      10      14      10      10      14      10
      10      14      10      10      14      10      10      14      10      10
      14      10      10      14      10      10      14      10      10      14
      10      10      14      10      10      14      10      10      14      10
      10      14      10      10      14      10      10      14      10      10
      14      10      10      14      10      10      14      10      10      14
      10      10      14      10      10      14      10      10      14      10
      10      14      10      10      14      10      10      14      10      10
      14      10      10      14      10      10      14      10      10      14
      10      10      14      10      10      14      10      10      14      10
      10      14      10      10      14      10      10      14      10      10
      14      10      10      14      10      10      14      10      10      14
      10      10      14      10      10      14      10      10      14      10
      10      14      10      10      14      10      10      14      10      10
      14      10      10      14      10      10      14      10      10      14
      10      10      14      10      10      14      10      10      14      10
      10      14      10      10      14      10      10      14      10      10
      14      10      10      14      10      10      14      10      10      14
      10      10      14      10      10      14      10      10      14      10
      10      14      10      10      14      10      10      14      10      10
      14      10      10      14      10      10      14      10      10      14
      10      10      14      10      10      14      10      10      14      10
      10      14      10      10      14      10      10      14      10      10
      14      10      10      14      10      10      14      10      10      14
      10      10      14      10      10      14      10      10      14      10
      10      14      10      10      14      10      10      14      10      10
      14      10      10      14      10      10      14      10      10      14
      10      10      14      10      10      14      10      10      14      10
      10      14      10      10      14      10      10      14      10      10
      14      10      10      14      10      10      14      10      10      14
      10      10      14      10      10      14      10      10      14      10
      10      14      10      10      14      10      10      14      10      10
      14      10      10      14      10      10      14      10      10      14
      10      10      14      10      10      14      10      10      14      10
      10      14      10      10      14      10      10      14      10      10
      14      10      10      14      10      10      14      10      10      14
      10      10      14      10      10      14      10      10      14      10
      10      14      10      10      14      10      10      14      10      10
      14      10      10      14      10      10      14      10      10      14
      10      10      14      10      10      14      10      10      14      10
      10      14      10      10      14      10      10      14      10      10
      14      10      10      14      10      10      14      10      10      14
      10      10      14      10      10      14      10      10      14      10
      10      14      10      10      14      10      10      14      10      10
      14      10      10      14      10      10      14      10      10      14
      10      10      14      10      10      14      10      10      14      10
      10      14      10      10      14      10      10      14      10      10
      14      10      10      14      10      10      14      10      10      14
      10      10      14      10      10      14      10      10      14      10
      10      14      10      10      14      10      10      14      10      10
      14      10      10      14      10      10      14      10      10      14
      10      10      14      10      10      14      10      10      14      10
      10      14      10      10      14      10      10      14      10      10
      14      10      10      14      10      10      14      10      10      14
      10      10      14      10      10      14      10      10      14      10
      10      14      10      10      14      10      10      14      10      10
      14      10      10      14      10      10      14      10      10      14
      10      10      14      10      10      14      10      10      14      10
      10      14      10      10      14      10      10      14      10      10
      14      10      10      14      10      10      14      10      10      14
      10      10      14      10      10      14      10      10      14      10
      10      14      10      10      14      10      10      14      10      10
      14      10      10      14      10      10      14      10      10      14
      10      10      14      10      10      14      10      10      14      10
      10      14      10      10      14      10      10      14      10      10
      14      10      10      14      10      10      14      10      10      14
      10      10      14      10      10      14      10      10      14      10
      10      14      10      10      14      10      10      14      10      10
      14      10      10      14      10      10      14      10      10      14
      10      10      14      10      10      14      10      10      14      10
      10      14      10      10      14      10      10      14      10      10
      14      10      10      14      10      10      14      10      10      14
      10      10      14      10      10      14      10      10      14      10
      10      14      10      10      14      10      10      14      10      10
      14      10      10      14      10      10      14      10      10      14
      10      10      14      10      10      14      10      10      14      10
      10      14      10      10      14      10      10      14      10      10
      14      10      10      14      10      10      14      10      10      14
      10      10      14      10      10      14      10      10      14      10
      10      14      10      10      14      10      10      14      10      10
      14      10      10      14      10      10      14      10      10      14
      10      10      14      10      10      14      10      10      14      10
      10      14      10      10      14      10      10      14      10      10
      14      10      10      14      10      10      14      10      10      14
      10      10      14      10      10      14      10      10      14      10
      10      14      10      10      14      10      10      14      10      10
      14      10      10      14      10      10      14      10      10      14
      10      10      14      10      10      14      10      10      14      10
      10      14      10      10      14      10      10      14      10      10
      14      10      10      14      10      10      14      10      10      14
      10      10      14      10      10      14      10      10      14      10
      10      14      10      10      14      10      10      14      10      10
      14      10      10      14      10      10      14      10      10      14
      10      10      14      10      10      14      10      10      14      10
      10      14      10      10      14      10      10      14      10      10
      14      10      10      14      10      10      14      10      10      14
      10      10      14      10      10      14      10      10      14      10
      10      14      10      10      14      10      10      14      10      10
      14      10      10      14      10      10      14      10      10      14
      10      10      14      10      10      14      10      10      14      10
      10      14      10      10      14      10      10      14      10      10
      14      10      10      14      10      10      14      10      10      14
      10      10      14      10      10      14      10      10      14      10
      10      14      10      10      14      10      10      14      10      10
      14      10      10      14      10      10      14      10      10      14
      10      10      14      10      10      14      10      10      14      10
      10      14      10      10      14      10      10      14      10      10
      14      10      10      14      10      10      14      10      10      14
      10      10      14      10      10      14      10      10      14      10
      10      14      10      10      14      10      10      14      10      10
      14      10      10      14      10      10      14      10      10      14
      10      10      14      10      10      14      10      10      14      10
      10      14      10      10      14      10      10      14      10      10
      14      10      10      14      10      10      14      10      10      14
      10      10      14      10      10      14      10      10      14      10
      10      14      10      10      14      10      10      14      10      10
      14      10      10      14      10      10      14      10      10      14
      10      10      14      10      10      14      10      10      14      10
      10      14      10      10      14      10      10      14      10      10
      14      10      10      14      10      10      14      10      10      14
      10      10      14      10      10      14      10      10      14      10
      10      14      10      10      14      10      10      14      10      10
      14      10      10      14      10      10      14      10      10      14
      10      10      14      10      10      14      10      10      14      10
      10      14      10      10      14      10      10      14      10      10
      14      10      10      14      10      10      14      10      10      14
      10      10      14      10      10      14      10      10      14      10
      10      14      10      10      14      10      10      14      10      10
      14      10      10      14      10      10      14      10      10      14
      10      10      14      10      10      14      10      10      14      10
      10      14      10      10      14      10      10      14      10      10
      14      10      10      14      10      10      14      10      10      14
      10      10      14      10      10      14      10      10      14      10
      10      14      10      10      14      10      10      14      10      10
      14      10      10      14      10      10      14      10      10      14
      10      10      14      10      10      14      10      10      14      10
      10      14      10      10      14      10      10      14      10      10
      14      10      10      14      10      10      14      10      10      14
      10      10      14      10      10      14      10      10      14      10
      10      14      10      10      14      10      10      14      10      10
      14      10      10      14      10      10      14      10      10      14
      10      10      14      10      10      14      10      10      14      10
      10      14      10      10      14      10      10      14      10      10
      14      10      10      14      10      10      14      10      10      14
      10      10      14      10      10      14      10      10      14      10
      10      14      10      10      14      10      10      14      10      10
      14      10      10      14      10      10      14      10      10      14
      10      10      14      10      10      14      10      10      14      10
      10      14      10      10      14      10      10      14      10      10
      14      10      10      14      10      10      14      10      10      14
      10      10      14      10      10      14      10      10      14      10
      10      14      10      10      14      10      10      14      10      10
      14      10      10      14      10      10      14      10      10      14
      10      10      14      10      10      14      10      10      14      10
      10      14      10      10      14      10      10      14      10      10
      14      10      10      14      10      10      14      10      10      14
      10      10      14      10      10      14      10      10      14      10
      10      14      10      10      14      10      10      14      10      10
      14      10      10      14      10      10      14      10      10      14
      10      10      14      10      10      14      10      10      14      10
      10      14      10      10      14      10      10      14      10      10
      14      10      10      14      10      10      14      10      10      14
      10      10      14      10      10      14      10      10      14      10
      10      14      10      10      14      10      10      14      10      10
      14      10      10      14      10      10      14      10      10      14
      10      10      14      10      10      14      10      10      14      10
      10      14      10      10      14      10      10      14      10      10
      14      10      10      14      10      10      14      10      10      14
      10      10      14      10      10      14      10      10      14      10
      10      14      10      10      14      10      10      14      10      10
      14      10      10      14      10      10      14      10      10      14
      10      10      14      10      10      14      10      10      14      10
      10      14      10      10      14      10      10      14      10      10
      14      10      10      14      10      10      14      10      10      14
      10      10      14      10      10      14      10      10      14      10
      10      14      10      10      14      10      10      14      10      10
      14      10      10      14      10      10      14      10      10      14
      10      10      14      10      10      14      10      10      14      10
      10      14      10      10      14      10      10      14      10      10
      14      10      10      14      10      10      14      10      10      14
      10      10      14      10      10      14      10      10      14      10
      10      14      10      10      14      10      10      14      10      10
      14      10      10      14      10      10      14      10      10      14
      10      10      14      10      10      14      10      10      14      10
      10      14      10      10      14      10      10      14      10      10
      14      10      10      14      10      10      14      10      10      14
      10      10      14      10      10      14      10      10      14      10
      10      14      10      10      14      10      10      14      10      10
      14      10      10      14      10      10      14      10      10      14
      10      10      14      10      10      14      10      10      14      10
      10      14      10      10      14      10      10      14      10      10
      14      10      10      14      10      10      14      10      10      14
      10      10      14      10      10      14      10      10      14      10
      10      14      10      10      14      10      10      14      10      10
      14      10      10      14      10      10      14      10      10      14
      10      10      14      10      10      14      10      10      14      10
      10      14      10      10      14      10      10      14      10      10
      14      10      10      14      10      10      14      10      10      14
      10      10      14      10      10      14      10      10      14      10
      10      14      10      10      14      10      10      14      10      10
      14      10      10      14      10      10      14      10      10      14
      10      10      14      10      10      14      10      10      14      10
      10      14      10      10      14      10      10      14      10      10
      14      10      10      14      10      10      14      10      10      14
      10      10      14      10      10      14      10      10      14      10
      10      14      10      10      14      10      10      14      10      10
      14      10      10      14      10      10      14      10      10      14
      10      10      14      10      10      14      10      10      14      10
      10      14      10      10      14      10      10      14      10      10
      14      10      10      14      10      10      14      10      10      14
      10      10      14      10      10      14      10      10      14      10
      10      14      10      10      14      10      10      14      10      10
      14      10      10      14      10      10      14      10      10      14
      10      10      14      10      10      14      10      10      14      10
      10      14      10      10      14      10      10      14      10      10
      14      10      10      14      10      10      14      10      10      14
      10      10      14      10      10      14      10      10      14      10
      10      14      10      10      14      10      10      14      10      10
      14      10      10      14      10      10      14      10      10      14
      10      10      14      10      10      14      10      10      14      10
      10      14      10      10      14      10      10      14      10      10
      14      10      10      14      10      10      14      10      10      14
      10      10      14      10      10      14      10      10      14      10
      10      14      10      10      14      10      10      14      10      10
      14      10      10      14      10      10      14      10      10      14
      10      10      14      10      10      14      10      10      14      10
      10      14      10      10      14      10      10      14      10      10
      14      10      10      14      10      10      14      10      10      14
      10      10      14      10      10      14      10      10      14      10
      10      14      10      10      14      10      10      14      10      10
      14      10      10      14      10      10      14      10      10      14
      10      10      14      10      10      14      10      10      14      10
      10      14      10      10      14      10      10      14      10      10
      14      10      10      14      10      10      14      10      10      14
      10      10      14      10      10      14      10      10      14      10
      10      14      10      10      14      10      10      14      10      10
      14      10      10      14      10      10      14      10      10      14
      10      10      14      10      10      14      10      10      14      10
      10      14      10      10      14      10      10      14      10      10
      14      10      10      14      10      10      14      10      10      14
      10      10      14      10      10      14      10      10      14      10
      10      14      10      10      14      10      10      14      10      10
      14      10      10      14      10      10      14      10      10      14
      10      10      14      10      10      14      10      10      14      10
      10      14      10      10      14      10      10      14      10      10
      14      10      10      14      10      10      14      10      10      14
      10      10      14      10      10      14      10      10      14      10
      10      14      10      10      14      10      10      14      10      10
      14      10      10      14      10      10      14      10      10      14
      10      10      14      10      10      14      10      10      14      10
      10      14      10      10      14      10      10      14      10      10
      14      10      10      14      10      10      14      10      10      14
      10      10      14      10      10      14      10      10      14      10
      10      14      10      10      14      10      10      14      10      10
      14      10      10      14      10      10      14      10      10      14
      10      10      14      10      10      14      10      10      14      10
      10      14      10      10      14      10      10      14      10      10
      14      10      10      14      10      10      14      10      10      14
      10      10      14      10      10      14      10      10      14      10
      10      14      10      10      14      10      10      14      10      10
      14      10      10      14      10      10      14      10      10      14
      10      10      14      10      10      14      10      10      14      10
      10      14      10      10      14      10      10      14      10      10
      14      10      10      14      10      10      14      10      10      14
      10      10      14      10      10      14      10      10      14      10
      10      14      10      10      14      10      10      14      10      10
      14      10      10      14      10      10      14      10      10      14
      10      10      14      10      10      14      10      10      14      10
      10      14      10      10      14      10      10      14      10      10
      14      10      10      14      10      10      14      10      10      14
      10      10      14      10      10      14      10      10      14      10
      10      14      10      10      14      10      10      14      10      10
      14      10      10      14      10      10      14      10      10      14
      10      10      14      10      10      14      10      10      14      10
      10      14      10      10      14      10      10      14      10      10
      14      10      10      14      10      10      14      10      10      14
      10      10      14      10      10      14      10      10      14      10
      10      14      10      10      14      10      10      14      10      10
      14      10      10      14      10      10      14      10      10      14
      10      10      14      10      10      14      10      10      14      10
      10      14      10      10      14      10      10      14      10      10
      14      10      10      14      10      10      14      10      10      14
      10      10      14      10      10      14      10      10      14      10
      10      14      10      10      14      10      10      14      10      10
      14      10      10      14      10      10      14      10      10      14
      10      10      14      10      10      14      10      10      14      10
      10      14      10      10      14      10      10      14      10      10
      14      10      10      14      10      10      14      10      10      14
      10      10      14      10      10      14      10      10      14      10
      10      14      10      10      14      10      10      14      10      10
      14      10      10      14      10      10      14      10      10      14
      10      10      14      10      10      14      10      10      14      10
      10      14      10      10      14      10      10      14      10      10
      14      10      10      14      10      10      14      10      10      14
      10      10      14      10      10      14      10      10      14      10
      10      14      10      10      14      10      10      14      10      10
      14      10      10      14      10      10      14      10      10      14
      10      10      14      10      10      14      10      10      14      10
      10      14      10      10      14      10      10      14      10      10
      14      10      10      14      10      10      14      10      10      14
      10      10      14      10      10      14      10      10      14      10
      10      14      10      10      14      10      10      14      10      10
      14      10      10      14      10      10      14      10      10      14
      10      10      14      10      10      14      10      10      14      10
      10      14      10      10      14      10      10      14      10      10
      14      10      10      14      10      10      14      10      10      14
      10      10      14      10      10      14      10      10      14      10
      10      14      10      10      14      10      10      14      10      10
      14      10      10      14      10      10      14      10      10      14
      10      10      14      10      10      14      10      10      14      10
      10      14      10      10      14      10      10      14      10      10
      14      10      10      14      10      10      14      10      10      14
      10      10      14      10      10      14      10      10      14      10
      10      14      10      10      14      10      10      14      10      10
      14      10      10      14      10      10      14      10      10      14
      10      10      14      10      10      14      10      10      14      10
      10      14      10      10      14      10      10      14      10      10
      14      10      10      14      10      10      14      10      10      14
      10      10      14      10      10      14      10      10      14      10
      10      14      10      10      14      10      10      14      10      10
      14      10      10      14      10      10      14      10      10      14
      10      10      14      10      10      14      10      10      14      10
      10      14      10      10      14      10      10      14      10      10
      14      10      10      14      10      10      14      10      10      14
      10      10      14      10      10      14      10      10      14      10
      10      14      10      10      14      10      10      14      10      10
      14      10      10      14      10      10      14      10      10      14
      10      10      14      10      10      14      10      10      14      10
      10      14      10      10      14      10      10      14      10      10
      14      10      10      14      10      10      14      10      10      14
      10      10      14      10      10      14      10      10      14      10
      10      14      10      10      14      10      10      14      10      10
      14      10      10      14      10      10      14      10      10      14
      10      10      14      10      10      14      10      10      14      10
      10      14      10      10      14      10      10      14      10      10
      14      10      10      14      10      10      14      10      10      14
      10      10      14      10      10      14      10      10      14      10
      10      14      10      10      14      10      10      14      10      10
      14      10      10      14      10      10      14      10      10      14
      10      10      14      10      10      14      10      10      14      10
      10      14      10      10      14      10      10      14      10      10
      14      10      10      14      10      10      14      10      10      14
      10      10      14      10      10      14      10      10      14      10
      10      14      10      10      14      10      10      14      10      10
      14      10      10      14      10      10      14      10      10      14
      10      10      14      10      10      14      10      10      14      10
      10      14      10      10      14      10      10      14      10      10
      14      10      10      14      10      10      14      10      10      14
      10      10      14      10      10      14      10      10      14      10
      10      14      10      10      14      10      10      14      10      10
      14      10      10      14      10      10      14      10      10      14
      10      10      14      10      10      14      10      10      14      10
      10      14      10      10      14      10      10      14      10      10
      14      10      10      14      10      10      14      10      10      14
      10      10      14      10      10      14      10      10      14      10
      10      14      10      10      14      10      10      14      10      10
      14      10      10      14      10      10      14      10      10      14
      10      10      14      10      10      14      10      10      14      10
      10      14      10      10      14      10      10      14      10      10
      14      10      10      14      10      10      14      10      10      14
      10      10      14      10      10      14      10      10      14      10
      10      14      10      10      14      10      10      14      10      10
      14      10      10      14      10      10      14      10      10      14
      10      10      14      10      10      14      10      10      14      10
      10      14      10      10      14      10      10      14      10      10
      14      10      10      14      10      10      14      10      10      14
      10      10      14      10      10      14      10      10      14      10
      10      14      10      10      14      10      10      14      10      10
      14      10      10      14      10      10      14      10      10      14
      10      10      14      10      10      14      10      10      14      10
      10      14      10      10      14      10      10      14      10      10
      14      10      10      14      10      10      14      10      10      14
      10      10      14      10      10      14      10      10      14      10
      10      14      10      10      14      10      10      14      10      10
      14      10      10      14      10      10      14      10      10      14
      10      10      14      10      10      14      10      10      14      10
      10      14      10      10      14      10      10      14      10      10
      14      10      10      14      10      10      14      10      10      14
      10      10      14      10      10      14      10      10      14      10
      10      14      10      10      14      10      10      14      10      10
      14      10      10      14      10      10      14      10      10      14
      10      10      14      10      10      14      10      10      14      10
      10      14      10      10      14      10      10      14      10      10
      14      10      10      14      10      10      14      10      10      14
      10      10      14      10      10      14      10      10      14      10
      10      14      10      10      14      10      10      14      10      10
      14      10      10      14      10      10      14      10      10      14
      10      10      14      10      10      14      10      10      14      10
      10      14      10      10      14      10      10      14      10      10
      14      10      10      14      10      10      14      10      10      14
      10      10      14      10      10      14      10      10      14      10
      10      14      10      10      14      10      10      14      10      10
      14      10      10      14      10      10      14      10      10      14
      10      10      14      10      10      14      10      10      14      10
      10      14      10      10      14      10      10      14      10      10
      14      10      10      14      10      10      14      10      10      14
      10      10      14      10      10      14      10      10      14      10
      10      14      10      10      14      10      10      14      10      10
      14      10      10      14      10      10      14      10      10      14
      10      10      14      10      10      14      10      10      14      10
      10      14      10      10      14      10      10      14      10      10
      14      10      10      14      10      10      14      10      10      14
      10      10      14      10      10      14      10      10      14      10
      10      14      10      10      14      10      10      14      10      10
      14      10      10      14      10      10      14      10      10      14
      10      10      14      10      10      14      10      10      14      10
      10      14      10      10      14      10      10      14      10      10
      14      10      10      14      10      10      14      10      10      14
      10      10      14      10      10      14      10      10      14      10
      10      14      10      10      14      10      10      14      10      10
      14      10      10      14      10      10      14      10      10      14
      10      10      14      10      10      14      10      10      14      10
      10      14      10      10      14      10      10      14      10      10
      14      10      10      14      10      10      14      10      10      14
      10      10      14      10      10      14      10      10      14      10
      10      14      10      10      14      10      10      14      10      10
      14      10      10      14      10      10      14      10      10      14
      10      10      14      10      10      14      10      10      14      10
      10      14      10      10      14      10      10      14      10      10
      14      10      10      14      10      10      14      10      10      14
      10      10      14      10      10      14      10      10      14      10
      10      14      10      10      14      10      10      14      10      10
      14      10      10      14      10      10      14      10      10      14
      10      10      14      10      10      14      10      10      14      10
      10      14      10      10      14      10      10      14      10      10
      14      10      10      14      10      10      14      10      10      14
      10      10      14      10      10      14      10      10      14      10
      10      14      10      10      14      10      10      14      10      10
      14      10      10      14      10      10      14      10      10      14
      10      10      14      10      10      14      10      10      14      10
      10      14      10      10      14      10      10      14      10      10
      14      10      10      14      10      10      14      10      10      14
      10      10      14      10      10      14      10      10      14      10
      10      14      10      10      14      10      10      14      10      10
      14      10      10      14      10      10      14      10      10      14
      10      10      14      10      10      14      10      10      14      10
      10      14      10      10      14      10      10      14      10      10
      14      10      10      14      10      10      14      10      10      14
      10      10      14      10      10      14      10      10      14      10
      10      14      10      10      14      10      10      14      10      10
      14      10      10      14      10      10      14      10      10      14
      10      10      14      10      10      14      10      10      14      10
      10      14      10      10      14      10      10      14      10      10
      14      10      10      14      10      10      14      10      10      14
      10      10      14      10      10      14      10      10      14      10
      10      14      10      10      14      10      10      14      10      10
      14      10      10      14      10      10      14      10      10      14
      10      10      14      10      10      14      10      10      14      10
      10      14      10      10      14      10      10      14      10      10
      14      10      10      14      10      10      14      10      10      14
      10      10      14      10      10      14      10      10      14      10
      10      14      10      10      14      10      10      14      10      10
      14      10      10      14      10      10      14      10      10      14
      10      10      14      10      10      14      10      10      14      10
      10      14      10      10      14      10      10      14      10      10
      14      10      10      14      10      10      14      10      10      14
      10      10      14      10      10      14      10      10      14      10
      10      14      10      10      14      10      10      14      10      10
      14      10      10      14      10      10      14      10      10      14
      10      10      14      10      10      14      10      10      14      10
      10      14      10      10      14      10      10      14      10      10
      14      10      10      14      10      10      14      10      10      14
      10      10      14      10      10      14      10      10      14      10
      10      14      10      10      14      10      10      14      10      10
      14      10      10      14      10      10      14      10      10      14
      10      10      14      10      10      14      10      10      14      10
      10      14      10      10      14      10      10      14      10      10
      14      10      10      14      10      10      14      10      10      14
      10      10      14      10      10      14      10      10      14      10
      10      14      10      10      14      10      10      14      10      10
      14      10      10      14      10      10      14      10      10      14
      10      10      14      10      10      14      10      10      14      10
      10      14      10      10      14      10      10      14      10      10
      14      10      10      14      10      10      14      10      10      14
      10      10      14      10      10      14      10      10      14      10
      10      14      10      10      14      10      10      14      10      10
      14      10      10      14      10      10      14      10      10      14
      10      10      14      10      10      14      10      10      14      10
      10      14      10      10      14      10      10      14      10      10
      14      10      10      14      10      10      14      10      10      14
      10      10      14      10      10      14      10      10      14      10
      10      14      10      10      14      10      10      14      10      10
      14      10      10      14      10      10      14      10      10      14
      10      10      14      10      10      14      10      10      14      10
      10      14      10      10      14      10      10      14      10      10
      14      10      10      14      10      10      14      10      10      14
      10      10      14      10      10      14      10      10      14      10
      10      14      10      10      14      10      10      14      10      10
      14      10      10      14      10      10      14      10      10      14
      10      10      14      10      10      14      10      10      14      10
      10      14      10      10      14      10      10      14      10      10
      14      10      10      14      10      10      14      10      10      14
      10      10      14      10      10      14      10      10      14      10
      10      14      10      10      14      10      10      14      10      10
      14      10      10      14      10      10      14      10      10      14
      10      10      14      10      10      14      10      10      14      10
      10      14      10      10      14      10      10      14      10      10
      14      10      10      14      10      10      14      10      10      14
      10      10      14      10      10      14      10      10      14      10
      10      14      10      10      14      10      10      14      10      10
      14      10      10      14      10      10      14      10      10      14
      10      10      14      10      10      14      10      10      14      10
      10      14      10      10      14      10      10      14      10      10
      14      10      10      14      10      10      14      10      10      14
      10      10      14      10      10      14      10      10      14      10
      10      14      10      10      14      10      10      14      10      10
      14      10      10      14      10      10      14      10      10      14
      10      10      14      10      10      14      10      10      14      10
      10      14      10      10      14      10      10      14      10      10
      14      10      10      14      10      10      14      10      10      14
      10      10      14      10      10      14      10      10      14      10
      10      14      10      10      14      10      10      14      10      10
      14      10      10      14      10      10      14      10      10      14
      10      10      14      10      10      14      10      10      14      10
      10      14      10      10      14      10      10      14      10      10
      14      10      10      14      10      10      14      10      10      14
      10      10      14      10      10      14      10      10      14      10
      10      14      10      10      14      10      10      14      10      10
      14      10      10      14      10      10      14      10      10      14
      10      10      14      10      10      14      10      10      14      10
      10      14      10      10      14      10      10      14      10      10
      14      10      10      14      10      10      14      10      10      14
      10      10      14      10      10      14      10      10      14      10
      10      14      10      10      14      10      10      14      10      10
      14      10      10      14      10      10      14      10      10      14
      10      10      14      10      10      14      10      10      14      10
      10      14      10      10      14      10      10      14      10      10
      14      10      10      14      10      10      14      10      10      14
      10      10      14      10      10      14      10      10      14      10
      10      14      10      10      14      10      10      14      10      10
      14      10      10      14      10      10      14      10      10      14
      10      10      14      10      10      14      10      10      14      10
      10      14      10      10      14      10      10      14      10      10
      14      10      10      14      10      10      14      10      10      14
      10      10      14      10      10      14      10      10      14      10
      10      14      10      10      14      10      10      14      10      10
      14      10      10      14      10      10      14      10      10      14
      10      10      14      10      10      14      10      10      14      10
      10      14      10      10      14      10      10      14      10      10
      14      10      10      14      10      10      14      10      10      14
      10      10      14      10      10      14      10      10      14      10
      10      14      10      10      14      10      10      14      10      10
      14      10      10      14      10      10      14      10      10      14
      10      10      14      10      10      14      10      10      14      10
      10      14      10      10      14      10      10      14      10      10
      14      10      10      14      10      10      14      10      10      14
      10      10      14      10      10      14      10      10      14      10
      10      14      10      10      14      10      10      14      10      10
      14      10      10      14      10      10      14      10      10      14
      10      10      14      10      10      14      10      10      14      10
      10      14      10      10      14      10      10      14      10      10
      14      10      10      14      10      10      14      10      10      14
      10      10      14      10      10      14      10      10      14      10
      10      14      10      10      14      10      10      14      10      10
      14      10      10      14      10      10      14      10      10      14
      10      10      14      10      10      14      10      10      14      10
      10      14      10      10      14      10      10      14      10      10
      14      10      10      14      10      10      14      10      10      14
      10      10      14      10      10      14      10      10      14      10
      10      14      10      10      14      10      10      14      10      10
      14      10      10      14      10      10      14      10      10      14
      10      10      14      10      10      14      10      10      14      10
      10      14      10      10      14      10      10      14      10      10
      14      10      10      14      10      10      14      10      10      14
      10      10      14      10      10      14      10      10      14      10
      10      14      10      10      14      10      10      14      10      10
      14      10      10      14      10      10      14      10      10      14
      10      10      14      10      10      14      10      10      14      10
      10      14      10      10      14      10      10      14      10      10
      14      10      10      14      10      10      14      10      10      14
      10      10      14      10      10      14      10      10      14      10
      10      14      10      10      14      10      10      14      10      10
      14      10      10      14      10      10      14      10      10      14
      10      10      14      10      10      14      10      10      14      10
      10      14      10      10      14      10      10      14      10      10
      14      10      10      14      10      10      14      10      10      14
      10      10      14      10      10      14      10      10      14      10
      10      14      10      10      14      10      10      14      10      10
      14      10      10      14      10      10      14      10      10      14
      10      10      14      10      10      14      10      10      14      10
      10      14      10      10      14      10      10      14      10      10
      14      10      10      14      10      10      14      10      10      14
      10      10      14      10      10      14      10      10      14      10
      10      14      10      10      14      10      10      14      10      10
      14      10      10      14      10      10      14      10      10      14
      10      10      14      10      10      14      10      10      14      10
      10      14      10      10      14      10      10      14      10      10
      14      10      10      14      10      10      14      10      10      14
      10      10      14      10      10      14      10      10      14      10
      10      14      10      10      14      10      10      14      10      10
      14      10      10      14      10      10      14      10      10      14
      10      10      14      10      10      14      10      10      14      10
      10      14      10      10      14      10      10      14      10      10
      14      10      10      14      10      10      14      10      10      14
      10      10      14      10      10      14      10      10      14      10
      10      14      10      10      14      10      10      14      10      10
      14      10      10      14      10      10      14      10      10      14
      10      10      14      10      10      14      10      10      14      10
      10      14      10      10      14      10      10      14      10      10
      14      10      10      14      10      10      14      10      10      14
      10      10      14      10      10      14      10      10      14      10
      10      14      10      10      14      10      10      14      10      10
      14      10      10      14      10      10      14      10      10      14
      10      10      14      10      10      14      10      10      14      10
      10      14      10      10      14      10      10      14      10      10
      14      10      10      14      10      10      14      10      10      14
      10      10      14      10      10      14      10      10      14      10
      10      14      10      10      14      10      10      14      10      10
      14      10      10      14      10      10      14      10      10      14
      10      10      14      10      10      14      10      10      14      10
      10      14      10      10      14      10      10      14      10      10
      14      10      10      14      10      10      14      10      10      14
      10      10      14      10      10      14      10      10      14      10
      10      14      10      10      14      10      10      14      10      10
      14      10      10      14      10      10      14      10      10      14
      10      10      14      10      10      14      10      10      14      10
      10      14      10      10      14      10      10      14      10      10
      14      10      10      14      10      10      14      10      10      14
      10      10      14      10      10      14      10      10      14      10
      10      14      10      10      14      10      10      14      10      10
      14      10      10      14      10      10      14      10      10      14
      10      10      14      10      10      14      10      10      14      10
      10      14      10      10      14      10      10      14      10      10
      14      10      10      14      10      10      14      10      10      14
      10      10      14      10      10      14      10      10      14      10
      10      14      10      10      14      10      10      14      10      10
      14      10      10      14      10      10      14      10      10      14
      10      10      14      10      10      14      10      10      14      10
      10      14      10      10      14      10      10      14      10      10
      14      10      10      14      10      10      14      10      10      14
      10      10      14      10      10      14      10      10      14      10
      10      14      10      10      14      10      10      14      10      10
      14      10      10      14      10      10      14      10      10      14
      10      10      14      10      10      14      10      10      14      10
      10      14      10      10      14      10      10      14      10      10
      14      10      10      14      10      10      14      10      10      14
      10      10      14      10      10      14      10      10      14      10
      10      14      10      10      14      10      10      14      10      10
      14      10      10      14      10      10      14      10      10      14
      10      10      14      10      10      14      10      10      14      10
      10      14      10      10      14      10      10      14      10      10
      14      10      10      14      10      10      14      10      10      14
      10      10      14      10      10      14      10      10      14      10
      10      14      10      10      14      10      10      14      10      10
      14      10      10      14      10      10      14      10      10      14
      10      10      14      10      10      14      10      10      14      10
      10      14      10      10      14      10      10      14      10      10
      14      10      10      14      10      10      14      10      10      14
      10      10      14      10      10      14      10      10      14      10
      10      14      10      10      14      10      10      14      10      10
      14      10      10      14      10      10      14      10      10      14
      10      10      14      10      10      14      10      10      14      10
      10      14      10      10      14      10      10      14      10      10
      14      10      10      14      10      10      14      10      10      14
      10      10      14      10      10      14      10      10      14      10
      10      14      10      10      14      10      10      14      10      10
      14      10      10      14      10      10      14      10      10      14
      10      10      14      10      10      14      10      10      14      10
      10      14      10      10      14      10      10      14      10      10
      14      10      10      14      10      10      14      10      10      14
      10      10      14      10      10      14      10      10      14      10
      10      14      10      10      14      10      10      14      10      10
      14      10      10      14      10      10      14      10      10      14
      10      10      14      10      10      14      10      10      14      10
      10      14      10      10      14      10      10      14      10      10
      14      10      10      14      10      10      14      10      10      14
      10      10      14      10      10      14      10      10      14      10
      10      14      10      10      14      10      10      14      10      10
      14      10      10      14      10      10      14      10      10      14
      10      10      14      10      10      14      10      10      14      10
      10      14      10      10      14      10      10      14      10      10
      14      10      10      14      10      10      14      10      10      14
      10      10      14      10      10      14      10      10      14      10
      10      14      10      10      14      10      10      14      10      10
      14      10      10      14      10      10      14      10      10      14
      10      10      14      10      10      14      10      10      14      10
      10      14      10      10      14      10      10      14      10      10
      14      10      10      14      10      10      14      10      10      14
      10      10      14      10      10      14      10      10      14      10
      10      14      10      10      14      10      10      14      10      10
      14      10      10      14      10      10      14      10      10      14
      10      10      14      10      10      14      10      10      14      10
      10      14      10      10      14      10      10      14      10      10
      14      10      10      14      10      10      14      10      10      14
      10      10      14      10      10      14      10      10      14      10
      10      14      10      10      14      10      10      14      10      10
      14      10      10      14      10      10      14      10      10      14
      10      10      14      10      10      14      10      10      14      10
      10      14      10      10      14      10      10      14      10      10
      14      10      10      14      10      10      14      10      10      14
      10      10      14      10      10      14      10      10      14      10
      10      14      10      10      14      10      10      14      10      10
      14      10      10      14      10      10      14      10      10      14
      10      10      14      10      10      14      10      10      14      10
      10      14      10      10      14      10      10      14      10      10
      14      10      10      14      10      10      14      10      10      14
      10      10      14      10      10      14      10      10      14      10
      10      14      10      10      14      10      10      14      10      10
      14      10      10      14      10      10      14      10      10      14
      10      10      14      10      10      14      10      10      14      10
      10      14      10      10      14      10      10      14      10      10
      14      10      10      14      10      10      14      10      10      14
      10      10      14      10      10      14      10      10      14      10
      10      14      10      10      14      10      10      14      10      10
      14      10      10      14      10      10      14      10      10      14
      10      10      14      10      10      14      10      10      14      10
      10      14      10      10      14      10      10      14      10      10
      14      10      10      14      10      10      14      10      10      14
      10      10      14      10      10      14      10      10      14      10
      10      14      10      10      14      10      10      14      10      10
      14      10      10      14      10      10      14      10      10      14
      10      10      14      10      10      14      10      10      14      10
      10      14      10      10      14      10      10      14      10      10
      14      10      10      14      10      10      14      10      10      14
      10      10      14      10      10      14      10      10      14      10
      10      14      10      10      14      10      10      14      10      10
      14      10      10      14      10      10      14      10      10      14
      10      10      14      10      10      14      10      10      14      10
      10      14      10      10      14      10      10      14      10      10
      14      10      10      14      10      10      14      10      10      14
      10      10      14      10      10      14      10      10      14      10
      10      14      10      10      14      10      10      14      10      10
      14      10      10      14      10      10      14      10      10      14
      10      10      14      10      10      14      10      10      14      10
      10      14      10      10      14      10      10      14      10      10
      14      10      10      14      10      10      14      10      10      14
      10      10      14      10      10      14      10      10      14      10
      10      14      10      10      14      10      10      14      10      10
      14      10      10      14      10      10      14      10      10      14
      10      10      14      10      10      14      10      10      14      10
      10      14      10      10      14      10      10      14      10      10
      14      10      10      14      10      10      14      10      10      14
      10      10      14      10      10      14      10      10      14      10
      10      14      10      10      14      10      10      14      10      10
      14      10      10      14      10      10      14      10      10      14
      10      10      14      10      10      14      10      10      14      10
      10      14      10      10      14      10      10      14      10      10
      14      10      10      14      10      10      14      10      10      14
      10      10      14      10      10      14      10      10      14      10
      10      14      10      10      14      10      10      14      10      10
      14      10      10      14      10      10      14      10      10      14
      10      10      14      10      10      14      10      10      14      10
      10      14      10      10      14      10      10      14      10      10
      14      10      10      14      10      10      14      10      10      14
      10      10      14      10      10      14      10      10      14      10
      10      14      10      10      14      10      10      14      10      10
      14      10      10      14      10      10      14      10      10      14
      10      10      14      10      10      14      10      10      14      10
      10      14      10      10      14      10      10      14      10      10
      14      10      10      14      10      10      14      10      10      14
      10      10      14      10      10      14      10      10      14      10
      10      14      10      10      14      10      10      14      10      10
      14      10      10      14      10      10      14      10      10      14
      10      10      14      10      10      14      10      10      14      10
      10      14      10      10      14      10      10      14      10      10
      14      10      10      14      10      10      14      10      10      14
      10      10      14      10      10      14      10      10      14      10
      10      14      10      10      14      10      10      14      10      10
      14      10      10      14      10      10      14      10      10      14
      10      10      14      10      10      14      10      10      14      10
      10      14      10      10      14      10      10      14      10      10
      14      10      10      14      10      10      14      10      10      14
      10      10      14      10      10      14      10      10      14      10
      10      14      10      10      14      10      10      14      10      10
      14      10      10      14      10      10      14      10      10      14
      10      10      14      10      10      14      10      10      14      10
      10      14      10      10      14      10      10      14      10      10
      14      10      10      14      10      10      14      10      10      14
      10      10      14      10      10      14      10      10      14      10
      10      14      10      10      14      10      10      14      10      10
      14      10      10      14      10      10      14      10      10      14
      10      10      14      10      10      14      10      10      14      10
      10      14      10      10      14      10      10      14      10      10
      14      10      10      14      10      10      14      10      10      14
      10      10      14      10      10      14      10      10      14      10
      10      14      10      10      14      10      10      14      10      10
      14      10      10      14      10      10      14      10      10      14
      10      10      14      10      10      14      10      10      14      10
      10      14      10      10      14      10      10      14      10      10
      14      10      10      14      10      10      14      10      10      14
      10      10      14      10      10      14      10      10      14      10
      10      14      10      10      14      10      10      14      10      10
      14      10      10      14      10      10      14      10      10      14
      10      10      14      10      10      14      10      10      14      10
      10      14      10      10      14      10      10      14      10      10
      14      10      10      14      10      10      14      10      10      14
      10      10      14      10      10      14      10      10      14      10
      10      14      10      10      14      10      10      14      10      10
      14      10      10      14      10      10      14      10      10      14
      10      10      14      10      10      14      10      10      14      10
      10      14      10      10      14      10      10      14      10      10
      14      10      10      14      10      10      14      10      10      14
      10      10      14      10      10      14      10      10      14      10
      10      14      10      10      14      10      10      14      10      10
      14      10      10      14      10      10      14      10      10      14
      10      10      14      10      10      14      10      10      14      10
      10      14      10      10      14      10      10      14      10      10
      14      10      10      14      10      10      14      10      10      14
      10      10      14      10      10      14      10      10      14      10
      10      14      10      10      14      10      10      14      10      10
      14      10      10      14      10      10      14      10      10      14
      10      10      14      10      10      14      10      10      14      10
      10      14      10      10      14      10      10      14      10      10
      14      10      10      14      10      10      14      10      10      14
      10      10      14      10      10      14      10      10      14      10
      10      14      10      10      14      10      10      14      10      10
      14      10      10      14      10      10      14      10      10      14
      10      10      14      10      10      14      10      10      14      10
      10      14      10      10      14      10      10      14      10      10
      14      10      10      14      10      10      14      10      10      14
      10      10      14      10      10      14      10      10      14      10
      10      14      10      10      14      10      10      14      10      10
      14      10      10      14      10      10      14      10      10      14
      10      10      14      10      10      14      10      10      14      10
      10      14      10      10      14      10      10      14      10      10
      14      10      10      14      10      10      14      10      10      14
      10      10      14      10      10      14      10      10      14      10
      10      14      10      10      14      10      10      14      10      10
      14      10      10      14      10      10      14      10      10      14
      10      10      14      10      10      14      10      10      14      10
      10      14      10      10      14      10      10      14      10      10
      14      10      10      14      10      10      14      10      10      14
      10      10      14      10      10      14      10      10      14      10
      10      14      10      10      14      10      10      14      10      10
      14      10      10      14      10      10      14      10      10      14
      10      10      14      10      10      14      10      10      14      10
      10      14      10      10      14      10      10      14      10      10
      14      10      10      14      10      10      14      10      10      14
      10      10      14      10      10      14      10      10      14      10
      10      14      10      10      14      10      10      14      10      10
      14      10      10      14      10      10      14      10      10      14
      10      10      14      10      10      14      10      10      14      10
      10      14      10      10      14      10      10      14      10      10
      14      10      10      14      10      10      14      10      10      14
      10      10      14      10      10      14      10      10      14      10
      10      14      10      10      14      10      10      14      10      10
      14      10      10      14      10      10      14      10      10      14
      10      10      14      10      10      14      10      10      14      10
      10      14      10      10      14      10      10      14      10      10
      14      10      10      14      10      10      14      10      10      14
      10      10      14      10      10      14      10      10      14      10
      10      14      10      10      14      10      10      14      10      10
      14      10      10      14      10      10      14      10      10      14
      10      10      14      10      10      14      10      10      14      10
      10      14      10      10      14      10      10      14      10      10
      14      10      10      14      10      10      14      10      10      14
      10      10      14      10      10      14      10      10      14      10
      10      14      10      10      14      10      10      14      10      10
      14      10      10      14      10      10      14      10      10      14
      10      10      14      10      10      14      10      10      14      10
      10      14      10      10      14      10      10      14      10      10
      14      10      10      14      10      10      14      10      10      14
      10      10      14      10      10      14      10      10      14      10
      10      14      10      10      14      10      10      14      10      10
      14      10      10      14      10      10      14      10      10      14
      10      10      14      10      10      14      10      10      14      10
      10      14      10      10      14      10      10      14      10      10
      14      10      10      14      10      10      14      10      10      14
      10      10      14      10      10      14      10      10      14      10
      10      14      10      10      14      10      10      14      10      10
      14      10      10      14      10      10      14      10      10      14
      10      10      14      10      10      14      10      10      14      10
      10      14      10      10      14      10      10      14      10      10
      14      10      10      14      10      10      14      10      10      14
      10      10      14      10      10      14      10      10      14      10
      10      14      10      10      14      10      10      14      10      10
      14      10      10      14      10      10      14      10      10      14
      10      10      14      10      10      14      10      10      14      10
      10      14      10      10      14      10      10      14      10      10
      14      10      10      14      10      10      14      10      10      14
      10      10      14      10      10      14      10      10      14      10
      10      14      10      10      14      10      10      14      10      10
      14      10      10      14      10      10      14      10      10      14
      10      10      14      10      10      14      10      10      14      10
      10      14      10      10      14      10      10      14      10      10
      14      10      10      14      10      10      14      10      10      14
      10      10      14      10      10      14      10      10      14      10
      10      14      10      10      14      10      10      14      10      10
      14      10      10      14      10      10      14      10      10      14
      10      10      14      10      10      14      10      10      14      10
      10      14      10      10      14      10      10      14      10      10
      14      10      10      14      10      10      14      10      10      14
      10      10      14      10      10      14      10      10      14      10
      10      14      10      10      14      10      10      14      10      10
      14      10      10      14      10      10      14      10      10      14
      10      10      14      10      10      14      10      10      14      10
      10      14      10      10      14      10      10      14      10      10
      14      10      10      14      10      10      14      10      10      14
      10      10      14      10      10      14      10      10      14      10
      10      14      10      10      14      10      10      14      10      10
      14      10      10      14      10      10      14      10      10      14
      10      10      14      10      10      14      10      10      14      10
      10      14      10      10      14      10      10      14      10      10
      14      10      10      14      10      10      14      10      10      14
      10      10      14      10      10      14      10      10      14      10
      10      14      10      10      14      10      10      14      10      10
      14      10      10      14      10      10      14      10      10      14
      10      10      14      10      10      14      10      10      14      10
      10      14      10      10      14      10      10      14      10      10
      14      10      10      14      10      10      14      10      10      14
      10      10      14      10      10      14      10      10      14      10
      10      14      10      10      14      10      10      14      10      10
      14      10      10      14      10      10      14      10      10      14
      10      10      14      10      10      14      10      10      14      10
      10      14      10      10      14      10      10      14      10      10
      14      10      10      14      10      10      14      10      10      14
      10      10      14      10      10      14      10      10      14      10
      10      14      10      10      14      10      10      14      10      10
      14      10      10      14      10      10      14      10      10      14
      10      10      14      10      10      14      10      10      14      10
      10      14      10      10      14      10      10      14      10      10
      14      10      10      14      10      10      14      10      10      14
      10      10      14      10      10      14      10      10      14      10
      10      14      10      10      14      10      10      14      10      10
      14      10      10      14      10      10      14      10      10      14
      10      10      14      10      10      14      10      10      14      10
      10      14      10      10      14      10      10      14      10      10
      14      10      10      14      10      10      14      10      10      14
      10      10      14      10      10      14      10      10      14      10
      10      14      10      10      14      10      10      14      10      10
      14      10      10      14      10      10      14      10      10      14
      10      10      14      10      10      14      10      10      14      10
      10      14      10      10      14      10      10      14      10      10
      14      10      10      14      10      10      14      10      10      14
      10      10      14      10      10      14      10      10      14      10
      10      14      10      10      14      10      10      14      10      10
      14      10      10      14      10      10      14      10      10      14
      10      10      14      10      10      14      10      10      14      10
      10      14      10      10      14      10      10      14      10      10
      14      10      10      14      10      10      14      10      10      14
      10      10      14      10      10      14      10      10      14      10
      10      14      10      10      14      10      10      14      10      10
      14      10      10      14      10      10      14      10      10      14
      10      10      14      10      10      14      10      10      14      10
      10      14      10      10      14      10      10      14      10      10
      14      10      10      14      10      10      14      10      10      14
      10      10      14      10      10      14      10      10      14      10
      10      14      10      10      14      10      10      14      10      10
      14      10      10      14      10      10      14      10      10      14
      10      10      14      10      10      14      10      10      14      10
      10      14      10      10      14      10      10      14      10      10
      14      10      10      14      10      10      14      10      10      14
      10      10      14      10      10      14      10      10      14      10
      10      14      10      10      14      10      10      14      10      10
      14      10      10      14      10      10      14      10      10      14
      10      10      14      10      10      14      10      10      14      10
      10      14      10      10      14      10      10      14      10      10
      14      10      10      14      10      10      14      10      10      14
      10      10      14      10      10      14      10      10      14      10
      10      14      10      10      14      10      10      14      10      10
      14      10      10      14      10      10      14      10      10      14
      10      10      14      10      10      14      10      10      14      10
      10      14      10      10      14      10      10      14      10      10
      14      10      10      14      10      10      14      10      10      14
      10      10      14      10      10      14      10      10      14      10
      10      14      10      10      14      10      10      14      10      10
      14      10      10      14      10      10      14      10      10      14
      10      10      14      10      10      14      10      10      14      10
      10      14      10      10      14      10      10      14      10      10
      14      10      10      14      10      10      14      10      10      14
      10      10      14      10      10      14      10      10      14      10
      10      14      10      10      14      10      10      14      10      10
      14      10      10      14      10      10      14      10      10      14
      10      10      14      10      10      14      10      10      14      10
      10      14      10      10      14      10      10      14      10      10
      14      10      10      14      10      10      14      10      10      14
      10      10      14      10      10      14      10      10      14      10
      10      14      10      10      14      10      10      14      10      10
      14      10      10      14      10      10      14      10      10      14
      10      10      14      10      10      14      10      10      14      10
      10      14      10      10      14      10      10      14      10      10
      14      10      10      14      10      10      14      10      10      14
      10      10      14      10      10      14      10      10      14      10
      10      14      10      10      14      10      10      14      10      10
      14      10      10      14      10      10      14      10      10      14
      10      10      14      10      10      14      10      10      14      10
      10      14      10      10      14      10      10      14      10      10
      14      10      10      14      10      10      14      10      10      14
      10      10      14      10      10      14      10      10      14      10
      10      14      10      10      14      10      10      14      10      10
      14      10      10      14      10      10      14      10      10      14
      10      10      14      10      10      14      10      10      14      10
      10      14      10      10      14      10      10      14      10      10
      14      10      10      14      10      10      14      10      10      14
      10      10      14      10      10      14      10      10      14      10
      10      14      10      10      14      10      10      14      10      10
      14      10      10      14      10      10      14      10      10      14
      10      10      14      10      10      14      10      10      14      10
      10      14      10      10      14      10      10      14      10      10
      14      10      10      14      10      10      14      10      10      14
      10      10      14      10      10      14      10      10      14      10
      10      14      10      10      14      10      10      14      10      10
      14      10      10      14      10      10      14      10      10      14
      10      10      14      10      10      14      10      10      14      10
      10      14      10      10      14      10      10      14      10      10
      14      10      10      14      10      10      14      10      10      14
      10      10      14      10      10      14      10      10      14      10
      10      14      10      10      14      10      10      14      10      10
      14      10      10      14      10      10      14      10      10      14
      10      10      14      10      10      14      10      10      14      10
      10      14      10      10      14      10      10      14      10      10
      14      10      10      14      10      10      14      10      10      14
      10      10      14      10      10      14      10      10      14      10
      10      14      10      10      14      10      10      14      10      10
      14      10      10      14      10      10      14      10      10      14
      10      10      14      10      10      14      10      10      14      10
      10      14      10      10      14      10      10      14      10      10
      14      10      10      14      10      10      14      10      10      14
      10      10      14      10      10      14      10      10      14      10
      10      14      10      10      14      10      10      14      10      10
      14      10      10      14      10      10      14      10      10      14
      10      10      14      10      10      14      10      10      14      10
      10      14      10      10      14      10      10      14      10      10
      14      10      10      14      10      10      14      10      10      14
      10      10      14      10      10      14      10      10      14      10
      10      14      10      10      14      10      10      14      10      10
      14      10      10      14      10      10      14      10      10      14
      10      10      14      10      10      14      10      10      14      10
      10      14      10      10      14      10      10      14      10      10
      14      10      10      14      10      10      14      10      10      14
      10      10      14      10      10      14      10      10      14      10
      10      14      10      10      14      10      10      14      10      10
      14      10      10      14      10      10      14      10      10      14
      10      10      14      10      10      14      10      10      14      10
      10      14      10      10      14      10      10      14      10      10
      14      10      10      14      10      10      14      10      10      14
      10      10      14      10      10      14      10      10      14      10
      10      14      10      10      14      10      10      14      10      10
      14      10      10      14      10      10      14      10      10      14
      10      10      14      10      10      14      10      10      14      10
      10      14      10      10      14      10      10      14      10      10
      14      10      10      14      10      10      14      10      10      14
      10      10      14      10      10      14      10      10      14      10
      10      14      10      10      14      10      10      14      10      10
      14      10      10      14      10      10      14      10      10      14
      10      10      14      10      10      14      10      10      14      10
      10      14      10      10      14      10      10      14      10      10
      14      10      10      14      10      10      14      10      10      14
      10      10      14      10      10      14      10      10      14      10
      10      14      10      10      14      10      10      14      10      10
      14      10      10      14      10      10      14      10      10      14
      10      10      14      10      10      14      10      10      14      10
      10      14      10      10      14      10      10      14      10      10
      14      10      10      14      10      10      14      10      10      14
      10      10      14      10      10      14      10      10      14      10
      10      14      10      10      14      10      10      14      10      10
      14      10      10      14      10      10      14      10      10      14
      10      10      14      10      10      14      10      10      14      10
      10      14      10      10      14      10      10      14      10      10
      14      10      10      14      10      10      14      10      10      14
      10      10      14      10      10      14      10      10      14      10
      10      14      10      10      14      10      10      14      10      10
      14      10      10      14      10      10      14      10      10      14
      10      10      14      10      10      14      10      10      14      10
      10      14      10      10      14      10      10      14      10      10
      14      10      10      14      10      10      14      10      10      14
      10      10      14      10      10      14      10      10      14      10
      10      14      10      10      14      10      10      14      10      10
      14      10      10      14      10      10      14      10      10      14
      10      10      14      10      10      14      10      10      14      10
      10      14      10      10      14      10      10      14      10      10
      14      10      10      14      10      10      14      10      10      14
      10      10      14      10      10      14      10      10      14      10
      10      14      10      10      14      10      10      14      10      10
      14      10      10      14      10      10      14      10      10      14
      10      10      14      10      10      14      10      10      14      10
      10      14      10      10      14      10      10      14      10      10
      14      10      10      14      10      10      14      10      10      14
      10      10      14      10      10      14      10      10      14      10
      10      14      10      10      14      10      10      14      10      10
      14      10      10      14      10      10      14      10      10      14
      10      10      14      10      10      14      10      10      14      10
      10      14      10      10      14      10      10      14      10      10
      14      10      10      14      10      10      14      10      10      14
      10      10      14      10      10      14      10      10      14      10
      10      14      10      10      14      10      10      14      10      10
      14      10      10      14      10      10      14      10      10      14
      10      10      14      10      10      14      10      10      14      10
      10      14      10      10      14      10      10      14      10      10
      14      10      10      14      10      10      14      10      10      14
      10      10      14      10      10      14      10      10      14      10
      10      14      10      10      14      10      10      14      10      10
      14      10      10      14      10      10      14      10      10      14
      10      10      14      10      10      14      10      10      14      10
      10      14      10      10      14      10      10      14      10      10
      14      10      10      14      10      10      14      10      10      14
      10      10      14      10      10      14      10      10      14      10
      10      14      10      10      14      10      10      14      10      10
      14      10      10      14      10      10      14      10      10      14
      10      10      14      10      10      14      10      10      14      10
      10      14      10      10      14      10      10      14      10      10
      14      10      10      14      10      10      14      10      10      14
      10      10      14      10      10      14      10      10      14      10
      10      14      10      10      14      10      10      14      10      10
      14      10      10      14      10      10      14      10      10      14
      10      10      14      10      10      14      10      10      14      10
      10      14      10      10      14      10      10      14      10      10
      14      10      10      14      10      10      14      10      10      14
      10      10      14      10      10      14      10      10      14      10
      10      14      10      10      14      10      10      14      10      10
      14      10      10      14      10      10      14      10      10      14
      10      10      14      10      10      14      10      10      14      10
      10      14      10      10      14      10      10      14      10      10
      14      10      10      14      10      10      14      10      10      14
      10      10      14      10      10      14      10      10      14      10
      10      14      10      10      14      10      10      14      10      10
      14      10      10      14      10      10      14      10      10      14
      10      10      14      10      10      14      10      10      14      10
      10      14      10      10      14      10      10      14      10      10
      14      10      10      14      10      10      14      10      10      14
      10      10      14      10      10      14      10      10      14      10
      10      14      10      10      14      10      10      14      10      10
      14      10      10      14      10      10      14      10      10      14
      10      10      14      10      10      14      10      10      14      10
      10      14      10      10      14      10      10      14      10      10
      14      10      10      14      10      10      14      10      10      14
      10      10      14      10      10      14      10      10      14      10
      10      14      10      10      14      10      10      14      10      10
      14      10      10      14      10      10      14      10      10      14
      10      10      14      10      10      14      10      10      14      10
      10      14      10      10      14      10      10      14      10      10
      14      10      10      14      10      10      14      10      10      14
      10      10      14      10      10      14      10      10      14      10
      10      14      10      10      14      10      10      14      10      10
      14      10      10      14      10      10      14      10      10      14
      10      10      14      10      10      14      10      10      14      10
      10      14      10      10      14      10      10      14      10      10
      14      10      10      14      10      10      14      10      10      14
      10      10      14      10      10      14      10      10      14      10
      10      14      10      10      14      10      10      14      10      10
      14      10      10      14      10      10      14      10      10      14
      10      10      14      10      10      14      10      10      14      10
      10      14      10      10      14      10      10      14      10      10
      14      10      10      14      10      10      14      10      10      14
      10      10      14      10      10      14      10      10      14      10
      10      14      10      10      14      10      10      14      10      10
      14      10      10      14      10      10      14      10      10      14
      10      10      14      10      10      14      10      10      14      10
      10      14      10      10      14      10      10      14      10      10
      14      10      10      14      10      10      14      10      10      14
      10      10      14      10      10      14      10      10      14      10
      10      14      10      10      14      10      10      14      10      10
      14      10      10      14      10      10      14      10      10      14
      10      10      14      10      10      14      10      10      14      10
      10      14      10      10      14      10      10      14      10      10
      14      10      10      14      10      10      14      10      10      14
      10      10      14      10      10      14      10      10      14      10
      10      14      10      10      14      10      10      14      10      10
      14      10      10      14      10      10      14      10      10      14
      10      10      14      10      10      14      10      10      14      10
      10      14      10      10      14      10      10      14      10      10
      14      10      10      14      10      10      14      10      10      14
      10      10      14      10      10      14      10      10      14      10
      10      14      10      10      14      10      10      14      10      10
      14      10      10      14      10      10      14      10      10      14
      10      10      14      10      10      14      10      10      14      10
      10      14      10      10      14      10      10      14      10      10
      14      10      10      14      10      10      14      10      10      14
      10      10      14      10      10      14      10      10      14      10
      10      14      10      10      14      10      10      14      10      10
      14      10      10      14      10      10      14      10      10      14
      10      10      14      10      10      14      10      10      14      10
      10      14      10      10      14      10      10      14      10      10
      14      10      10      14      10      10      14      10      10      14
      10      10      14      10      10      14      10      10      14      10
      10      14      10      10      14      10      10      14      10      10
      14      10      10      14      10      10      14      10      10      14
      10      10      14      10      10      14      10      10      14      10
      10      14      10      10      14      10      10      14      10      10
      14      10      10      14      10      10      14      10      10      14
      10      10      14      10      10      14      10      10      14      10
      10      14      10      10      14      10      10      14      10      10
      14      10      10      14      10      10      14      10      10      14
      10      10      14      10      10      14      10      10      14      10
      10      14      10      10      14      10      10      14      10      10
      14      10      10      14      10      10      14      10      10      14
      10      10      14      10      10      14      10      10      14      10
      10      14      10      10      14      10      10      14      10      10
      14      10      10      14      10      10      14      10      10      14
      10      10      14      10      10      14      10      10      14      10
      10      14      10      10      14      10      10      14      10      10
      14      10      10      14      10      10      14      10      10      14
      10      10      14      10      10      14      10      10      14      10
      10      14      10      10      14      10      10      14      10      10
      14      10      10      14      10      10      14      10      10      14
      10      10      14      10      10      14      10      10      14      10
      10      14      10      10      14      10      10      14      10      10
      14      10      10      14      10      10      14      10      10      14
      10      10      14      10      10      14      10      10      14      10
      10      14      10      10      14      10      10      14      10      10
      14      10      10      14      10      10      14      10      10      14
      10      10      14      10      10      14      10      10      14      10
      10      14      10      10      14      10      10      14      10      10
      14      10      10      14      10      10      14      10      10      14
      10      10      14      10      10      14      10      10      14      10
      10      14      10      10      14      10      10      14      10      10
      14      10      10      14      10      10      14      10      10      14
      10      10      14      10      10      14      10      10      14      10
      10      14      10      10      14      10      10      14      10      10
      14      10      10      14      10      10      14      10      10      14
      10      10      14      10      10      14      10      10      14      10
      10      14      10      10      14      10      10      14      10      10
      14      10      10      14      10      10      14      10      10      14
      10      10      14      10      10      14      10      10      14      10
      10      14      10      10      14      10      10      14      10      10
      14      10      10      14      10      10      14      10      10      14
      10      10      14      10      10      14      10      10      14      10
      10      14      10      10      14      10      10      14      10      10
      14      10      10      14      10      10      14      10      10      14
      10      10      14      10      10      14      10      10      14      10
      10      14      10      10      14      10      10      14      10      10
      14      10      10      14      10      10      14      10      10      14
      10      10      14      10      10      14      10      10      14      10
      10      14      10      10      14      10      10      14      10      10
      14      10      10      14      10      10      14      10      10      14
      10      10      14      10      10      14      10      10      14      10
      10      14      10      10      14      10      10      14      10      10
      14      10      10      14      10      10      14      10      10      14
      10      10      14      10      10      14      10      10      14      10
      10      14      10      10      14      10      10      14      10      10
      14      10      10      14      10      10      14      10      10      14
      10      10      14      10      10      14      10      10      14      10
      10      14      10      10      14      10      10      14      10      10
      14      10      10      14      10      10      14      10      10      14
      10      10      14      10      10      14      10      10      14      10
      10      14      10      10      14      10      10      14      10      10
      14      10      10      14      10      10      14      10      10      14
      10      10      14      10      10      14      10      10      14      10
      10      14      10      10      14      10      10      14      10      10
      14      10      10      14      10      10      14      10      10      14
      10      10      14      10      10      14      10      10      14      10
      10      14      10      10      14      10      10      14      10      10
      14      10      10      14      10      10      14      10      10      14
      10      10      14      10      10      14      10      10      14      10
      10      14      10      10      14      10      10      14      10      10
      14      10      10      14      10      10      14      10      10      14
      10      10      14      10      10      14      10      10      14      10
      10      14      10      10      14      10      10      14      10      10
      14      10      10      14      10      10      14      10      10      14
      10      10      14      10      10      14      10      10      14      10
      10      14      10      10      14      10      10      14      10      10
      14      10      10      14      10      10      14      10      10      14
      10      10      14      10      10      14      10      10      14      10
      10      14      10      10      14      10      10      14      10      10
      14      10      10      14      10      10      14      10      10      14
      10      10      14      10      10      14      10      10      14      10
      10      14      10      10      14      10      10      14      10      10
      14      10      10      14      10      10      14      10      10      14
      10      10      14      10      10      14      10      10      14      10
      10      14      10      10      14      10      10      14      10      10
      14      10      10      14      10      10      14      10      10      14
      10      10      14      10      10      14      10      10      14      10
      10      14      10      10      14      10      10      14      10      10
      14      10      10      14      10      10      14      10      10      14
      10      10      14      10      10      14      10      10      14      10
      10      14      10      10      14      10      10      14      10      10
      14      10      10      14      10      10      14      10      10      14
      10      10      14      10      10      14      10      10      14      10
      10      14      10      10      14      10      10      14      10      10
      14      10      10      14      10      10      14      10      10      14
      10      10      14      10      10      14      10      10      14      10
      10      14      10      10      14      10      10      14      10      10
      14      10      10      14      10      10      14      10      10      14
      10      10      14      10      10      14      10      10      14      10
      10      14      10      10      14      10      10      14      10      10
      14      10      10      14      10      10      14      10      10      14
      10      10      14      10      10      14      10      10      14      10
      10      14      10      10      14      10      10      14      10      10
      14      10      10      14      10      10      14      10      10      14
      10      10      14      10      10      14      10      10      14      10
      10      14      10      10      14      10      10      14      10      10
      14      10      10      14      10      10      14      10      10      14
      10      10      14      10      10      14      10      10      14      10
      10      14      10      10      14      10      10      14      10      10
      14      10      10      14      10      10      14      10      10      14
      10      10      14      10      10      14      10      10      14      10
      10      14      10      10      14      10      10      14      10      10
      14      10      10      14      10      10      14      10      10      14
      10      10      14      10      10      14      10      10      14      10
      10      14      10      10      14      10      10      14      10      10
      14      10      10      14      10      10      14      10      10      14
      10      10      14      10      10      14      10      10      14      10
      10      14      10      10      14      10      10      14      10      10
      14      10      10      14      10      10      14      10      10      14
      10      10      14      10      10      14      10      10      14      10
      10      14      10      10      14      10      10      14      10      10
      14      10      10      14      10      10      14      10      10      14
      10      10      14      10      10      14      10      10      14      10
      10      14      10      10      14      10      10      14      10      10
      14      10      10      14      10      10      14      10      10      14
      10      10      14      10      10      14      10      10      14      10
      10      14      10      10      14      10      10      14      10      10
      14      10      10      14      10      10      14      10      10      14
      10      10      14      10      10      14      10      10      14      10
      10      14      10      10      14      10      10      14      10      10
      14      10      10      14      10      10      14      10      10      14
      10      10      14      10      10      14      10      10      14      10
      10      14      10      10      14      10      10      14      10      10
      14      10      10      14      10      10      14      10      10      14
      10      10      14      10      10      14      10      10      14      10
      10      14      10      10      14      10      10      14      10      10
      14      10      10      14      10      10      14      10      10      14
      10      10      14      10      10      14      10      10      14      10
      10      14      10      10      14      10      10      14      10      10
      14      10      10      14      10      10      14      10      10      14
      10      10      14      10      10      14      10      10      14      10
      10      14      10      10      14      10      10      14      10      10
      14      10      10      14      10      10      14      10      10      14
      10      10      14      10      10      14      10      10      14      10
      10      14      10      10      14      10      10      14      10      10
      14      10      10      14      10      10      14      10      10      14
      10      10      14      10      10      14      10      10      14      10
      10      14      10      10      14      10      10      14      10      10
      14      10      10      14      10      10      14      10      10      14
      10      10      14      10      10      14      10      10      14      10
      10      14      10      10      14      10      10      14      10      10
      14      10      10      14      10      10      14      10      10      14
      10      10      14      10      10      14      10      10      14      10
      10      14      10      10      14      10      10      14      10      10
      14      10      10      14      10      10      14      10      10      14
      10      10      14      10      10      14      10      10      14      10
      10      14      10      10      14      10      10      14      10      10
      14      10      10      14      10      10      14      10      10      14
      10      10      14      10      10      14      10      10      14      10
      10      14      10      10      14      10      10      14      10      10
      14      10      10      14      10      10      14      10      10      14
      10      10      14      10      10      14      10      10      14      10
      10      14      10      10      14      10      10      14      10      10
      14      10      10      14      10      10      14      10      10      14
      10      10      14      10      10      14      10      10      14      10
      10      14      10      10      14      10      10      14      10      10
      14      10      10      14      10      10      14      10      10      14
      10      10      14      10      10      14      10      10      14      10
      10      14      10      10      14      10      10      14      10      10
      14      10      10      14      10      10      14      10      10      14
      10      10      14      10      10      14      10      10      14      10
      10      14      10      10      14      10      10      14      10      10
      14      10      10      14      10      10      14      10      10      14
      10      10      14      10      10      14      10      10      14      10
      10      14      10      10      14      10      10      14      10      10
      14      10      10      14      10      10      14      10      10      14
      10      10      14      10      10      14      10      10      14      10
      10      14      10      10      14      10      10      14      10      10
      14      10      10      14      10      10      14      10      10      14
      10      10      14      10      10      14      10      10      14      10
      10      14      10      10      14      10      10      14      10      10
      14      10      10      14      10      10      14      10      10      14
      10      10      14      10      10      14      10      10      14      10
      10      14      10      10      14      10      10      14      10      10
      14      10      10      14      10      10      14      10      10      14
      10      10      14      10      10      14      10      10      14      10
      10      14      10      10      14      10      10      14      10      10
      14      10      10      14      10      10      14      10      10      14
      10      10      14      10      10      14      10      10      14      10
      10      14      10      10      14      10      10      14      10      10
      14      10      10      14      10      10      14      10      10      14
      10      10      14      10      10      14      10      10      14      10
      10      14      10      10      14      10      10      14      10      10
      14      10      10      14      10      10      14      10      10      14
      10      10      14      10      10      14      10      10      14      10
      10      14      10      10      14      10      10      14      10      10
      14      10      10      14      10      10      14      10      10      14
      10      10      14      10      10      14      10      10      14      10
      10      14      10      10      14      10      10      14      10      10
      14      10      10      14      10      10      14      10      10      14
      10      10      14      10      10      14      10      10      14      10
      10      14      10      10      14      10      10      14      10      10
      14      10      10      14      10      10      14      10      10      14
      10      10      14      10      10      14      10      10      14      10
      10      14      10      10      14      10      10      14      10      10
      14      10      10      14      10      10      14      10      10      14
      10      10      14      10      10      14      10      10      14      10
      10      14      10      10      14      10      10      14      10      10
      14      10      10      14      10      10      14      10      10      14
      10      10      14      10      10      14      10      10      14      10
      10      14      10      10      14      10      10      14      10      10
      14      10      10      14      10      10      14      10      10      14
      10      10      14      10      10      14      10      10      14      10
      10      14      10      10      14      10      10      14      10      10
      14      10      10      14      10      10      14      10      10      14
      10      10      14      10      10      14      10      10      14      10
      10      14      10      10      14      10      10      14      10      10
      14      10      10      14      10      10      14      10      10      14
      10      10      14      10      10      14      10      10      14      10
      10      14      10      10      14      10      10      14      10      10
      14      10      10      14      10      10      14      10      10      14
      10      10      14      10      10      14      10      10      14      10
      10      14      10      10      14      10      10      14      10      10
      14      10      10      14      10      10      14      10      10      14
      10      10      14      10      10      14      10      10      14      10
      10      14      10      10      14      10      10      14      10      10
      14      10      10      14      10      10      14      10      10      14
      10      10      14      10      10      14      10      10      14      10
      10      14      10      10      14      10      10      14      10      10
      14      10      10      14      10      10      14      10      10      14
      10      10      14      10      10      14      10      10      14      10
      10      14      10      10      14      10      10      14      10      10
      14      10      10      14      10      10      14      10      10      14
      10      10      14      10      10      14      10      10      14      10
      10      14      10      10      14      10      10      14      10      10
      14      10      10      14      10      10      14      10      10      14
      10      10      14      10      10      14      10      10      14      10
      10      14      10      10      14      10      10      14      10      10
      14      10      10      14      10      10      14      10      10      14
      10      10      14      10      10      14      10      10      14      10
      10      14      10      10      14      10      10      14      10      10
      14      10      10      14      10      10      14      10      10      14
      10      10      14      10      10      14      10      10      14      10
      10      14      10      10      14      10      10      14      10      10
      14      10      10      14      10      10      14      10      10      14
      10      10      14      10      10      14      10      10      14      10
      10      14      10      10      14      10      10      14      10      10
      14      10      10      14      10      10      14      10      10      14
      10      10      14      10      10      14      10      10      14      10
      10      14      10      10      14      10      10      14      10      10
      14      10      10      14      10      10      14      10      10      14
      10      10      14      10      10      14      10      10      14      10
      10      14      10      10      14      10      10      14      10      10
      14      10      10      14      10      10      14      10      10      14
      10      10      14      10      10      14      10      10      14      10
      10      14      10      10      14      10      10      14      10      10
      14      10      10      14      10      10      14      10      10      14
      10      10      14      10      10      14      10      10      14      10
      10      14      10      10      14      10      10      14      10      10
      14      10      10      14      10      10      14      10      10      14
      10      10      14      10      10      14      10      10      14      10
      10      14      10      10      14      10      10      14      10      10
      14      10      10      14      10      10      14      10      10      14
      10      10      14      10      10      14      10      10      14      10
      10      14      10      10      14      10      10      14      10      10
      14      10      10      14      10      10      14      10      10      14
      10      10      14      10      10      14      10      10      14      10
      10      14      10      10      14      10      10      14      10      10
      14      10      10      14      10      10      14      10      10      14
      10      10      14      10      10      14      10      10      14      10
      10      14      10      10      14      10      10      14      10      10
      14      10      10      14      10      10      14      10      10      14
      10      10      14      10      10      14      10      10      14      10
      10      14      10      10      14      10      10      14      10      10
      14      10      10      14      10      10      14      10      10      14
      10      10      14      10      10      14      10      10      14      10
      10      14      10      10      14      10      10      14      10      10
      14      10      10      14      10      10      14      10      10      14
      10      10      14      10      10      14      10      10      14      10
      10      14      10      10      14      10      10      14      10      10
      14      10      10      14      10      10      14      10      10      14
      10      10      14      10      10      14      10      10      14      10
      10      14      10      10      14      10      10      14      10      10
      14      10      10      14      10      10      14      10      10      14
      10      10      14      10      10      14      10      10      14      10
      10      14      10      10      14      10      10      14      10      10
      14      10      10      14      10      10      14      10      10      14
      10      10      14      10      10      14      10      10      14      10
      10      14      10      10      14      10      10      14      10      10
      14      10      10      14      10      10      14      10      10      14
      10      10      14      10      10      14      10      10      14      10
      10      14      10      10      14      10      10      14      10      10
      14      10      10      14      10      10      14      10      10      14
      10      10      14      10      10      14      10      10      14      10
      10      14      10      10      14      10      10      14      10      10
      14      10      10      14      10      10      14      10      10      14
      10      10      14      10      10      14      10      10      14      10
      10      14      10      10      14      10      10      14      10      10
      14      10      10      14      10      10      14      10      10      14
      10      10      14      10      10      14      10      10      14      10
      10      14      10      10      14      10      10      14      10      10
      14      10      10      14      10      10      14      10      10      14
      10      10      14      10      10      14      10      10      14      10
      10      14      10      10      14      10      10      14      10      10
      14      10      10      14      10      10      14      10      10      14
      10      10      14      10      10      14      10      10      14      10
      10      14      10      10      14      10      10      14      10      10
      14      10      10      14      10      10      14      10      10      14
      10      10      14      10      10      14      10      10      14      10
      10      14      10      10      14      10      10      14      10      10
      14      10      10      14      10      10      14      10      10      14
      10      10      14      10      10      14      10      10      14      10
      10      14      10      10      14      10      10      14      10      10
      14      10      10      14      10      10      14      10      10      14
      10      10      14      10      10      14      10      10      14      10
      10      14      10      10      14      10      10      14      10      10
      14      10      10      14      10      10      14      10      10      14
      10      10      14      10      10      14      10      10      14      10
      10      14      10      10      14      10      10      14      10      10
      14      10      10      14      10      10      14      10      10      14
      10      10      14      10      10      14      10      10      14      10
      10      14      10      10      14      10      10      14      10      10
      14      10      10      14      10      10      14      10      10      14
      10      10      14      10      10      14      10      10      14      10
      10      14      10      10      14      10      10      14      10      10
      14      10      10      14      10      10      14      10      10      14
      10      10      14      10      10      14      10      10      14      10
      10      14      10      10      14      10      10      14      10      10
      14      10      10      14      10      10      14      10      10      14
      10      10      14      10      10      14      10      10      14      10
      10      14      10      10      14      10      10      14      10      10
      14      10      10      14      10      10      14      10      10      14
      10      10      14      10      10      14      10      10      14      10
      10      14      10      10      14      10      10      14      10      10
      14      10      10      14      10      10      14      10      10      14
      10      10      14      10      10      14      10      10      14      10
      10      14      10      10      14      10      10      14      10      10
      14      10      10      14      10      10      14      10      10      14
      10      10      14      10      10      14      10      10      14      10
      10      14      10      10      14      10      10      14      10      10
      14      10      10      14      10      10      14      10      10      14
      10      10      14      10      10      14      10      10      14      10
      10      14      10      10      14      10      10      14      10      10
      14      10      10      14      10      10      14      10      10      14
      10      10      14      10      10      14      10      10      14      10
      10      14      10      10      14      10      10      14      10      10
      14      10      10      14      10      10      14      10      10      14
      10      10      14      10      10      14      10      10      14      10
      10      14      10      10      14      10      10      14      10      10
      14      10      10      14      10      10      14      10      10      14
      10      10      14      10      10      14      10      10      14      10
      10      14      10      10      14      10      10      14      10      10
      14      10      10      14      10      10      14      10      10      14
      10      10      14      10      10      14      10      10      14      10
      10      14      10      10      14      10      10      14      10      10
      14      10      10      14      10      10      14      10      10      14
      10      10      14      10      10      14      10      10      14      10
      10      14      10      10      14      10      10      14      10      10
      14      10      10      14      10      10      14      10      10      14
      10      10      14      10      10      14      10      10      14      10
      10      14      10      10      14      10      10      14      10      10
      14      10      10      14      10      10      14      10      10      14
      10      10      14      10      10      14      10      10      14      10
      10      14      10      10      14      10      10      14      10      10
      14      10      10      14      10      10      14      10      10      14
      10      10      14      10      10      14      10      10      14      10
      10      14      10      10      14      10      10      14      10      10
      14      10      10      14      10      10      14      10      10      14
      10      10      14      10      10      14      10      10      14      10
      10      14      10      10      14      10      10      14      10      10
      14      10      10      14      10      10      14      10      10      14
      10      10      14      10      10      14      10      10      14      10
      10      14      10      10      14      10      10      14      10      10
      14      10      10      14      10      10      14      10      10      14
      10      10      14      10      10      14      10      10      14      10
      10      14      10      10      14      10      10      14      10      10
      14      10      10      14      10      10      14      10      10      14
      10      10      14      10      10      14      10      10      14      10
      10      14      10      10      14      10      10      14      10      10
      14      10      10      14      10      10      14      10      10      14
      10      10      14      10      10      14      10      10      14      10
      10      14      10      10      14      10      10      14      10      10
      14      10      10      14      10      10      14      10      10      14
      10      10      14      10      10      14      10      10      14      10
      10      14      10      10      14      10      10      14      10      10
      14      10      10      14      10      10      14      10      10      14
      10      10      14      10      10      14      10      10      14      10
      10      14      10      10      14      10      10      14      10      10
      14      10      10      14      10      10      14      10      10      14
      10      10      14      10      10      14      10      10      14      10
      10      14      10      10      14      10      10      14      10      10
      14      10      10      14      10      10      14      10      10      14
      10      10      14      10      10      14      10      10      14      10
      10      14      10      10      14      10      10      14      10      10
      14      10      10      14      10      10      14      10      10      14
      10      10      14      10      10      14      10      10      14      10
      10      14      10      10      14      10      10      14      10      10
      14      10      10      14      10      10      14      10      10      14
      10      10      14      10      10      14      10      10      14      10
      10      14      10      10      14      10      10      14      10      10
      14      10      10      14      10      10      14      10      10      14
      10      10      14      10      10      14      10      10      14      10
      10      14      10      10      14      10      10      14      10      10
      14      10      10      14      10      10      14      10      10      14
      10      10      14      10      10      14      10      10      14      10
      10      14      10      10      14      10      10      14      10      10
      14      10      10      14      10      10      14      10      10      14
      10      10      14      10      10      14      10      10      14      10
      10      14      10      10      14      10      10      14      10      10
      14      10      10      14      10      10      14      10      10      14
      10      10      14      10      10      14      10      10      14      10
      10      14      10      10      14      10      10      14      10      10
      14      10      10      14      10      10      14      10      10      14
      10      10      14      10      10      14      10      10      14      10
      10      14      10      10      14      10      10      14      10      10
      14      10      10      14      10      10      14      10      10      14
      10      10      14      10      10      14      10      10      14      10
      10      14      10      10      14      10      10      14      10      10
      14      10      10      14      10      10      14      10      10      14
      10      10      14      10      10      14      10      10      14      10
      10      14      10      10      14      10      10      14      10      10
      14      10      10      14      10      10      14      10      10      14
      10      10      14      10      10      14      10      10      14      10
      10      14      10      10      14      10      10      14      10      10
      14      10      10      14      10      10      14      10      10      14
      10      10      14      10      10      14      10      10      14      10
      10      14      10      10      14      10      10      14      10      10
      14      10      10      14      10      10      14      10      10      14
      10      10      14      10      10      14      10      10      14      10
      10      14      10      10      14      10      10      14      10      10
      14      10      10      14      10      10      14      10      10      14
      10      10      14      10      10      14      10      10      14      10
      10      14      10      10      14      10      10      14      10      10
      14      10      10      14      10      10      14      10      10      14
      10      10      14      10      10      14      10      10      14      10
      10      14      10      10      14      10      10      14      10      10
      14      10      10      14      10      10      14      10      10      14
      10      10      14      10      10      14      10      10      14      10
      10      14      10      10      14      10      10      14      10      10
      14      10      10      14      10      10      14      10      10      14
      10      10      14      10      10      14      10      10      14      10
      10      14      10      10      14      10      10      14      10      10
      14      10      10      14      10      10      14      10      10      14
      10      10      14      10      10      14      10      10      14      10
      10      14      10      10      14      10      10      14      10      10
      14      10      10      14      10      10      14      10      10      14
      10      10      14      10      10      14      10      10      14      10
      10      14      10      10      14      10      10      14      10      10
      14      10      10      14      10      10      14      10      10      14
      10      10      14      10      10      14      10      10      14      10
      10      14      10      10      14      10      10      14      10      10
      14      10      10      14      10      10      14      10      10      14
      10      10      14      10      10      14      10      10      14      10
      10      14      10      10      14      10      10      14      10      10
      14      10      10      14      10      10      14      10      10      14
      10      10      14      10      10      14      10      10      14      10
      10      14      10      10      14      10      10      14      10      10
      14      10      10      14      10      10      14      10      10      14
      10      10      14      10      10      14      10      10      14      10
      10      14      10      10      14      10      10      14      10      10
      14      10      10      14      10      10      14      10      10      14
      10      10      14      10      10      14      10      10      14      10
      10      14      10      10      14      10      10      14      10      10
      14      10      10      14      10      10      14      10      10      14
      10      10      14      10      10      14      10      10      14      10
      10      14      10      10      14      10      10      14      10      10
      14      10      10      14      10      10      14      10      10      14
      10      10      14      10      10      14      10      10      14      10
      10      14      10      10      14      10      10      14      10      10
      14      10      10      14      10      10      14      10      10      14
      10      10      14      10      10      14      10      10      14      10
      10      14      10      10      14      10      10      14      10      10
      14      10      10      14      10      10      14      10      10      14
      10      10      14      10      10      14      10      10      14      10
      10      14      10      10      14      10      10      14      10      10
      14      10      10      14      10      10      14      10      10      14
      10      10      14      10      10      14      10      10      14      10
      10      14      10      10      14      10      10      14      10      10
      14      10      10      14      10      10      14      10      10      14
      10      10      14      10      10      14      10      10      14      10
      10      14      10      10      14      10      10      14      10      10
      14      10      10      14      10      10      14      10      10      14
      10      10      14      10      10      14      10      10      14      10
      10      14      10      10      14      10      10      14      10      10
      14      10      10      14      10      10      14      10      10      14
      10      10      14      10      10      14      10      10      14      10
      10      14      10      10      14      10      10      14      10      10
      14      10      10      14      10      10      14      10      10      14
      10      10      14      10      10      14      10      10      14      10
      10      14      10      10      14      10      10      14      10      10
      14      10      10      14      10      10      14      10      10      14
      10      10      14      10      10      14      10      10      14      10
      10      14      10      10      14      10      10      14      10      10
      14      10      10      14      10      10      14      10      10      14
      10      10      14      10      10      14      10      10      14      10
      10      14      10      10      14      10      10      14      10      10
      14      10      10      14      10      10      14      10      10      14
      10      10      14      10      10      14      10      10      14      10
      10      14      10      10      14      10      10      14      10      10
      14      10      10      14      10      10      14      10      10      14
      10      10      14      10      10      14      10      10      14      10
      10      14      10      10      14      10      10      14      10      10
      14      10      10      14      10      10      14      10      10      14
      10      10      14      10      10      14      10      10      14      10
      10      14      10      10      14      10      10      14      10      10
      14      10      10      14      10      10      14      10      10      14
      10      10      14      10      10      14      10      10      14      10
      10      14      10      10      14      10      10      14      10      10
      14      10      10      14      10      10      14      10      10      14
      10      10      14      10      10      14      10      10      14      10
      10      14      10      10      14      10      10      14      10      10
      14      10      10      14      10      10      14      10      10      14
      10      10      14      10      10      14      10      10      14      10
      10      14      10      10      14      10      10      14      10      10
      14      10      10      14      10      10      14      10      10      14
      10      10      14      10      10      14      10      10      14      10
      10      14      10      10      14      10      10      14      10      10
      14      10      10      14      10      10      14      10      10      14
      10      10      14      10      10      14      10      10      14      10
      10      14      10      10      14      10      10      14      10      10
      14      10      10      14      10      10      14      10      10      14
      10      10      14      10      10      14      10      10      14      10
      10      14      10      10      14      10      10      14      10      10
      14      10      10      14      10      10      14      10      10      14
      10      10      14      10      10      14      10      10      14      10
      10      14      10      10      14      10      10      14      10      10
      14      10      10      14      10      10      14      10      10      14
      10      10      14      10      10      14      10      10      14      10
      10      14      10      10      14      10      10      14      10      10
      14      10      10      14      10      10      14      10      10      14
      10      10      14      10      10      14      10      10      14      10
      10      14      10      10      14      10      10      14      10      10
      14      10      10      14      10      10      14      10      10      14
      10      10      14      10      10      14      10      10      14      10
      10      14      10      10      14      10      10      14      10      10
      14      10      10      14      10      10      14      10      10      14
      10      10      14      10      10      14      10      10      14      10
      10      14      10      10      14      10      10      14      10      10
      14      10      10      14      10      10      14      10      10      14
      10      10      14      10      10      14      10      10      14      10
      10      14      10      10      14      10      10      14      10      10
      14      10      10      14      10      10      14      10      10      14
      10      10      14      10      10      14      10      10      14      10
      10      14      10      10      14      10      10      14      10      10
      14      10      10      14      10      10      14      10      10      14
      10      10      14      10      10      14      10      10      14      10
      10      14      10      10      14      10      10      14      10      10
      14      10      10      14      10      10      14      10      10      14
      10      10      14      10      10      14      10      10      14      10
      10      14      10      10      14      10      10      14      10      10
      14      10      10      14      10      10      14      10      10      14
      10      10      14      10      10      14      10      10      14      10
      10      14      10      10      14      10      10      14      10      10
      14      10      10      14      10      10      14      10      10      14
      10      10      14      10      10      14      10      10      14      10
      10      14      10      10      14      10      10      14      10      10
      14      10      10      14      10      10      14      10      10      14
      10      10      14      10      10      14      10      10      14      10
      10      14      10      10      14      10      10      14      10      10
      14      10      10      14      10      10      14      10      10      14
      10      10      14      10      10      14      10      10      14      10
      10      14      10      10      14      10      10      14      10      10
      14      10      10      14      10      10      14      10      10      14
      10      10      14      10      10      14      10      10      14      10
      10      14      10      10      14      10      10      14      10      10
      14      10      10      14      10      10      14      10      10      14
      10      10      14      10      10      14      10      10      14      10
      10      14      10      10      14      10      10      14      10      10
      14      10      10      14      10      10      14      10      10      14
      10      10      14      10      10      14      10      10      14      10
      10      14      10      10      14      10      10      14      10      10
      14      10      10      14      10      10      14      10      10      14
      10      10      14      10      10      14      10      10      14      10
      10      14      10      10      14      10      10      14      10      10
      14      10      10      14      10      10      14      10      10      14
      10      10      14      10      10      14      10      10      14      10
      10      14      10      10      14      10      10      14      10      10
      14      10      10      14      10      10      14      10      10      14
      10      10      14      10      10      14      10      10      14      10
      10      14      10      10      14      10      10      14      10      10
      14      10      10      14      10      10      14      10      10      14
      10      10      14      10      10      14      10      10      14      10
      10      14      10      10      14      10      10      14      10      10
      14      10      10      14      10      10      14      10      10      14
      10      10      14      10      10      14      10      10      14      10
      10      14      10      10      14      10      10      14      10      10
      14      10      10      14      10      10      14      10      10      14
      10      10      14      10      10      14      10      10      14      10
      10      14      10      10      14      10      10      14      10      10
      14      10      10      14      10      10      14      10      10      14
      10      10      14      10      10      14      10      10      14      10
      10      14      10      10      14      10      10      14      10      10
      14      10      10      14      10      10      14      10      10      14
      10      10      14      10      10      14      10      10      14      10
      10      14      10      10      14      10      10      14      10      10
      14      10      10      14      10      10      14      10      10      14
      10      10      14      10      10      14      10      10      14      10
      10      14      10      10      14      10      10      14      10      10
      14      10      10      14      10      10      14      10      10      14
      10      10      14      10      10      14      10      10      14      10
      10      14      10      10      14      10      10      14      10      10
      14      10      10      14      10      10      14      10      10      14
      10      10      14      10      10      14      10      10      14      10
      10      14      10      10      14      10      10      14      10      10
      14      10      10      14      10      10      14      10      10      14
      10      10      14      10      10      14      10      10      14      10
      10      14      10      10      14      10      10      14      10      10
      14      10      10      14      10      10      14      10      10      14
      10      10      14      10      10      14      10      10      14      10
      10      14      10      10      14      10      10      14      10      10
      14      10      10      14      10      10      14      10      10      14
      10      10      14      10      10      14      10      10      14      10
      10      14      10      10      14      10      10      14      10      10
      14      10      10      14      10      10      14      10      10      14
      10      10      14      10      10      14      10      10      14      10
      10      14      10      10      14      10      10      14      10      10
      14      10      10      14      10      10      14      10      10      14
      10      10      14      10      10      14      10      10      14      10
      10      14      10      10      14      10      10      14      10      10
      14      10      10      14      10      10      14      10      10      14
      10      10      14      10      10      14      10      10      14      10
      10      14      10      10      14      10      10      14      10      10
      14      10      10      14      10      10      14      10      10      14
      10      10      14      10      10      14      10      10      14      10
      10      14      10      10      14      10      10      14      10      10
      14      10      10      14      10      10      14      10      10      14
      10      10      14      10      10      14      10      10      14      10
      10      14      10      10      14      10      10      14      10      10
      14      10      10      14      10      10      14      10      10      14
      10      10      14      10      10      14      10      10      14      10
      10      14      10      10      14      10      10      14      10      10
      14      10      10      14      10      10      14      10      10      14
      10      10      14      10      10      14      10      10      14      10
      10      14      10      10      14      10      10      14      10      10
      14      10      10      14      10      10      14      10      10      14
      10      10      14      10      10      14      10      10      14      10
      10      14      10      10      14      10      10      14      10      10
      14      10      10      14      10      10      14      10      10      14
      10      10      14      10      10      14      10      10      14      10
      10      14      10      10      14      10      10      14      10      10
      14      10      10      14      10      10      14      10      10      14
      10      10      14      10      10      14      10      10      14      10
      10      14      10      10      14      10      10      14      10      10
      14      10      10      14      10      10      14      10      10      14
      10      10      14      10      10      14      10      10      14      10
      10      14      10      10      14      10      10      14      10      10
      14      10      10      14      10      10      14      10      10      14
      10      10      14      10      10      14      10      10      14      10
      10      14      10      10      14      10      10      14      10      10
      14      10      10      14      10      10      14      10      10      14
      10      10      14      10      10      14      10      10      14      10
      10      14      10      10      14      10      10      14      10      10
      14      10      10      14      10      10      14      10      10      14
      10      10      14      10      10      14      10      10      14      10
      10      14      10      10      14      10      10      14      10      10
      14      10      10      14      10      10      14      10      10      14
      10      10      14      10      10      14      10      10      14      10
      10      14      10      10      14      10      10      14      10      10
      14      10      10      14      10      10      14      10      10      14
      10      10      14      10      10      14      10      10      14      10
      10      14      10      10      14      10      10      14      10      10
      14      10      10      14      10      10      14      10      10      14
      10      10      14      10      10      14      10      10      14      10
      10      14      10      10      14      10      10      14      10      10
      14      10      10      14      10      10      14      10      10      14
      10      10      14      10      10      14      10      10      14      10
      10      14      10      10      14      10      10      14      10      10
      14      10      10      14      10      10      14      10      10      14
      10      10      14      10      10      14      10      10      14      10
      10      14      10      10      14      10      10      14      10      10
      14      10      10      14      10      10      14      10      10      14
      10      10      14      10      10      14      10      10      14      10
      10      14      10      10      14      10      10      14      10      10
      14      10      10      14      10      10      14      10      10      14
      10      10      14      10      10      14      10      10      14      10
      10      14      10      10      14      10      10      14      10      10
      14      10      10      14      10      10      14      10      10      14
      10      10      14      10      10      14      10      10      14      10
      10      14      10      10      14      10      10      14      10      10
      14      10      10      14      10      10      14      10      10      14
      10      10      14      10      10      14      10      10      14      10
      10      14      10      10      14      10      10      14      10      10
      14      10      10      14      10      10      14      10      10      14
      10      10      14      10      10      14      10      10      14      10
      10      14      10      10      14      10      10      14      10      10
      14      10      10      14      10      10      14      10      10      14
      10      10      14      10      10      14      10      10      14      10
      10      14      10      10      14      10      10      14      10      10
      14      10      10      14      10      10      14      10      10      14
      10      10      14      10      10      14      10      10      14      10
      10      14      10      10      14      10      10      14      10      10
      14      10      10      14      10      10      14      10      10      14
      10      10      14      10      10      14      10      10      14      10
      10      14      10      10      14      10      10      14      10      10
      14      10      10      14      10      10      14      10      10      14
      10      10      14      10      10      14      10      10      14      10
      10      14      10      10      14      10      10      14      10      10
      14      10      10      14      10      10      14      10      10      14
      10      10      14      10      10      14      10      10      14      10
      10      14      10      10      14      10      10      14      10      10
      14      10      10      14      10      10      14      10      10      14
      10      10      14      10      10      14      10      10      14      10
      10      14      10      10      14      10      10      14      10      10
      14      10      10      14      10      10      14      10      10      14
      10      10      14      10      10      14      10      10      14      10
      10      14      10      10      14      10      10      14      10      10
      14      10      10      14      10      10      14      10      10      14
      10      10      14      10      10      14      10      10      14      10
      10      14      10      10      14      10      10      14      10      10
      14      10      10      14      10      10      14      10      10      14
      10      10      14      10      10      14      10      10      14      10
      10      14      10      10      14      10      10      14      10      10
      14      10      10      14      10      10      14      10      10      14
      10      10      14      10      10      14      10      10      14      10
      10      14      10      10      14      10      10      14      10      10
      14      10      10      14      10      10      14      10      10      14
      10      10      14      10      10      14      10      10      14      10
      10      14      10      10      14      10      10      14      10      10
      14      10      10      14      10      10      14      10      10      14
      10      10      14      10      10      14      10      10      14      10
      10      14      10      10      14      10      10      14      10      10
      14      10      10      14      10      10      14      10      10      14
      10      10      14      10      10      14      10      10      14      10
      10      14      10      10      14      10      10      14      10      10
      14      10      10      14      10      10      14      10      10      14
      10      10      14      10      10      14      10      10      14      10
      10      14      10      10      14      10      10      14      10      10
      14      10      10      14      10      10      14      10      10      14
      10      10      14      10      10      14      10      10      14      10
      10      14      10      10      14      10      10      14      10      10
      14      10      10      14      10      10      14      10      10      14
      10      10      14      10      10      14      10      10      14      10
      10      14      10      10      14      10      10      14      10      10
      14      10      10      14      10      10      14      10      10      14
      10      10      14      10      10      14      10      10      14      10
      10      14      10      10      14      10      10      14      10      10
      14      10      10      14      10      10      14      10      10      14
      10      10      14      10      10      14      10      10      14      10
      10      14      10      10      14      10      10      14      10      10
      14      10      10      14      10      10      14      10      10      14
      10      10      14      10      10      14      10      10      14      10
      10      14      10      10      14      10      10      14      10      10
      14      10      10      14      10      10      14      10      10      14
      10      10      14      10      10      14      10      10      14      10
      10      14      10      10      14      10      10      14      10      10
      14      10      10      14      10      10      14      10      10      14
      10      10      14      10      10      14      10      10      14      10
      10      14      10      10      14      10      10      14      10      10
      14      10      10      14      10      10      14      10      10      14
      10      10      14      10      10      14      10      10      14      10
      10      14      10      10      14      10      10      14      10      10
      14      10      10      14      10      10      14      10      10      14
      10      10      14      10      10      14      10      10      14      10
      10      14      10      10      14      10      10      14      10      10
      14      10      10      14      10      10      14      10      10      14
      10      10      14      10      10      14      10      10      14      10
      10      14      10      10      14      10      10      14      10      10
      14      10      10      14      10      10      14      10      10      14
      10      10      14      10      10      14      10      10      14      10
      10      14      10      10      14      10      10      14      10      10
      14      10      10      14      10      10      14      10      10      14
      10      10      14      10      10      14      10      10      14      10
      10      14      10      10      14      10      10      14      10      10
      14      10      10      14      10      10      14      10      10      14
      10      10      14      10      10      14      10      10      14      10
      10      14      10      10      14      10      10      14      10      10
      14      10      10      14      10      10      14      10      10      14
      10      10      14      10      10      14      10      10      14      10
      10      14      10      10      14      10      10      14      10      10
      14      10      10      14      10      10      14      10      10      14
      10      10      14      10      10      14      10      10      14      10
      10      14      10      10      14      10      10      14      10      10
      14      10      10      14      10      10      14      10      10      14
      10      10      14      10      10      14      10      10      14      10
      10      14      10      10      14      10      10      14      10      10
      14      10      10      14      10      10      14      10      10      14
      10      10      14      10      10      14      10      10      14      10
      10      14      10      10      14      10      10      14      10      10
      14      10      10      14      10      10      14      10      10      14
      10      10      14      10      10      14      10      10      14      10
      10      14      10      10      14      10      10      14      10      10
      14      10      10      14      10      10      14      10      10      14
      10      10      14      10      10      14      10      10      14      10
      10      14      10      10      14      10      10      14      10      10
      14      10      10      14      10      10      14      10      10      14
      10      10      14      10      10      14      10      10      14      10
      10      14      10      10      14      10      10      14      10      10
      14      10      10      14      10      10      14      10      10      14
      10      10      14      10      10      14      10      10      14      10
      10      14      10      10      14      10      10      14      10      10
      14      10      10      14      10      10      14      10      10      14
      10      10      14      10      10      14      10      10      14      10
      10      14      10      10      14      10      10      14      10      10
      14      10      10      14      10      10      14      10      10      14
      10      10      14      10      10      14      10      10      14      10
      10      14      10      10      14      10      10      14      10      10
      14      10      10      14      10      10      14      10      10      14
      10      10      14      10      10      14      10      10      14      10
      10      14      10      10      14      10      10      14      10      10
      14      10      10      14      10      10      14      10      10      14
      10      10      14      10      10      14      10      10      14      10
      10      14      10      10      14      10      10      14      10      10
      14      10      10      14      10      10      14      10      10      14
      10      10      14      10      10      14      10      10      14      10
      10      14      10      10      14      10      10      14      10      10
      14      10      10      14      10      10      14      10      10      14
      10      10      14      10      10      14      10      10      14      10
      10      14      10      10      14      10      10      14      10      10
      14      10      10      14      10      10      14      10      10      14
      10      10      14      10      10      14      10      10      14      10
      10      14      10      10      14      10      10      14      10      10
      14      10      10      14      10      10      14      10      10      14
      10      10      14      10      10      14      10      10      14      10
      10      14      10      10      14      10      10      14      10      10
      14      10      10      14      10      10      14      10      10      14
      10      10      14      10      10      14      10      10      14      10
      10      14      10      10      14      10      10      14      10      10
      14      10      10      14      10      10      14      10      10      14
      10      10      14      10      10      14      10      10      14      10
      10      14      10      10      14      10      10      14      10      10
      14      10      10      14      10      10      14      10      10      14
      10      10      14      10      10      14      10      10      14      10
      10      14      10      10      14      10      10      14      10      10
      14      10      10      14      10      10      14      10      10      14
      10      10      14      10      10      14      10      10      14      10
      10      14      10      10      14      10      10      14      10      10
      14      10      10      14      10      10      14      10      10      14
      10      10      14      10      10      14      10      10      14      10
      10      14      10      10      14      10      10      14      10      10
      14      10      10      14      10      10      14      10      10      14
      10      10      14      10      10      14      10      10      14      10
      10      14      10      10      14      10      10      14      10      10
      14      10      10      14      10      10      14      10      10      14
      10      10      14      10      10      14      10      10      14      10
      10      14      10      10      14      10      10      14      10      10
      14      10      10      14      10      10      14      10      10      14
      10      10      14      10      10      14      10      10      14      10
      10      14      10      10      14      10      10      14      10      10
      14      10      10      14      10      10      14      10      10      14
      10      10      14      10      10      14      10      10      14      10
      10      14      10      10      14      10      10      14      10      10
      14      10      10      14      10      10      14      10      10      14
      10      10      14      10      10      14      10      10      14      10
      10      14      10      10      14      10      10      14      10      10
      14      10      10      14      10      10      14      10      10      14
      10      10      14      10      10      14      10      10      14      10
      10      14      10      10      14      10      10      14      10      10
      14      10      10      14      10      10      14      10      10      14
      10      10      14      10      10      14      10      10      14      10
      10      14      10      10      14      10      10      14      10      10
      14      10      10      14      10      10      14      10      10      14
      10      10      14      10      10      14      10      10      14      10
      10      14      10      10      14      10      10      14      10      10
      14      10      10      14      10      10      14      10      10      14
      10      10      14      10      10      14      10      10      14      10
      10      14      10      10      14      10      10      14      10      10
      14      10      10      14      10      10      14      10      10      14
      10      10      14      10      10      14      10      10      14      10
      10      14      10      10      14      10      10      14      10      10
      14      10      10      14      10      10      14      10      10      14
      10      10      14      10      10      14      10      10      14      10
      10      14      10      10      14      10      10      14      10      10
      14      10      10      14      10      10      14      10      10      14
      10      10      14      10      10      14      10      10      14      10
      10      14      10      10      14      10      10      14      10      10
      14      10      10      14      10      10      14      10      10      14
      10      10      14      10      10      14      10      10      14      10
      10      14      10      10      14      10      10      14      10      10
      14      10      10      14      10      10      14      10      10      14
      10      10      14      10      10      14      10      10      14      10
      10      14      10      10      14      10      10      14      10      10
      14      10      10      14      10      10      14      10      10      14
      10      10      14      10      10      14      10      10      14      10
      10      14      10      10      14      10      10      14      10      10
      14      10      10      14      10      10      14      10      10      14
      10      10      14      10      10      14      10      10      14      10
      10      14      10      10      14      10      10      14      10      10
      14      10      10      14      10      10      14      10      10      14
      10      10      14      10      10      14      10      10      14      10
      10      14      10      10      14      10      10      14      10      10
      14      10      10      14      10      10      14      10      10      14
      10      10      14      10      10      14      10      10      14      10
      10      14      10      10      14      10      10      14      10      10
      14      10      10      14      10      10      14      10      10      14
      10      10      14      10      10      14      10      10      14      10
      10      14      10      10      14      10      10      14      10      10
      14      10      10      14      10      10      14      10      10      14
      10      10      14      10      10      14      10      10      14      10
      10      14      10      10      14      10      10      14      10      10
      14      10      10      14      10      10      14      10      10      14
      10      10      14      10      10      14      10      10      14      10
      10      14      10      10      14      10      10      14      10      10
      14      10      10      14      10      10      14      10      10      14
      10      10      14      10      10      14      10      10      14      10
      10      14      10      10      14      10      10      14      10      10
      14      10      10      14      10      10      14      10      10      14
      10      10      14      10      10      14      10      10      14      10
      10      14      10      10      14      10      10      14      10      10
      14      10      10      14      10      10      14      10      10      14
      10      10      14      10      10      14      10      10      14      10
      10      14      10      10      14      10      10      14      10      10
      14      10      10      14      10      10      14      10      10      14
      10      10      14      10      10      14      10      10      14      10
      10      14      10      10      14      10      10      14      10      10
      14      10      10      14      10      10      14      10      10      14
      10      10      14      10      10      14      10      10      14      10
      10      14      10      10      14      10      10      14      10      10
      14      10      10      14      10      10      14      10      10      14
      10      10      14      10      10      14      10      10      14      10
      10      14      10      10      14      10      10      14      10      10
      14      10      10      14      10      10      14      10      10      14
      10      10      14      10      10      14      10      10      14      10
      10      14      10      10      14      10      10      14      10      10
      14      10      10      14      10      10      14      10      10      14
      10      10      14      10      10      14      10      10      14      10
      10      14      10      10      14      10      10      14      10      10
      14      10      10      14      10      10      14      10      10      14
      10      10      14      10      10      14      10      10      14      10
      10      14      10      10      14      10      10      14      10      10
      14      10      10      14      10      10      14      10      10      14
      10      10      14      10      10      14      10      10      14      10
      10      14      10      10      14      10      10      14      10      10
      14      10      10      14      10      10      14      10      10      14
      10      10      14      10      10      14      10      10      14      10
      10      14      10      10      14      10      10      14      10      10
      14      10      10      14      10      10      14      10      10      14
      10      10      14      10      10      14      10      10      14      10
      10      14      10      10      14      10      10      14      10      10
      14      10      10      14      10      10      14      10      10      14
      10      10      14      10      10      14      10      10      14      10
      10      14      10      10      14      10      10      14      10      10
      14      10      10      14      10      10      14      10      10      14
      10      10      14      10      10      14      10      10      14      10
      10      14      10      10      14      10      10      14      10      10
      14      10      10      14      10      10      14      10      10      14
      10      10      14      10      10      14      10      10      14      10
      10      14      10      10      14      10      10      14      10      10
      14      10      10      14      10      10      14      10      10      14
      10      10      14      10      10      14      10      10      14      10
      10      14      10      10      14      10      10      14      10      10
      14      10      10      14      10      10      14      10      10      14
      10      10      14      10      10      14      10      10      14      10
      10      14      10      10      14      10      10      14      10      10
      14      10      10      14      10      10      14      10      10      14
      10      10      14      10      10      14      10      10      14      10
      10      14      10      10      14      10      10      14      10      10
      14      10      10      14      10      10      14      10      10      14
      10      10      14      10      10      14      10      10      14      10
      10      14      10      10      14      10      10      14      10      10
      14      10      10      14      10      10      14      10      10      14
      10      10      14      10      10      14      10      10      14      10
      10      14      10      10      14      10      10      14      10      10
      14      10      10      14      10      10      14      10      10      14
      10      10      14      10      10      14      10      10      14      10
      10      14      10      10      14      10      10      14      10      10
      14      10      10      14      10      10      14      10      10      14
      10      10      14      10      10      14      10      10      14      10
      10      14      10      10      14      10      10      14      10      10
      14      10      10      14      10      10      14      10      10      14
      10      10      14      10      10      14      10      10      14      10
      10      14      10      10      14      10      10      14      10      10
      14      10      10      14      10      10      14      10      10      14
      10      10      14      10      10      14      10      10      14      10
      10      14      10      10      14      10      10      14      10      10
      14      10      10      14      10      10      14      10      10      14
      10      10      14      10      10      14      10      10      14      10
      10      14      10      10      14      10      10      14      10      10
      14      10      10      14      10      10      14      10      10      14
      10      10      14      10      10      14      10      10      14      10
      10      14      10      10      14      10      10      14      10      10
      14      10      10      14      10      10      14      10      10      14
      10      10      14      10      10      14      10      10      14      10
      10      14      10      10      14      10      10      14      10      10
      14      10      10      14      10      10      14      10      10      14
      10      10      14      10      10      14      10      10      14      10
      10      14      10      10      14      10      10      14      10      10
      14      10      10      14      10      10      14      10      10      14
      10      10      14      10      10      14      10      10      14      10
      10      14      10      10      14      10      10      14      10      10
      14      10      10      14      10      10      14      10      10      14
      10      10      14      10      10      14      10      10      14      10
      10      14      10      10      14      10      10      14      10      10
      14      10      10      14      10      10      14      10      10      14
      10      10      14      10      10      14      10      10      14      10
      10      14      10      10      14      10      10      14      10      10
      14      10      10      14      10      10      14      10      10      14
      10      10      14      10      10      14      10      10      14      10
      10      14      10      10      14      10      10      14      10      10
      14      10      10      14      10      10      14      10      10      14
      10      10      14      10      10      14      10      10      14      10
      10      14      10      10      14      10      10      14      10      10
      14      10      10      14      10      10      14      10      10      14
      10      10      14      10      10      14      10      10      14      10
      10      14      10      10      14      10      10      14      10      10
      14      10      10      14      10      10      14      10      10      14
      10      10      14      10      10      14      10      10      14      10
      10      14      10      10      14      10      10      14      10      10
      14      10      10      14      10      10      14      10      10      14
      10      10      14      10      10      14      10      10      14      10
      10      14      10      10      14      10      10      14      10      10
      14      10      10      14      10      10      14      10      10      14
      10      10      14      10      10      14      10      10      14      10
      10      14      10      10      14      10      10      14      10      10
      14      10      10      14      10      10      14      10      10      14
      10      10      14      10      10      14      10      10      14      10
      10      14      10      10      14      10      10      14      10      10
      14      10      10      14      10      10      14      10      10      14
      10      10      14      10      10      14      10      10      14      10
      10      14      10      10      14      10      10      14      10      10
      14      10      10      14      10      10      14      10      10      14
      10      10      14      10      10      14      10      10      14      10
      10      14      10      10      14      10      10      14      10      10
      14      10      10      14      10      10      14      10      10      14
      10      10      14      10      10      14      10      10      14      10
      10      14      10      10      14      10      10      14      10      10
      14      10      10      14      10      10      14      10      10      14
      10      10      14      10      10      14      10      10      14      10
      10      14      10      10      14      10      10      14      10      10
      14      10      10      14      10      10      14      10      10      14
      10      10      14      10      10      14      10      10      14      10
      10      14      10      10      14      10      10      14      10      10
      14      10      10      14      10      10      14      10      10      14
      10      10      14      10      10      14      10      10      14      10
      10      14      10      10      14      10      10      14      10      10
      14      10      10      14      10      10      14      10      10      14
      10      10      14      10      10      14      10      10      14      10
      10      14      10      10      14      10      10      14      10      10
      14      10      10      14      10      10      14      10      10      14
      10      10      14      10      10      14      10      10      14      10
      10      14      10      10      14      10      10      14      10      10
      14      10      10      14      10      10      14      10      10      14
      10      10      14      10      10      14      10      10      14      10
      10      14      10      10      14      10      10      14      10      10
      14      10      10      14      10      10      14      10      10      14
      10      10      14      10      10      14      10      10      14      10
      10      14      10      10      14      10      10      14      10      10
      14      10      10      14      10      10      14      10      10      14
      10      10      14      10      10      14      10      10      14      10
      10      14      10      10      14      10      10      14      10      10
      14      10      10      14      10      10      14      10      10      14
      10      10      14      10      10      14      10      10      14      10
      10      14      10      10      14      10      10      14      10      10
      14      10      10      14      10      10      14      10      10      14
      10      10      14      10      10      14      10      10      14      10
      10      14      10      10      14      10      10      14      10      10
      14      10      10      14      10      10      14      10      10      14
      10      10      14      10      10      14      10      10      14      10
      10      14      10      10      14      10      10      14      10      10
      14      10      10      14      10      10      14      10      10      14
      10      10      14      10      10      14      10      10      14      10
      10      14      10      10      14      10      10      14      10      10
      14      10      10      14      10      10      14      10      10      14
      10      10      14      10      10      14      10      10      14      10
      10      14      10      10      14      10      10      14      10      10
      14      10      10      14      10      10      14      10      10      14
      10      10      14      10      10      14      10      10      14      10
      10      14      10      10      14      10      10      14      10      10
      14      10      10      14      10      10      14      10      10      14
      10      10      14      10      10      14      10      10      14      10
      10      14      10      10      14      10      10      14      10      10
      14      10      10      14      10      10      14      10      10      14
      10      10      14      10      10      14      10      10      14      10
      10      14      10      10      14      10      10      14      10      10
      14      10      10      14      10      10      14      10      10      14
      10      10      14      10      10      14      10      10      14      10
      10      14      10      10      14      10      10      14      10      10
      14      10      10      14      10      10      14      10      10      14
      10      10      14      10      10      14      10      10      14      10
      10      14      10      10      14      10      10      14      10      10
      14      10      10      14      10      10      14      10      10      14
      10      10      14      10      10      14      10      10      14      10
      10      14      10      10      14      10      10      14      10      10
      14      10      10      14      10      10      14      10      10      14
      10      10      14      10      10      14      10      10      14      10
      10      14      10      10      14      10      10      14      10      10
      14      10      10      14      10      10      14      10      10      14
      10      10      14      10      10      14      10      10      14      10
      10      14      10      10      14      10      10      14      10      10
      14      10      10      14      10      10      14      10      10      14
      10      10      14      10      10      14      10      10      14      10
      10      14      10      10      14      10      10      14      10      10
      14      10      10      14      10      10      14      10      10      14
      10      10      14      10      10      14      10      10      14      10
      10      14      10      10      14      10      10      14      10      10
      14      10      10      14      10      10      14      10      10      14
      10      10      14      10      10      14      10      10      14      10
      10      14      10      10      14      10      10      14      10      10
      14      10      10      14      10      10      14      10      10      14
      10      10      14      10      10      14      10      10      14      10
      10      14      10      10      14      10      10      14      10      10
      14      10      10      14      10      10      14      10      10      14
      10      10      14      10      10      14      10      10      14      10
      10      14      10      10      14      10      10      14      10      10
      14      10      10      14      10      10      14      10      10      14
      10      10      14      10      10      14      10      10      14      10
      10      14      10      10      14      10      10      14      10      10
      14      10      10      14      10      10      14      10      10      14
      10      10      14      10      10      14      10      10      14      10
      10      14      10      10      14      10      10      14      10      10
      14      10      10      14      10      10      14      10      10      14
      10      10      14      10      10      14      10      10      14      10
      10      14      10      10      14      10      10      14      10      10
      14      10      10      14      10      10      14      10      10      14
      10      10      14      10      10      14      10      10      14      10
      10      14      10      10      14      10      10      14      10      10
      14      10      10      14      10      10      14      10      10      14
      10      10      14      10      10      14      10      10      14      10
      10      14      10      10      14      10      10      14      10      10
      14      10      10      14      10      10      14      10      10      14
      10      10      14      10      10      14      10      10      14      10
      10      14      10      10      14      10      10      14      10      10
      14      10      10      14      10      10      14      10      10      14
      10      10      14      10      10      14      10      10      14      10
      10      14      10      10      14      10      10      14      10      10
      14      10      10      14      10      10      14      10      10      14
      10      10      14      10      10      14      10      10      14      10
      10      14      10      10      14      10      10      14      10      10
      14      10      10      14      10      10      14      10      10      14
      10      10      14      10      10      14      10      10      14      10
      10      14      10      10      14      10      10      14      10      10
      14      10      10      14      10      10      14      10      10      14
      10      10      14      10      10      14      10      10      14      10
      10      14      10      10      14      10      10      14      10      10
      14      10      10      14      10      10      14      10      10      14
      10      10      14      10      10      14      10      10      14      10
      10      14      10      10      14      10      10      14      10      10
      14      10      10      14      10      10      14      10      10      14
      10      10      14      10      10      14      10      10      14      10
      10      14      10      10      14      10      10      14      10      10
      14      10      10      14      10      10      14      10      10      14
      10      10      14      10      10      14      10      10      14      10
      10      14      10      10      14      10      10      14      10      10
      14      10      10      14      10      10      14      10      10      14
      10      10      14      10      10      14      10      10      14      10
      10      14      10      10      14      10      10      14      10      10
      14      10      10      14      10      10      14      10      10      14
      10      10      14      10      10      14      10      10      14      10
      10      14      10      10      14      10      10      14      10      10
      14      10      10      14      10      10      14      10      10      14
      10      10      14      10      10      14      10      10      14      10
      10      14      10      10      14      10      10      14      10      10
      14      10      10      14      10      10      14      10      10      14
      10      10      14      10      10      14      10      10      14      10
      10      14      10      10      14      10      10      14      10      10
      14      10      10      14      10      10      14      10      10      14
      10      10      14      10      10      14      10      10      14      10
      10      14      10      10      14      10      10      14      10      10
      14      10      10      14      10      10      14      10      10      14
      10      10      14      10      10      14      10      10      14      10
      10      14      10      10      14      10      10      14      10      10
      14      10      10      14      10      10      14      10      10      14
      10      10      14      10      10      14      10      10      14      10
      10      14      10      10      14      10      10      14      10      10
      14      10      10      14      10      10      14      10      10      14
      10      10      14      10      10      14      10      10      14      10
      10      14      10      10      14      10      10      14      10      10
      14      10      10      14      10      10      14      10      10      14
      10      10      14      10      10      14      10      10      14      10
      10      14      10      10      14      10      10      14      10      10
      14      10      10      14      10      10      14      10      10      14
      10      10      14      10      10      14      10      10      14      10
      10      14      10      10      14      10      10      14      10      10
      14      10      10      14      10      10      14      10      10      14
      10      10      14      10      10      14      10      10      14      10
      10      14      10      10      14      10      10      14      10      10
      14      10      10      14      10      10      14      10      10      14
      10      10      14      10      10      14      10      10      14      10
      10      14      10      10      14      10      10      14      10      10
      14      10      10      14      10      10      14      10      10      14
      10      10      14      10      10      14      10      10      14      10
      10      14      10      10      14      10      10      14      10      10
      14      10      10      14      10      10      14      10      10      14
      10      10      14      10      10      14      10      10      14      10
      10      14      10      10      14      10      10      14      10      10
      14      10      10      14      10      10      14      10      10      14
      10      10      14      10      10      14      10      10      14      10
      10      14      10      10      14      10      10      14      10      10
      14      10      10      14      10      10      14      10      10      14
      10      10      14      10      10      14      10      10      14      10
      10      14      10      10      14      10      10      14      10      10
      14      10      10      14      10      10      14      10      10      14
      10      10      14      10      10      14      10      10      14      10
      10      14      10      10      14      10      10      14      10      10
      14      10      10      14      10      10      14      10      10      14
      10      10      14      10      10      14      10      10      14      10
      10      14      10      10      14      10      10      14      10      10
      14      10      10      14      10      10      14      10      10      14
      10      10      14      10      10      14      10      10      14      10
      10      14      10      10      14      10      10      14      10      10
      14      10      10      14      10      10      14      10      10      14
      10      10      14      10      10      14      10      10      14      10
      10      14      10      10      14      10      10      14      10      10
      14      10      10      14      10      10      14      10      10      14
      10      10      14      10      10      14      10      10      14      10
      10      14      10      10      14      10      10      14      10      10
      14      10      10      14      10      10      14      10      10      14
      10      10      14      10      10      14      10      10      14      10
      10      14      10      10      14      10      10      14      10      10
      14      10      10      14      10      10      14      10      10      14
      10      10      14      10      10      14      10      10      14      10
      10      14      10      10      14      10      10      14      10      10
      14      10      10      14      10      10      14      10      10      14
      10      10      14      10      10      14      10      10      14      10
      10      14      10      10      14      10      10      14      10      10
      14      10      10      14      10      10      14      10      10      14
      10      10      14      10      10      14      10      10      14      10
      10      14      10      10      14      10      10      14      10      10
      14      10      10      14      10      10      14      10      10      14
      10      10      14      10      10      14      10      10      14      10
      10      14      10      10      14      10      10      14      10      10
      14      10      10      14      10      10      14      10      10      14
      10      10      14      10      10      14      10      10      14      10
      10      14      10      10      14      10      10      14      10      10
      14      10      10      14      10      10      14      10      10      14
      10      10      14      10      10      14      10      10      14      10
      10      14      10      10      14      10      10      14      10      10
      14      10      10      14      10      10      14      10      10      14
      10      10      14      10      10      14      10      10      14      10
      10      14      10      10      14      10      10      14      10      10
      14      10      10      14      10      10      14      10      10      14
      10      10      14      10      10      14      10      10      14      10
      10      14      10      10      14      10      10      14      10      10
      14      10      10      14      10      10      14      10      10      14
      10      10      14      10      10      14      10      10      14      10
      10      14      10      10      14      10      10      14      10      10
      14      10      10      14      10      10      14      10      10      14
      10      10      14      10      10      14      10      10      14      10
      10      14      10      10      14      10      10      14      10      10
      14      10      10      14      10      10      14      10      10      14
      10      10      14      10      10      14      10      10      14      10
      10      14      10      10      14      10      10      14      10      10
      14      10      10      14      10      10      14      10      10      14
      10      10      14      10      10      14      10      10      14      10
      10      14      10      10      14      10      10      14      10      10
      14      10      10      14      10      10      14      10      10      14
      10      10      14      10      10      14      10      10      14      10
      10      14      10      10      14      10      10      14      10      10
      14      10      10      14      10      10      14      10      10      14
      10      10      14      10      10      14      10      10      14      10
      10      14      10      10      14      10      10      14      10      10
      14      10      10      14      10      10      14      10      10      14
      10      10      14      10      10      14      10      10      14      10
      10      14      10      10      14      10      10      14      10      10
      14      10      10      14      10      10      14      10      10      14
      10      10      14      10      10      14      10      10      14      10
      10      14      10      10      14      10      10      14      10      10
      14      10      10      14      10      10      14      10      10      14
      10      10      14      10      10      14      10      10      14      10
      10      14      10      10      14      10      10      14      10      10
      14      10      10      14      10      10      14      10      10      14
      10      10      14      10      10      14      10      10      14      10
      10      14      10      10      14      10      10      14      10      10
      14      10      10      14      10      10      14      10      10      14
      10      10      14      10      10      14      10      10      14      10
      10      14      10      10      14      10      10      14      10      10
      14      10      10      14      10      10      14      10      10      14
      10      10      14      10      10      14      10      10      14      10
      10      14      10      10      14      10      10      14      10      10
      14      10      10      14      10      10      14      10      10      14
      10      10      14      10      10      14      10      10      14      10
      10      14      10      10      14      10      10      14      10      10
      14      10      10      14      10      10      14      10      10      14
      10      10      14      10      10      14      10      10      14      10
      10      14      10      10      14      10      10      14      10      10
      14      10      10      14      10      10      14      10      10      14
      10      10      14      10      10      14      10      10      14      10
      10      14      10      10      14      10      10      14      10      10
      14      10      10      14      10      10      14      10      10      14
      10      10      14      10      10      14      10      10      14      10
      10      14      10      10      14      10      10      14      10      10
      14      10      10      14      10      10      14      10      10      14
      10      10      14      10      10      14      10      10      14      10
      10      14      10      10      14      10      10      14      10      10
      14      10      10      14      10      10      14      10      10      14
      10      10      14      10      10      14      10      10      14      10
      10      14      10      10      14      10      10      14      10      10
      14      10      10      14      10      10      14      10      10      14
      10      10      14      10      10      14      10      10      14      10
      10      14      10      10      14      10      10      14      10      10
      14      10      10      14      10      10      14      10      10      14
      10      10      14      10      10      14      10      10      14      10
      10      14      10      10      14      10      10      14      10      10
      14      10      10      14      10      10      14      10      10      14
      10      10      14      10      10      14      10      10      14      10
      10      14      10      10      14      10      10      14      10      10
      14      10      10      14      10      10      14      10      10      14
      10      10      14      10      10      14      10      10      14      10
      10      14      10      10      14      10      10      14      10      10
      14      10      10      14      10      10      14      10      10      14
      10      10      14      10      10      14      10      10      14      10
      10      14      10      10      14      10      10      14      10      10
      14      10      10      14      10      10      14      10      10      14
      10      10      14      10      10      14      10      10      14      10
      10      14      10      10      14      10      10      14      10      10
      14      10      10      14      10      10      14      10      10      14
      10      10      14      10      10      14      10      10      14      10
      10      14      10      10      14      10      10      14      10      10
      14      10      10      14      10      10      14      10      10      14
      10      10      14      10      10      14      10      10      14      10
      10      14      10      10      14      10      10      14      10      10
      14      10      10      14      10      10      14      10      10      14
      10      10      14      10      10      14      10      10      14      10
      10      14      10      10      14      10      10      14      10      10
      14      10      10      14      10      10      14      10      10      14
      10      10      14      10      10      14      10      10      14      10
      10      14      10      10      14      10      10      14      10      10
      14      10      10      14      10      10      14      10      10      14
      10      10      14      10      10      14      10      10      14      10
      10      14      10      10      14      10      10      14      10      10
      14      10      10      14      10      10      14      10      10      14
      10      10      14      10      10      14      10      10      14      10
      10      14      10      10      14      10      10      14      10      10
      14      10      10      14      10      10      14      10      10      14
      10      10      14      10      10      14      10      10      14      10
      10      14      10      10      14      10      10      14      10      10
      14      10      10      14      10      10      14      10      10      14
      10      10      14      10      10      14      10      10      14      10
      10      14      10      10      14      10      10      14      10      10
      14      10      10      14      10      10      14      10      10      14
      10      10      14      10      10      14      10      10      14      10
      10      14      10      10      14      10      10      14      10      10
      14      10      10      14      10      10      14      10      10      14
      10      10      14      10      10      14      10      10      14      10
      10      14      10      10      14      10      10      14      10      10
      14      10      10      14      10      10      14      10      10      14
      10      10      14      10      10      14      10      10      14      10
      10      14      10      10      14      10      10      14      10      10
      14      10      10      14      10      10      14      10      10      14
      10      10      14      10      10      14      10      10      14      10
      10      14      10      10      14      10      10      14      10      10
      14      10      10      14      10      10      14      10      10      14
      10      10      14      10      10      14      10      10      14      10
      10      14      10      10      14      10      10      14      10      10
      14      10      10      14      10      10      14      10      10      14
      10      10      14      10      10      14      10      10      14      10
      10      14      10      10      14      10      10      14      10      10
      14      10      10      14      10      10      14      10      10      14
      10      10      14      10      10      14      10      10      14      10
      10      14      10      10      14      10      10      14      10      10
      14      10      10      14      10      10      14      10      10      14
      10      10      14      10      10      14      10      10      14      10
      10      14      10      10      14      10      10      14      10      10
      14      10      10      14      10      10      14      10      10      14
      10      10      14      10      10      14      10      10      14      10
      10      14      10      10      14      10      10      14      10      10
      14      10      10      14      10      10      14      10      10      14
      10      10      14      10      10      14      10      10      14      10
      10      14      10      10      14      10      10      14      10      10
      14      10      10      14      10      10      14      10      10      14
      10      10      14      10      10      14      10      10      14      10
      10      14      10      10      14      10      10      14      10      10
      14      10      10      14      10      10      14      10      10      14
      10      10      14      10      10      14      10      10      14      10
      10      14      10      10      14      10      10      14      10      10
      14      10      10      14      10      10      14      10      10      14
      10      10      14      10      10      14      10      10      14      10
      10      14      10      10      14      10      10      14      10      10
      14      10      10      14      10      10      14      10      10      14
      10      10      14      10      10      14      10      10      14      10
      10      14      10      10      14      10      10      14      10      10
      14      10      10      14      10      10      14      10      10      14
      10      10      14      10      10      14      10      10      14      10
      10      14      10      10      14      10      10      14      10      10
      14      10      10      14      10      10      14      10      10      14
      10      10      14      10      10      14      10      10      14      10
      10      14      10      10      14      10      10      14      10      10
      14      10      10      14      10      10      14      10      10      14
      10      10      14      10      10      14      10      10      14      10
      10      14      10      10      14      10      10      14      10      10
      14      10      10      14      10      10      14      10      10      14
      10      10      14      10      10      14      10      10      14      10
      10      14      10      10      14      10      10      14      10      10
      14      10      10      14      10      10      14      10      10      14
      10      10      14      10      10      14      10      10      14      10
      10      14      10      10      14      10      10      14      10      10
      14      10      10      14      10      10      14      10      10      14
      10      10      14      10      10      14      10      10      14      10
      10      14      10      10      14      10      10      14      10      10
      14      10      10      14      10      10      14      10      10      14
      10      10      14      10      10      14      10      10      14      10
      10      14      10      10      14      10      10      14      10      10
      14      10      10      14      10      10      14      10      10      14
      10      10      14      10      10      14      10      10      14      10
      10      14      10      10      14      10      10      14      10      10
      14      10      10      14      10      10      14      10      10      14
      10      10      14      10      10      14      10      10      14      10
      10      14      10      10      14      10      10      14      10      10
      14      10      10      14      10      10      14      10      10      14
      10      10      14      10      10      14      10      10      14      10
      10      14      10      10      14      10      10      14      10      10
      14      10      10      14      10      10      14      10      10      14
      10      10      14      10      10      14      10      10      14      10
      10      14      10      10      14      10      10      14      10      10
      14      10      10      14      10      10      14      10      10      14
      10      10      14      10      10      14      10      10      14      10
      10      14      10      10      14      10      10      14      10      10
      14      10      10      14      10      10      14      10      10      14
      10      10      14      10      10      14      10      10      14      10
      10      14      10      10      14      10      10      14      10      10
      14      10      10      14      10      10      14      10      10      14
      10      10      14      10      10      14      10      10      14      10
      10      14      10      10      14      10      10      14      10      10
      14      10      10      14      10      10      14      10      10      14
      10      10      14      10      10      14      10      10      14      10
      10      14      10      10      14      10      10      14      10      10
      14      10      10      14      10      10      14      10      10      14
      10      10      14      10      10      14      10      10      14      10
      10      14      10      10      14      10      10      14      10      10
      14      10      10      14      10      10      14      10      10      14
      10      10      14      10      10      14      10      10      14      10
      10      14      10      10      14      10      10      14      10      10
      14      10      10      14      10      10      14      10      10      14
      10      10      14      10      10      14      10      10      14      10
      10      14      10      10      14      10      10      14      10      10
      14      10      10      14      10      10      14      10      10      14
      10      10      14      10      10      14      10      10      14      10
      10      14      10      10      14      10      10      14      10      10
      14      10      10      14      10      10      14      10      10      14
      10      10      14      10      10      14      10      10      14      10
      10      14      10      10      14      10      10      14      10      10
      14      10      10      14      10      10      14      10      10      14
      10      10      14      10      10      14      10      10      14      10
      10      14      10      10      14      10      10      14      10      10
      14      10      10      14      10      10      14      10      10      14
      10      10      14      10      10      14      10      10      14      10
      10      14      10      10      14      10      10      14      10      10
      14      10      10      14      10      10      14      10      10      14
      10      10      14      10      10      14      10      10      14      10
      10      14      10      10      14      10      10      14      10      10
      14      10      10      14      10      10      14      10      10      14
      10      10      14      10      10      14      10      10      14      10
      10      14      10      10      14      10      10      14      10      10
      14      10      10      14      10      10      14      10      10      14
      10      10      14      10      10      14      10      10      14      10
      10      14      10      10      14      10      10      14      10      10
      14      10      10      14      10      10      14      10      10      14
      10      10      14      10      10      14      10      10      14      10
      10      14      10      10      14      10      10      14      10      10
      14      10      10      14      10      10      14      10      10      14
      10      10      14      10      10      14      10      10      14      10
      10      14      10      10      14      10      10      14      10      10
      14      10      10      14      10      10      14      10      10      14
      10      10      14      10      10      14      10      10      14      10
      10      14      10      10      14      10      10      14      10      10
      14      10      10      14      10      10      14      10      10      14
      10      10      14      10      10      14      10      10      14      10
      10      14      10      10      14      10      10      14      10      10
      14      10      10      14      10      10      14      10      10      14
      10      10      14      10      10      14      10      10      14      10
      10      14      10      10      14      10      10      14      10      10
      14      10      10      14      10      10      14      10      10      14
      10      10      14      10      10      14      10      10      14      10
      10      14      10      10      14      10      10      14      10      10
      14      10      10      14      10      10      14      10      10      14
      10      10      14      10      10      14      10      10      14      10
      10      14      10      10      14      10      10      14      10      10
      14      10      10      14      10      10      14      10      10      14
      10      10      14      10      10      14      10      10      14      10
      10      14      10      10      14      10      10      14      10      10
      14      10      10      14      10      10      14      10      10      14
      10      10      14      10      10      14      10      10      14      10
      10      14      10      10      14      10      10      14      10      10
      14      10      10      14      10      10      14      10      10      14
      10      10      14      10      10      14      10      10      14      10
      10      14      10      10      14      10      10      14      10      10
      14      10      10      14      10      10      14      10      10      14
      10      10      14      10      10      14      10      10      14      10
      10      14      10      10      14      10      10      14      10      10
      14      10      10      14      10      10      14      10      10      14
      10      10      14      10      10      14      10      10      14      10
      10      14      10      10      14      10      10      14      10      10
      14      10      10      14      10      10      14      10      10      14
      10      10      14      10      10      14      10      10      14      10
      10      14      10      10      14      10      10      14      10      10
      14      10      10      14      10      10      14      10      10      14
      10      10      14      10      10      14      10      10      14      10
      10      14      10      10      14      10      10      14      10      10
      14      10      10      14      10      10      14      10      10      14
      10      10      14      10      10      14      10      10      14      10
      10      14      10      10      14      10      10      14      10      10
      14      10      10      14      10      10      14      10      10      14
      10      10      14      10      10      14      10      10      14      10
      10      14      10      10      14      10      10      14      10      10
      14      10      10      14      10      10      14      10      10      14
      10      10      14      10      10      14      10      10      14      10
      10      14      10      10      14      10      10      14      10      10
      14      10      10      14      10      10      14      10      10      14
      10      10      14      10      10      14      10      10      14      10
      10      14      10      10      14      10      10      14      10      10
      14      10      10      14      10      10      14      10      10      14
      10      10      14      10      10      14      10      10      14      10
      10      14      10      10      14      10      10      14      10      10
      14      10      10      14      10      10      14      10      10      14
      10      10      14      10      10      14      10      10      14      10
      10      14      10      10      14      10      10      14      10      10
      14      10      10      14      10      10      14      10      10      14
      10      10      14      10      10      14      10      10      14      10
      10      14      10      10      14      10      10      14      10      10
      14      10      10      14      10      10      14      10      10      14
      10      10      14      10      10      14      10      10      14      10
      10      14      10      10      14      10      10      14      10      10
      14      10      10      14      10      10      14      10      10      14
      10      10      14      10      10      14      10      10      14      10
      10      14      10      10      14      10      10      14      10      10
      14      10      10      14      10      10      14      10      10      14
      10      10      14      10      10      14      10      10      14      10
      10      14      10      10      14      10      10      14      10      10
      14      10      10      14      10      10      14      10      10      14
      10      10      14      10      10      14      10      10      14      10
      10      14      10      10      14      10      10      14      10      10
      14      10      10      14      10      10      14      10      10      14
      10      10      14      10      10      14      10      10      14      10
      10      14      10      10      14      10      10      14      10      10
      14      10      10      14      10      10      14      10      10      14
      10      10      14      10      10      14      10      10      14      10
      10      14      10      10      14      10      10      14      10      10
      14      10      10      14      10      10      14      10      10      14
      10      10      14      10      10      14      10      10      14      10
      10      14      10      10      14      10      10      14      10      10
      14      10      10      14      10      10      14      10      10      14
      10      10      14      10      10      14      10      10      14      10
      10      14      10      10      14      10      10      14      10      10
      14      10      10      14      10      10      14      10      10      14
      10      10      14      10      10      14      10      10      14      10
      10      14      10      10      14      10      10      14      10      10
      14      10      10      14      10      10      14      10      10      14
      10      10      14      10      10      14      10      10      14      10
      10      14      10      10      14      10      10      14      10      10
      14      10      10      14      10      10      14      10      10      14
      10      10      14      10      10      14      10      10      14      10
      10      14      10      10      14      10      10      14      10      10
      14      10      10      14      10      10      14      10      10      14
      10      10      14      10      10      14      10      10      14      10
      10      14      10      10      14      10      10      14      10      10
      14      10      10      14      10      10      14      10      10      14
      10      10      14      10      10      14      10      10      14      10
      10      14      10      10      14      10      10      14      10      10
      14      10      10      14      10      10      14      10      10      14
      10      10      14      10      10      14      10      10      14      10
      10      14      10      10      14      10      10      14      10      10
      14      10      10      14      10      10      14      10      10      14
      10      10      14      10      10      14      10      10      14      10
      10      14      10      10      14      10      10      14      10      10
      14      10      10      14      10      10      14      10      10      14
      10      10      14      10      10      14      10      10      14      10
      10      14      10      10      14      10      10      14      10      10
      14      10      10      14      10      10      14      10      10      14
      10      10      14      10      10      14      10      10      14      10
      10      14      10      10      14      10      10      14      10      10
      14      10      10      14      10      10      14      10      10      14
      10      10      14      10      10      14      10      10      14      10
      10      14      10      10      14      10      10      14      10      10
      14      10      10      14      10      10      14      10      10      14
      10      10      14      10      10      14      10      10      14      10
      10      14      10      10      14      10      10      14      10      10
      14      10      10      14      10      10      14      10      10      14
      10      10      14      10      10      14      10      10      14      10
      10      14      10      10      14      10      10      14      10      10
      14      10      10      14      10      10      14      10      10      14
      10      10      14      10      10      14      10      10      14      10
      10      14      10      10      14      10      10      14      10      10
      14      10      10      14      10      10      14      10      10      14
      10      10      14      10      10      14      10      10      14      10
      10      14      10      10      14      10      10      14      10      10
      14      10      10      14      10      10      14      10      10      14
      10      10      14      10      10      14      10      10      14      10
      10      14      10      10      14      10      10      14      10      10
      14      10      10      14      10      10      14      10      10      14
      10      10      14      10      10      14      10      10      14      10
      10      14      10      10      14      10      10      14      10      10
      14      10      10      14      10      10      14      10      10      14
      10      10      14      10      10      14      10      10      14      10
      10      14      10      10      14      10      10      14      10      10
      14      10      10      14      10      10      14      10      10      14
      10      10      14      10      10      14      10      10      14      10
      10      14      10      10      14      10      10      14      10      10
      14      10      10      14      10      10      14      10      10      14
      10      10      14      10      10      14      10      10      14      10
      10      14      10      10      14      10      10      14      10      10
      14      10      10      14      10      10      14      10      10      14
      10      10      14      10      10      14      10      10      14      10
      10      14      10      10      14      10      10      14      10      10
      14      10      10      14      10      10      14      10      10      14
      10      10      14      10      10      14      10      10      14      10
      10      14      10      10      14      10      10      14      10      10
      14      10      10      14      10      10      14      10      10      14
      10      10      14      10      10      14      10      10      14      10
      10      14      10      10      14      10      10      14      10      10
      14      10      10      14      10      10      14      10      10      14
      10      10      14      10      10      14      10      10      14      10
      10      14      10      10      14      10      10      14      10      10
      14      10      10      14      10      10      14      10      10      14
      10      10      14      10      10      14      10      10      14      10
      10      14      10      10      14      10      10      14      10      10
      14      10      10      14      10      10      14      10      10      14
      10      10      14      10      10      14      10      10      14      10
      10      14      10      10      14      10      10      14      10      10
      14      10      10      14      10      10      14      10      10      14
      10      10      14      10      10      14      10      10      14      10
      10      14      10      10      14      10      10      14      10      10
      14      10      10      14      10      10      14      10      10      14
      10      10      14      10      10      14      10      10      14      10
      10      14      10      10      14      10      10      14      10      10
      14      10      10      14      10      10      14      10      10      14
      10      10      14      10      10      14      10      10      14      10
      10      14      10      10      14      10      10      14      10      10
      14      10      10      14      10      10      14      10      10      14
      10      10      14      10      10      14      10      10      14      10
      10      14      10      10      14      10      10      14      10      10
      14      10      10      14      10      10      14      10      10      14
      10      10      14      10      10      14      10      10      14      10
      10      14      10      10      14      10      10      14      10      10
      14      10      10      14      10      10      14      10      10      14
      10      10      14      10      10      14      10      10      14      10
      10      14      10      10      14      10      10      14      10      10
      14      10      10      14      10      10      14      10      10      14
      10      10      14      10      10      14      10      10      14      10
      10      14      10      10      14      10      10      14      10      10
      14      10      10      14      10      10      14      10      10      14
      10      10      14      10      10      14      10      10      14      10
      10      14      10      10      14      10      10      14      10      10
      14      10      10      14      10      10      14      10      10      14
      10      10      14      10      10      14      10      10      14      10
      10      14      10      10      14      10      10      14      10      10
      14      10      10      14      10      10      14      10      10      14
      10      10      14      10      10      14      10      10      14      10
      10      14      10      10      14      10      10      14      10      10
      14      10      10      14      10      10      14      10      10      14
      10      10      14      10      10      14      10      10      14      10
      10      14      10      10      14      10      10      14      10      10
      14      10      10      14      10      10      14      10      10      14
      10      10      14      10      10      14      10      10      14      10
      10      14      10      10      14      10      10      14      10      10
      14      10      10      14      10      10      14      10      10      14
      10      10      14      10      10      14      10      10      14      10
      10      14      10      10      14      10      10      14      10      10
      14      10      10      14      10      10      14      10      10      14
      10      10      14      10      10      14      10      10      14      10
      10      14      10      10      14      10      10      14      10      10
      14      10      10      14      10      10      14      10      10      14
      10      10      14      10      10      14      10      10      14      10
      10      14      10      10      14      10      10      14      10      10
      14      10      10      14      10      10      14      10      10      14
      10      10      14      10      10      14      10      10      14      10
      10      14      10      10      14      10      10      14      10      10
      14      10      10      14      10      10      14      10      10      14
      10      10      14      10      10      14      10      10      14      10
      10      14      10      10      14      10      10      14      10      10
      14      10      10      14      10      10      14      10      10      14
      10      10      14      10      10      14      10      10      14      10
      10      14      10      10      14      10      10      14      10      10
      14      10      10      14      10      10      14      10      10      14
      10      10      14      10      10      14      10      10      14      10
      10      14      10      10      14      10      10      14      10      10
      14      10      10      14      10      10      14      10      10      14
      10      10      14      10      10      14      10      10      14      10
      10      14      10      10      14      10      10      14      10      10
      14      10      10      14      10      10      14      10      10      14
      10      10      14      10      10      14      10      10      14      10
      10      14      10      10      14      10      10      14      10      10
      14      10      10      14      10      10      14      10      10      14
      10      10      14      10      10      14      10      10      14      10
      10      14      10      10      14      10      10      14      10      10
      14      10      10      14      10      10      14      10      10      14
      10      10      14      10      10      14      10      10      14      10
      10      14      10      10      14      10      10      14      10      10
      14      10      10      14      10      10      14      10      10      14
      10      10      14      10      10      14      10      10      14      10
      10      14      10      10      14      10      10      14      10      10
      14      10      10      14      10      10      14      10      10      14
      10      10      14      10      10      14      10      10      14      10
      10      14      10      10      14      10      10      14      10      10
      14      10      10      14      10      10      14      10      10      14
      10      10      14      10      10      14      10      10      14      10
      10      14      10      10      14      10      10      14      10      10
      14      10      10      14      10      10      14      10      10      14
      10      10      14      10      10      14      10      10      14      10
      10      14      10      10      14      10      10      14      10      10
      14      10      10      14      10      10      14      10      10      14
      10      10      14      10      10      14      10      10      14      10
      10      14      10      10      14      10      10      14      10      10
      14      10      10      14      10      10      14      10      10      14
      10      10      14      10      10      14      10      10      14      10
      10      14      10      10      14      10      10      14      10      10
      14      10      10      14      10      10      14      10      10      14
      10      10      14      10      10      14      10      10      14      10
      10      14      10      10      14      10      10      14      10      10
      14      10      10      14      10      10      14      10      10      14
      10      10      14      10      10      14      10      10      14      10
      10      14      10      10      14      10      10      14      10      10
      14      10      10      14      10      10      14      10      10      14
      10      10      14      10      10      14      10      10      14      10
      10      14      10      10      14      10      10      14      10      10
      14      10      10      14      10      10      14      10      10      14
      10      10      14      10      10      14      10      10      14      10
      10      14      10      10      14      10      10      14      10      10
      14      10      10      14      10      10      14      10      10      14
      10      10      14      10      10      14      10      10      14      10
      10      14      10      10      14      10      10      14      10      10
      14      10      10      14      10      10      14      10      10      14
      10      10      14      10      10      14      10      10      14      10
      10      14      10      10      14      10      10      14      10      10
      14      10      10      14      10      10      14      10      10      14
      10      10      14      10      10      14      10      10      14      10
      10      14      10      10      14      10      10      14      10      10
      14      10      10      14      10      10      14      10      10      14
      10      10      14      10      10      14      10      10      14      10
      10      14      10      10      14      10      10      14      10      10
      14      10      10      14      10      10      14      10      10      14
      10      10      14      10      10      14      10      10      14      10
      10      14      10      10      14      10      10      14      10      10
      14      10      10      14      10      10      14      10      10      14
      10      10      14      10      10      14      10      10      14      10
      10      14      10      10      14      10      10      14      10      10
      14      10      10      14      10      10      14      10      10      14
      10      10      14      10      10      14      10      10      14      10
      10      14      10      10      14      10      10      14      10      10
      14      10      10      14      10      10      14      10      10      14
      10      10      14      10      10      14      10      10      14      10
      10      14      10      10      14      10      10      14      10      10
      14      10      10      14      10      10      14      10      10      14
      10      10      14      10      10      14      10      10      14      10
      10      14      10      10      14      10      10      14      10      10
      14      10      10      14      10      10      14      10      10      14
      10      10      14      10      10      14      10      10      14      10
      10      14      10      10      14      10      10      14      10      10
      14      10      10      14      10      10      14      10      10      14
      10      10      14      10      10      14      10      10      14      10
      10      14      10      10      14      10      10      14      10      10
      14      10      10      14      10      10      14      10      10      14
      10      10      14      10      10      14      10      10      14      10
      10      14      10      10      14      10      10      14      10      10
      14      10      10      14      10      10      14      10      10      14
      10      10      14      10      10      14      10      10      14      10
      10      14      10      10      14      10      10      14      10      10
      14      10      10      14      10      10      14      10      10      14
      10      10      14      10      10      14      10      10      14      10
      10      14      10      10      14      10      10      14      10      10
      14      10      10      14      10      10      14      10      10      14
      10      10      14      10      10      14      10      10      14      10
      10      14      10      10      14      10      10      14      10      10
      14      10      10      14      10      10      14      10      10      14
      10      10      14      10      10      14      10      10      14      10
      10      14      10      10      14      10      10      14      10      10
      14      10      10      14      10      10      14      10      10      14
      10      10      14      10      10      14      10      10      14      10
      10      14      10      10      14      10      10      14      10      10
      14      10      10      14      10      10      14      10      10      14
      10      10      14      10      10      14      10      10      14      10
      10      14      10      10      14      10      10      14      10      10
      14      10      10      14      10      10      14      10      10      14
      10      10      14      10      10      14      10      10      14      10
      10      14      10      10      14      10      10      14      10      10
      14      10      10      14      10      10      14      10      10      14
      10      10      14      10      10      14      10      10      14      10
      10      14      10      10      14      10      10      14      10      10
      14      10      10      14      10      10      14      10      10      14
      10      10      14      10      10      14      10      10      14      10
      10      14      10      10      14      10      10      14      10      10
      14      10      10      14      10      10      14      10      10      14
      10      10      14      10      10      14      10      10      14      10
      10      14      10      10      14      10      10      14      10      10
      14      10      10      14      10      10      14      10      10      14
      10      10      14      10      10      14      10      10      14      10
      10      14      10      10      14      10      10      14      10      10
      14      10      10      14      10      10      14      10      10      14
      10      10      14      10      10      14      10      10      14      10
      10      14      10      10      14      10      10      14      10      10
      14      10      10      14      10      10      14      10      10      14
      10      10      14      10      10      14      10      10      14      10
      10      14      10      10      14      10      10      14      10      10
      14      10      10      14      10      10      14      10      10      14
      10      10      14      10      10      14      10      10      14      10
      10      14      10      10      14      10      10      14      10      10
      14      10      10      14      10      10      14      10      10      14
      10      10      14      10      10      14      10      10      14      10
      10      14      10      10      14      10      10      14      10      10
      14      10      10      14      10      10      14      10      10      14
      10      10      14      10      10      14      10      10      14      10
      10      14      10      10      14      10      10      14      10      10
      14      10      10      14      10      10      14      10      10      14
      10      10      14      10      10      14      10      10      14      10
      10      14      10      10      14      10      10      14      10      10
      14      10      10      14      10      10      14      10      10      14
      10      10      14      10      10      14      10      10      14      10
      10      14      10      10      14      10      10      14      10      10
      14      10      10      14      10      10      14      10      10      14
      10      10      14      10      10      14      10      10      14      10
      10      14      10      10      14      10      10      14      10      10
      14      10      10      14      10      10      14      10      10      14
      10      10      14      10      10      14      10      10      14      10
      10      14      10      10      14      10      10      14      10      10
      14      10      10      14      10      10      14      10      10      14
      10      10      14      10      10      14      10      10      14      10
      10      14      10      10      14      10      10      14      10      10
      14      10      10      14      10      10      14      10      10      14
      10      10      14      10      10      14      10      10      14      10
      10      14      10      10      14      10      10      14      10      10
      14      10      10      14      10      10      14      10      10      14
      10      10      14      10      10      14      10      10      14      10
      10      14      10      10      14      10      10      14      10      10
      14      10      10      14      10      10      14      10      10      14
      10      10      14      10      10      14      10      10      14      10
      10      14      10      10      14      10      10      14      10      10
      14      10      10      14      10      10      14      10      10      14
      10      10      14      10      10      14      10      10      14      10
      10      14      10      10      14      10      10      14      10      10
      14      10      10      14      10      10      14      10      10      14
      10      10      14      10      10      14      10      10      14      10
      10      14      10      10      14      10      10      14      10      10
      14      10      10      14      10      10      14      10      10      14
      10      10      14      10      10      14      10      10      14      10
      10      14      10      10      14      10      10      14      10      10
      14      10      10      14      10      10      14      10      10      14
      10      10      14      10      10      14      10      10      14      10
      10      14      10      10      14      10      10      14      10      10
      14      10      10      14      10      10      14      10      10      14
      10      10      14      10      10      14      10      10      14      10
      10      14      10      10      14      10      10      14      10      10
      14      10      10      14      10      10      14      10      10      14
      10      10      14      10      10      14      10      10      14      10
      10      14      10      10      14      10      10      14      10      10
      14      10      10      14      10      10      14      10      10      14
      10      10      14      10      10      14      10      10      14      10
      10      14      10      10      14      10      10      14      10      10
      14      10      10      14      10      10      14      10      10      14
      10      10      14      10      10      14      10      10      14      10
      10      14      10      10      14      10      10      14      10      10
      14      10      10      14      10      10      14      10      10      14
      10      10      14      10      10      14      10      10      14      10
      10      14      10      10      14      10      10      14      10      10
      14      10      10      14      10      10      14      10      10      14
      10      10      14      10      10      14      10      10      14      10
      10      14      10      10      14      10      10      14      10      10
      14      10      10      14      10      10      14      10      10      14
      10      10      14      10      10      14      10      10      14      10
      10      14      10      10      14      10      10      14      10      10
      14      10      10      14      10      10      14      10      10      14
      10      10      14      10      10      14      10      10      14      10
      10      14      10      10      14      10      10      14      10      10
      14      10      10      14      10      10      14      10      10      14
      10      10      14      10      10      14      10      10      14      10
      10      14      10      10      14      10      10      14      10      10
      14      10      10      14      10      10      14      10      10      14
      10      10      14      10      10      14      10      10      14      10
      10      14      10      10      14      10      10      14      10      10
      14      10      10      14      10      10      14      10      10      14
      10      10      14      10      10      14      10      10      14      10
      10      14      10      10      14      10      10      14      10      10
      14      10      10      14      10      10      14      10      10      14
      10      10      14      10      10      14      10      10      14      10
      10      14      10      10      14      10      10      14      10      10
      14      10      10      14      10      10      14      10      10      14
      10      10      14      10      10      14      10      10      14      10
      10      14      10      10      14      10      10      14      10      10
      14      10      10      14      10      10      14      10      10      14
      10      10      14      10      10      14      10      10      14      10
      10      14      10      10      14      10      10      14      10      10
      14      10      10      14      10      10      14      10      10      14
      10      10      14      10      10      14      10      10      14      10
      10      14      10      10      14      10      10      14      10      10
      14      10      10      14      10      10      14      10      10      14
      10      10      14      10      10      14      10      10      14      10
      10      14      10      10      14      10      10      14      10      10
      14      10      10      14      10      10      14      10      10      14
      10      10      14      10      10      14      10      10      14      10
      10      14      10      10      14      10      10      14      10      10
      14      10      10      14      10      10      14      10      10      14
      10      10      14      10      10      14      10      10      14      10
      10      14      10      10      14      10      10      14      10      10
      14      10      10      14      10      10      14      10      10      14
      10      10      14      10      10      14      10      10      14      10
      10      14      10      10      14      10      10      14      10      10
      14      10      10      14      10      10      14      10      10      14
      10      10      14      10      10      14      10      10      14      10
      10      14      10      10      14      10      10      14      10      10
      14      10      10      14      10      10      14      10      10      14
      10      10      14      10      10      14      10      10      14      10
      10      14      10      10      14      10      10      14      10      10
      14      10      10      14      10      10      14      10      10      14
      10      10      14      10      10      14      10      10      14      10
      10      14      10      10      14      10      10      14      10      10
      14      10      10      14      10      10      14      10      10      14
      10      10      14      10      10      14      10      10      14      10
      10      14      10      10      14      10      10      14      10      10
      14      10      10      14      10      10      14      10      10      14
      10      10      14      10      10      14      10      10      14      10
      10      14      10      10      14      10      10      14      10      10
      14      10      10      14      10      10      14      10      10      14
      10      10      14      10      10      14      10      10      14      10
      10      14      10      10      14      10      10      14      10      10
      14      10      10      14      10      10      14      10      10      14
      10      10      14      10      10      14      10      10      14      10
      10      14      10      10      14      10      10      14      10      10
      14      10      10      14      10      10      14      10      10      14
      10      10      14      10      10      14      10      10      14      10
      10      14      10      10      14      10      10      14      10      10
      14      10      10      14      10      10      14      10      10      14
      10      10      14      10      10      14      10      10      14      10
      10      14      10      10      14      10      10      14      10      10
      14      10      10      14      10      10      14      10      10      14
      10      10      14      10      10      14      10      10      14      10
      10      14      10      10      14      10      10      14      10      10
      14      10      10      14      10      10      14      10      10      14
      10      10      14      10      10      14      10      10      14      10
      10      14      10      10      14      10      10      14      10      10
      14      10      10      14      10      10      14      10      10      14
      10      10      14      10      10      14      10      10      14      10
      10      14      10      10      14      10      10      14      10      10
      14      10      10      14      10      10      14      10      10      14
      10      10      14      10      10      14      10      10      14      10
      10      14      10      10      14      10      10      14      10      10
      14      10      10      14      10      10      14      10      10      14
      10      10      14      10      10      14      10      10      14      10
      10      14      10      10      14      10      10      14      10      10
      14      10      10      14      10      10      14      10      10      14
      10      10      14      10      10      14      10      10      14      10
      10      14      10      10      14      10      10      14      10      10
      14      10      10      14      10      10      14      10      10      14
      10      10      14      10      10      14      10      10      14      10
      10      14      10      10      14      10      10      14      10      10
      14      10      10      14      10      10      14      10      10      14
      10      10      14      10      10      14      10      10      14      10
      10      14      10      10      14      10      10      14      10      10
      14      10      10      14      10      10      14      10      10      14
      10      10      14      10      10      14      10      10      14      10
      10      14      10      10      14      10      10      14      10      10
      14      10      10      14      10      10      14      10      10      14
      10      10      14      10      10      14      10      10      14      10
      10      14      10      10      14      10      10      14      10      10
      14      10      10      14      10      10      14      10      10      14
      10      10      14      10      10      14      10      10      14      10
      10      14      10      10      14      10      10      14      10      10
      14      10      10      14      10      10      14      10      10      14
      10      10      14      10      10      14      10      10      14      10
      10      14      10      10      14      10      10      14      10      10
      14      10      10      14      10      10      14      10      10      14
      10      10      14      10      10      14      10      10      14      10
      10      14      10      10      14      10      10      14      10      10
      14      10      10      14      10      10      14      10      10      14
      10      10      14      10      10      14      10      10      14      10
      10      14      10      10      14      10      10      14      10      10
      14      10      10      14      10      10      14      10      10      14
      10      10      14      10      10      14      10      10      14      10
      10      14      10      10      14      10      10      14      10      10
      14      10      10      14      10      10      14      10      10      14
      10      10      14      10      10      14      10      10      14      10
      10      14      10      10      14      10      10      14      10      10
      14      10      10      14      10      10      14      10      10      14
      10      10      14      10      10      14      10      10      14      10
      10      14      10      10      14      10      10      14      10      10
      14      10      10      14      10      10      14      10      10      14
      10      10      14      10      10      14      10      10      14      10
      10      14      10      10      14      10      10      14      10      10
      14      10      10      14      10      10      14      10      10      14
      10      10      14      10      10      14      10      10      14      10
      10      14      10      10      14      10      10      14      10      10
      14      10      10      14      10      10      14      10      10      14
      10      10      14      10      10      14      10      10      14      10
      10      14      10      10      14      10      10      14      10      10
      14      10      10      14      10      10      14      10      10      14
      10      10      14      10      10      14      10      10      14      10
      10      14      10      10      14      10      10      14      10      10
      14      10      10      14      10      10      14      10      10      14
      10      10      14      10      10      14      10      10      14      10
      10      14      10      10      14      10      10      14      10      10
      14      10      10      14      10      10      14      10      10      14
      10      10      14      10      10      14      10      10      14      10
      10      14      10      10      14      10      10      14      10      10
      14      10      10      14      10      10      14      10      10      14
      10      10      14      10      10      14      10      10      14      10
      10      14      10      10      14      10      10      14      10      10
      14      10      10      14      10      10      14      10      10      14
      10      10      14      10      10      14      10      10      14      10
      10      14      10      10      14      10      10      14      10      10
      14      10      10      14      10      10      14      10      10      14
      10      10      14      10      10      14      10      10      14      10
      10      14      10      10      14      10      10      14      10      10
      14      10      10      14      10      10      14      10      10      14
      10      10      14      10      10      14      10      10      14      10
      10      14      10      10      14      10      10      14      10      10
      14      10      10      14      10      10      14      10      10      14
      10      10      14      10      10      14      10      10      14      10
      10      14      10      10      14      10      10      14      10      10
      14      10      10      14      10      10      14      10      10      14
      10      10      14      10      10      14      10      10      14      10
      10      14      10      10      14      10      10      14      10      10
      14      10      10      14      10      10      14      10      10      14
      10      10      14      10      10      14      10      10      14      10
      10      14      10      10      14      10      10      14      10      10
      14      10      10      14      10      10      14      10      10      14
      10      10      14      10      10      14      10      10      14      10
      10      14      10      10      14      10      10      14      10      10
      14      10      10      14      10      10      14      10      10      14
      10      10      14      10      10      14      10      10      14      10
      10      14      10      10      14      10      10      14      10      10
      14      10      10      14      10      10      14      10      10      14
      10      10      14      10      10      14      10      10      14      10
      10      14      10      10      14      10      10      14      10      10
      14      10      10      14      10      10      14      10      10      14
      10      10      14      10      10      14      10      10      14      10
      10      14      10      10      14      10      10      14      10      10
      14      10      10      14      10      10      14      10      10      14
      10      10      14      10      10      14      10      10      14      10
      10      14      10      10      14      10      10      14      10      10
      14      10      10      14      10      10      14      10      10      14
      10      10      14      10      10      14      10      10      14      10
      10      14      10      10      14      10      10      14      10      10
      14      10      10      14      10      10      14      10      10      14
      10      10      14      10      10      14      10      10      14      10
      10      14      10      10      14      10      10      14      10      10
      14      10      10      14      10      10      14      10      10      14
      10      10      14      10      10      14      10      10      14      10
      10      14      10      10      14      10      10      14      10      10
      14      10      10      14      10      10      14      10      10      14
      10      10      14      10      10      14      10      10      14      10
      10      14      10      10      14      10      10      14      10      10
      14      10      10      14      10      10      14      10      10      14
      10      10      14      10      10      14      10      10      14      10
      10      14      10      10      14      10      10      14      10      10
      14      10      10      14      10      10      14      10      10      14
      10      10      14      10      10      14      10      10      14      10
      10      14      10      10      14      10      10      14      10      10
      14      10      10      14      10      10      14      10      10      14
      10      10      14      10      10      14      10      10      14      10
      10      14      10      10      14      10      10      14      10      10
      14      10      10      14      10      10      14      10      10      14
      10      10      14      10      10      14      10      10      14      10
      10      14      10      10      14      10      10      14      10      10
      14      10      10      14      10      10      14      10      10      14
      10      10      14      10      10      14      10      10      14      10
      10      14      10      10      14      10      10      14      10      10
      14      10      10      14      10      10      14      10      10      14
      10      10      14      10      10      14      10      10      14      10
      10      14      10      10      14      10      10      14      10      10
      14      10      10      14      10      10      14      10      10      14
      10      10      14      10      10      14      10      10      14      10
      10      14      10      10      14      10      10      14      10      10
      14      10      10      14      10      10      14      10      10      14
      10      10      14      10      10      14      10      10      14      10
      10      14      10      10      14      10      10      14      10      10
      14      10      10      14      10      10      14      10      10      14
      10      10      14      10      10      14      10      10      14      10
      10      14      10      10      14      10      10      14      10      10
      14      10      10      14      10      10      14      10      10      14
      10      10      14      10      10      14      10      10      14      10
      10      14      10      10      14      10      10      14      10      10
      14      10      10      14      10      10      14      10      10      14
      10      10      14      10      10      14      10      10      14      10
      10      14      10      10      14      10      10      14      10      10
      14      10      10      14      10      10      14      10      10      14
      10      10      14      10      10      14      10      10      14      10
      10      14      10      10      14      10      10      14      10      10
      14      10      10      14      10      10      14      10      10      14
      10      10      14      10      10      14      10      10      14      10
      10      14      10      10      14      10      10      14      10      10
      14      10      10      14      10      10      14      10      10      14
      10      10      14      10      10      14      10      10      14      10
      10      14      10      10      14      10      10      14      10      10
      14      10      10      14      10      10      14      10      10      14
      10      10      14      10      10      14      10      10      14      10
      10      14      10      10      14      10      10      14      10      10
      14      10      10      14      10      10      14      10      10      14
      10      10      14      10      10      14      10      10      14      10
      10      14      10      10      14      10      10      14      10      10
      14      10      10      14      10      10      14      10      10      14
      10      10      14      10      10      14      10      10      14      10
      10      14      10      10      14      10      10      14      10      10
      14      10      10      14      10      10      14      10      10      14
      10      10      14      10      10      14      10      10      14      10
      10      14      10      10      14      10      10      14      10      10
      14      10      10      14      10      10      14      10      10      14
      10      10      14      10      10      14      10      10      14      10
      10      14      10      10      14      10      10      14      10      10
      14      10      10      14      10      10      14      10      10      14
      10      10      14      10      10      14      10      10      14      10
      10      14      10      10      14      10      10      14      10      10
      14      10      10      14      10      10      14      10      10      14
      10      10      14      10      10      14      10      10      14      10
      10      14      10      10      14      10      10      14      10      10
      14      10      10      14      10      10      14      10      10      14
      10      10      14      10      10      14      10      10      14      10
      10      14      10      10      14      10      10      14      10      10
      14      10      10      14      10      10      14      10      10      14
      10      10      14      10      10      14      10      10      14      10
      10      14      10      10      14      10      10      14      10      10
      14      10      10      14      10      10      14      10      10      14
      10      10      14      10      10      14      10      10      14      10
      10      14      10      10      14      10      10      14      10      10
      14      10      10      14      10      10      14      10      10      14
      10      10      14      10      10      14      10      10      14      10
      10      14      10      10      14      10      10      14      10      10
      14      10      10      14      10      10      14      10      10      14
      10      10      14      10      10      14      10      10      14      10
      10      14      10      10      14      10      10      14      10      10
      14      10      10      14      10      10      14      10      10      14
      10      10      14      10      10      14      10      10      14      10
      10      14      10      10      14      10      10      14      10      10
      14      10      10      14      10      10      14      10      10      14
      10      10      14      10      10      14      10      10      14      10
      10      14      10      10      14      10      10      14      10      10
      14      10      10      14      10      10      14      10      10      14
      10      10      14      10      10      14      10      10      14      10
      10      14      10      10      14      10      10      14      10      10
      14      10      10      14      10      10      14      10      10      14
      10      10      14      10      10      14      10      10      14      10
      10      14      10      10      14      10      10      14      10      10
      14      10      10      14      10      10      14      10      10      14
      10      10      14      10      10      14      10      10      14      10
      10      14      10      10      14      10      10      14      10      10
      14      10      10      14      10      10      14      10      10      14
      10      10      14      10      10      14      10      10      14      10
      10      14      10      10      14      10      10      14      10      10
      14      10      10      14      10      10      14      10      10      14
      10      10      14      10      10      14      10      10      14      10
      10      14      10      10      14      10      10      14      10      10
      14      10      10      14      10      10      14      10      10      14
      10      10      14      10      10      14      10      10      14      10
      10      14      10      10      14      10      10      14      10      10
      14      10      10      14      10      10      14      10      10      14
      10      10      14      10      10      14      10      10      14      10
      10      14      10      10      14      10      10      14      10      10
      14      10      10      14      10      10      14      10      10      14
      10      10      14      10      10      14      10      10      14      10
      10      14      10      10      14      10      10      14      10      10
      14      10      10      14      10      10      14      10      10      14
      10      10      14      10      10      14      10      10      14      10
      10      14      10      10      14      10      10      14      10      10
      14      10      10      14      10      10      14      10      10      14
      10      10      14      10      10      14      10      10      14      10
      10      14      10      10      14      10      10      14      10      10
      14      10      10      14      10      10      14      10      10      14
      10      10      14      10      10      14      10      10      14      10
      10      14      10      10      14      10      10      14      10      10
      14      10      10      14      10      10      14      10      10      14
      10      10      14      10      10      14      10      10      14      10
      10      14      10      10      14      10      10      14      10      10
      14      10      10      14      10      10      14      10      10      14
      10      10      14      10      10      14      10      10      14      10
      10      14      10      10      14      10      10      14      10      10
      14      10      10      14      10      10      14      10      10      14
      10      10      14      10      10      14      10      10      14      10
      10      14      10      10      14      10      10      14      10      10
      14      10      10      14      10      10      14      10      10      14
      10      10      14      10      10      14      10      10      14      10
      10      14      10      10      14      10      10      14      10      10
      14      10      10      14      10      10      14      10      10      14
      10      10      14      10      10      14      10      10      14      10
      10      14      10      10      14      10      10      14      10      10
      14      10      10      14      10      10      14      10      10      14
      10      10      14      10      10      14      10      10      14      10
      10      14      10      10      14      10      10      14      10      10
      14      10      10      14      10      10      14      10      10      14
      10      10      14      10      10      14      10      10      14      10
      10      14      10      10      14      10      10      14      10      10
      14      10      10      14      10      10      14      10      10      14
      10      10      14      10      10      14      10      10      14      10
      10      14      10      10      14      10      10      14      10      10
      14      10      10      14      10      10      14      10      10      14
      10      10      14      10      10      14      10      10      14      10
      10      14      10      10      14      10      10      14      10      10
      14      10      10      14      10      10      14      10      10      14
      10      10      14      10      10      14      10      10      14      10
      10      14      10      10      14      10      10      14      10      10
      14      10      10      14      10      10      14      10      10      14
      10      10      14      10      10      14      10      10      14      10
      10      14      10      10      14      10      10      14      10      10
      14      10      10      14      10      10      14      10      10      14
      10      10      14      10      10      14      10      10      14      10
      10      14      10      10      14      10      10      14      10      10
      14      10      10      14      10      10      14      10      10      14
      10      10      14      10      10      14      10      10      14      10
      10      14      10      10      14      10      10      14      10      10
      14      10      10      14      10      10      14      10      10      14
      10      10      14      10      10      14      10      10      14      10
      10      14      10      10      14      10      10      14      10      10
      14      10      10      14      10      10      14      10      10      14
      10      10      14      10      10      14      10      10      14      10
      10      14      10      10      14      10      10      14      10      10
      14      10      10      14      10      10      14      10      10      14
      10      10      14      10      10      14      10      10      14      10
      10      14      10      10      14      10      10      14      10      10
      14      10      10      14      10      10      14      10      10      14
      10      10      14      10      10      14      10      10      14      10
      10      14      10      10      14      10      10      14      10      10
      14      10      10      14      10      10      14      10      10      14
      10      10      14      10      10      14      10      10      14      10
      10      14      10      10      14      10      10      14      10      10
      14      10      10      14      10      10      14      10      10      14
      10      10      14      10      10      14      10      10      14      10
      10      14      10      10      14      10      10      14      10      10
      14      10      10      14      10      10      14      10      10      14
      10      10      14      10      10      14      10      10      14      10
      10      14      10      10      14      10      10      14      10      10
      14      10      10      14      10      10      14      10      10      14
      10      10      14      10      10      14      10      10      14      10
      10      14      10      10      14      10      10      14      10      10
      14      10      10      14      10      10      14      10      10      14
      10      10      14      10      10      14      10      10      14      10
      10      14      10      10      14      10      10      14      10      10
      14      10      10      14      10      10      14      10      10      14
      10      10      14      10      10      14      10      10      14      10
      10      14      10      10      14      10      10      14      10      10
      14      10      10      14      10      10      14      10      10      14
      10      10      14      10      10      14      10      10      14      10
      10      14      10      10      14      10      10      14      10      10
      14      10      10      14      10      10      14      10      10      14
      10      10      14      10      10      14      10      10      14      10
      10      14      10      10      14      10      10      14      10      10
      14      10      10      14      10      10      14      10      10      14
      10      10      14      10      10      14      10      10      14      10
      10      14      10      10      14      10      10      14      10      10
      14      10      10      14      10      10      14      10      10      14
      10      10      14      10      10      14      10      10      14      10
      10      14      10      10      14      10      10      14      10      10
      14      10      10      14      10      10      14      10      10      14
      10      10      14      10      10      14      10      10      14      10
      10      14      10      10      14      10      10      14      10      10
      14      10      10      14      10      10      14      10      10      14
      10      10      14      10      10      14      10      10      14      10
      10      14      10      10      14      10      10      14      10      10
      14      10      10      14      10      10      14      10      10      14
      10      10      14      10      10      14      10      10      14      10
      10      14      10      10      14      10      10      14      10      10
      14      10      10      14      10      10      14      10      10      14
      10      10      14      10      10      14      10      10      14      10
      10      14      10      10      14      10      10      14      10      10
      14      10      10      14      10      10      14      10      10      14
      10      10      14      10      10      14      10      10      14      10
      10      14      10      10      14      10      10      14      10      10
      14      10      10      14      10      10      14      10      10      14
      10      10      14      10      10      14      10      10      14      10
      10      14      10      10      14      10      10      14      10      10
      14      10      10      14      10      10      14      10      10      14
      10      10      14      10      10      14      10      10      14      10
      10      14      10      10      14      10      10      14      10      10
      14      10      10      14      10      10      14      10      10      14
      10      10      14      10      10      14      10      10      14      10
      10      14      10      10      14      10      10      14      10      10
      14      10      10      14      10      10      14      10      10      14
      10      10      14      10      10      14      10      10      14      10
      10      14      10      10      14      10      10      14      10      10
      14      10      10      14      10      10      14      10      10      14
      10      10      14      10      10      14      10      10      14      10
      10      14      10      10      14      10      10      14      10      10
      14      10      10      14      10      10      14      10      10      14
      10      10      14      10      10      14      10      10      14      10
      10      14      10      10      14      10      10      14      10      10
      14      10      10      14      10      10      14      10      10      14
      10      10      14      10      10      14      10      10      14      10
      10      14      10      10      14      10      10      14      10      10
      14      10      10      14      10      10      14      10      10      14
      10      10      14      10      10      14      10      10      14      10
      10      14      10      10      14      10      10      14      10      10
      14      10      10      14      10      10      14      10      10      14
      10      10      14      10      10      14      10      10      14      10
      10      14      10      10      14      10      10      14      10      10
      14      10      10      14      10      10      14      10      10      14
      10      10      14      10      10      14      10      10      14      10
      10      14      10      10      14      10      10      14      10      10
      14      10      10      14      10      10      14      10      10      14
      10      10      14      10      10      14      10      10      14      10
      10      14      10      10      14      10      10      14      10      10
      14      10      10      14      10      10      14      10      10      14
      10      10      14      10      10      14      10      10      14      10
      10      14      10      10      14      10      10      14      10      10
      14      10      10      14      10      10      14      10      10      14
      10      10      14      10      10      14      10      10      14      10
      10      14      10      10      14      10      10      14      10      10
      14      10      10      14      10      10      14      10      10      14
      10      10      14      10      10      14      10      10      14      10
      10      14      10      10      14      10      10      14      10      10
      14      10      10      14      10      10      14      10      10      14
      10      10      14      10      10      14      10      10      14      10
      10      14      10      10      14      10      10      14      10      10
      14      10      10      14      10      10      14      10      10      14
      10      10      14      10      10      14      10      10      14      10
      10      14      10      10      14      10      10      14      10      10
      14      10      10      14      10      10      14      10      10      14
      10      10      14      10      10      14      10      10      14      10
      10      14      10      10      14      10      10      14      10      10
      14      10      10      14      10      10      14      10      10      14
      10      10      14      10      10      14      10      10      14      10
      10      14      10      10      14      10      10      14      10      10
      14      10      10      14      10      10      14      10      10      14
      10      10      14      10      10      14      10      10      14      10
      10      14      10      10      14      10      10      14      10      10
      14      10      10      14      10      10      14      10      10      14
      10      10      14      10      10      14      10      10      14      10
      10      14      10      10      14      10      10      14      10      10
      14      10      10      14      10      10      14      10      10      14
      10      10      14      10      10      14      10      10      14      10
      10      14      10      10      14      10      10      14      10      10
      14      10      10      14      10      10      14      10      10      14
      10      10      14      10      10      14      10      10      14      10
      10      14      10      10      14      10      10      14      10      10
      14      10      10      14      10      10      14      10      10      14
      10      10      14      10      10      14      10      10      14      10
      10      14      10      10      14      10      10      14      10      10
      14      10      10      14      10      10      14      10      10      14
      10      10      14      10      10      14      10      10      14      10
      10      14      10      10      14      10      10      14      10      10
      14      10      10      14      10      10      14      10      10      14
      10      10      14      10      10      14      10      10      14      10
      10      14      10      10      14      10      10      14      10      10
      14      10      10      14      10      10      14      10      10      14
      10      10      14      10      10      14      10      10      14      10
      10      14      10      10      14      10      10      14      10      10
      14      10      10      14      10      10      14      10      10      14
      10      10      14      10      10      14      10      10      14      10
      10      14      10      10      14      10      10      14      10      10
      14      10      10      14      10      10      14      10      10      14
      10      10      14      10      10      14      10      10      14      10
      10      14      10      10      14      10      10      14      10      10
      14      10      10      14      10      10      14      10      10      14
      10      10      14      10      10      14      10      10      14      10
      10      14      10      10      14      10      10      14      10      10
      14      10      10      14      10      10      14      10      10      14
      10      10      14      10      10      14      10      10      14      10
      10      14      10      10      14      10      10      14      10      10
      14      10      10      14      10      10      14      10      10      14
      10      10      14      10      10      14      10      10      14      10
      10      14      10      10      14      10      10      14      10      10
      14      10      10      14      10      10      14      10      10      14
      10      10      14      10      10      14      10      10      14      10
      10      14      10      10      14      10      10      14      10      10
      14      10      10      14      10      10      14      10      10      14
      10      10      14      10      10      14      10      10      14      10
      10      14      10      10      14      10      10      14      10      10
      14      10      10      14      10      10      14      10      10      14
      10      10      14      10      10      14      10      10      14      10
      10      14      10      10      14      10      10      14      10      10
      14      10      10      14      10      10      14      10      10      14
      10      10      14      10      10      14      10      10      14      10
      10      14      10      10      14      10      10      14      10      10
      14      10      10      14      10      10      14      10      10      14
      10      10      14      10      10      14      10      10      14      10
      10      14      10      10      14      10      10      14      10      10
      14      10      10      14      10      10      14      10      10      14
      10      10      14      10      10      14      10      10      14      10
      10      14      10      10      14      10      10      14      10      10
      14      10      10      14      10      10      14      10      10      14
      10      10      14      10      10      14      10      10      14      10
      10      14      10      10      14      10      10      14      10      10
      14      10      10      14      10      10      14      10      10      14
      10      10      14      10      10      14      10      10      14      10
      10      14      10      10      14      10      10      14      10      10
      14      10      10      14      10      10      14      10      10      14
      10      10      14      10      10      14      10      10      14      10
      10      14      10      10      14      10      10      14      10      10
      14      10      10      14      10      10      14      10      10      14
      10      10      14      10      10      14      10      10      14      10
      10      14      10      10      14      10      10      14      10      10
      14      10      10      14      10      10      14      10      10      14
      10      10      14      10      10      14      10      10      14      10
      10      14      10      10      14      10      10      14      10      10
      14      10      10      14      10      10      14      10      10      14
      10      10      14      10      10      14      10      10      14      10
      10      14      10      10      14      10      10      14      10      10
      14      10      10      14      10      10      14      10      10      14
      10      10      14      10      10      14      10      10      14      10
      10      14      10      10      14      10      10      14      10      10
      14      10      10      14      10      10      14      10      10      14
      10      10      14      10      10      14      10      10      14      10
      10      14      10      10      14      10      10      14      10      10
      14      10      10      14      10      10      14      10      10      14
      10      10      14      10      10      14      10      10      14      10
      10      14      10      10      14      10      10      14      10      10
      14      10      10      14      10      10      14      10      10      14
      10      10      14      10      10      14      10      10      14      10
      10      14      10      10      14      10      10      14      10      10
      14      10      10      14      10      10      14      10      10      14
      10      10      14      10      10      14      10      10      14      10
      10      14      10      10      14      10      10      14      10      10
      14      10      10      14      10      10      14      10      10      14
      10      10      14      10      10      14      10      10      14      10
      10      14      10      10      14      10      10      14      10      10
      14      10      10      14      10      10      14      10      10      14
      10      10      14      10      10      14      10      10      14      10
      10      14      10      10      14      10      10      14      10      10
      14      10      10      14      10      10      14      10      10      14
      10      10      14      10      10      14      10      10      14      10
      10      14      10      10      14      10      10      14      10      10
      14      10      10      14      10      10      14      10      10      14
      10      10      14      10      10      14      10      10      14      10
      10      14      10      10      14      10      10      14      10      10
      14      10      10      14      10      10      14      10      10      14
      10      10      14      10      10      14      10      10      14      10
      10      14      10      10      14      10      10      14      10      10
      14      10      10      14      10      10      14      10      10      14
      10      10      14      10      10      14      10      10      14      10
      10      14      10      10      14      10      10      14      10      10
      14      10      10      14      10      10      14      10      10      14
      10      10      14      10      10      14      10      10      14      10
      10      14      10      10      14      10      10      14      10      10
      14      10      10      14      10      10      14      10      10      14
      10      10      14      10      10      14      10      10      14      10
      10      14      10      10      14      10      10      14      10      10
      14      10      10      14      10      10      14      10      10      14
      10      10      14      10      10      14      10      10      14      10
      10      14      10      10      14      10      10      14      10      10
      14      10      10      14      10      10      14      10      10      14
      10      10      14      10      10      14      10      10      14      10
      10      14      10      10      14      10      10      14      10      10
      14      10      10      14      10      10      14      10      10      14
      10      10      14      10      10      14      10      10      14      10
      10      14      10      10      14      10      10      14      10      10
      14      10      10      14      10      10      14      10      10      14
      10      10      14      10      10      14      10      10      14      10
      10      14      10      10      14      10      10      14      10      10
      14      10      10      14      10      10      14      10      10      14
      10      10      14      10      10      14      10      10      14      10
      10      14      10      10      14      10      10      14      10      10
      14      10      10      14      10      10      14      10      10      14
      10      10      14      10      10      14      10      10      14      10
      10      14      10      10      14      10      10      14      10      10
      14      10      10      14      10      10      14      10      10      14
      10      10      14      10      10      14      10      10      14      10
      10      14      10      10      14      10      10      14      10      10
      14      10      10      14      10      10      14      10      10      14
      10      10      14      10      10      14      10      10      14      10
      10      14      10      10      14      10      10      14      10      10
      14      10      10      14      10      10      14      10      10      14
      10      10      14      10      10      14      10      10      14      10
      10      14      10      10      14      10      10      14      10      10
      14      10      10      14      10      10      14      10      10      14
      10      10      14      10      10      14      10      10      14      10
      10      14      10      10      14      10      10      14      10      10
      14      10      10      14      10      10      14      10      10      14
      10      10      14      10      10      14      10      10      14      10
      10      14      10      10      14      10      10      14      10      10
      14      10      10      14      10      10      14      10      10      14
      10      10      14      10      10      14      10      10      14      10
      10      14      10      10      14      10      10      14      10      10
      14      10      10      14      10      10      14      10      10      14
      10      10      14      10      10      14      10      10      14      10
      10      14      10      10      14      10      10      14      10      10
      14      10      10      14      10      10      14      10      10      14
      10      10      14      10      10      14      10      10      14      10
      10      14      10      10      14      10      10      14      10      10
      14      10      10      14      10      10      14      10      10      14
      10      10      14      10      10      14      10      10      14      10
      10      14      10      10      14      10      10      14      10      10
      14      10      10      14      10      10      14      10      10      14
      10      10      14      10      10      14      10      10      14      10
      10      14      10      10      14      10      10      14      10      10
      14      10      10      14      10      10      14      10      10      14
      10      10      14      10      10      14      10      10      14      10
      10      14      10      10      14      10      10      14      10      10
      14      10      10      14      10      10      14      10      10      14
      10      10      14      10      10      14      10      10      14      10
      10      14      10      10      14      10      10      14      10      10
      14      10      10      14      10      10      14      10      10      14
      10      10      14      10      10      14      10      10      14      10
      10      14      10      10      14      10      10      14      10      10
      14      10      10      14      10      10      14      10      10      14
      10      10      14      10      10      14      10      10      14      10
      10      14      10      10      14      10      10      14      10      10
      14      10      10      14      10      10      14      10      10      14
      10      10      14      10      10      14      10      10      14      10
      10      14      10      10      14      10      10      14      10      10
      14      10      10      14      10      10      14      10      10      14
      10      10      14      10      10      14      10      10      14      10
      10      14      10      10      14      10      10      14      10      10
      14      10      10      14      10      10      14      10      10      14
      10      10      14      10      10      14      10      10      14      10
      10      14      10      10      14      10      10      14      10      10
      14      10      10      14      10      10      14      10      10      14
      10      10      14      10      10      14      10      10      14      10
      10      14      10      10      14      10      10      14      10      10
      14      10      10      14      10      10      14      10      10      14
      10      10      14      10      10      14      10      10      14      10
      10      14      10      10      14      10      10      14      10      10
      14      10      10      14      10      10      14      10      10      14
      10      10      14      10      10      14      10      10      14      10
      10      14      10      10      14      10      10      14      10      10
      14      10      10      14      10      10      14      10      10      14
      10      10      14      10      10      14      10      10      14      10
      10      14      10      10      14      10      10      14      10      10
      14      10      10      14      10      10      14      10      10      14
      10      10      14      10      10      14      10      10      14      10
      10      14      10      10      14      10      10      14      10      10
      14      10      10      14      10      10      14      10      10      14
      10      10      14      10      10      14      10      10      14      10
      10      14      10      10      14      10      10      14      10      10
      14      10      10      14      10      10      14      10      10      14
      10      10      14      10      10      14      10      10      14      10
      10      14      10      10      14      10      10      14      10      10
      14      10      10      14      10      10      14      10      10      14
      10      10      14      10      10      14      10      10      14      10
      10      14      10      10      14      10      10      14      10      10
      14      10      10      14      10      10      14      10      10      14
      10      10      14      10      10      14      10      10      14      10
      10      14      10      10      14      10      10      14      10      10
      14      10      10      14      10      10      14      10      10      14
      10      10      14      10      10      14      10      10      14      10
      10      14      10      10      14      10      10      14      10      10
      14      10      10      14      10      10      14      10      10      14
      10      10      14      10      10      14      10      10      14      10
      10      14      10      10      14      10      10      14      10      10
      14      10      10      14      10      10      14      10      10      14
      10      10      14      10      10      14      10      10      14      10
      10      14      10      10      14      10      10      14      10      10
      14      10      10      14      10      10      14      10      10      14
      10      10      14      10      10      14      10      10      14      10
      10      14      10      10      14      10      10      14      10      10
      14      10      10      14      10      10      14      10      10      14
      10      10      14      10      10      14      10      10      14      10
      10      14      10      10      14      10      10      14      10      10
      14      10      10      14      10      10      14      10      10      14
      10      10      14      10      10      14      10      10      14      10
      10      14      10      10      14      10      10      14      10      10
      14      10      10      14      10      10      14      10      10      14
      10      10      14      10      10      14      10      10      14      10
      10      14      10      10      14      10      10      14      10      10
      14      10      10      14      10      10      14      10      10      14
      10      10      14      10      10      14      10      10      14      10
      10      14      10      10      14      10      10      14      10      10
      14      10      10      14      10      10      14      10      10      14
      10      10      14      10      10      14      10      10      14      10
      10      14      10      10      14      10      10      14      10      10
      14      10      10      14      10      10      14      10      10      14
      10      10      14      10      10      14      10      10      14      10
      10      14      10      10      14      10      10      14      10      10
      14      10      10      14      10      10      14      10      10      14
      10      10      14      10      10      14      10      10      14      10
      10      14      10      10      14      10      10      14      10      10
      14      10      10      14      10      10      14      10      10      14
      10      10      14      10      10      14      10      10      14      10
      10      14      10      10      14      10      10      14      10      10
      14      10      10      14      10      10      14      10      10      14
      10      10      14      10      10      14      10      10      14      10
      10      14      10      10      14      10      10      14      10      10
      14      10      10      14      10      10      14      10      10      14
      10      10      14      10      10      14      10      10      14      10
      10      14      10      10      14      10      10      14      10      10
      14      10      10      14      10      10      14      10      10      14
      10      10      14      10      10      14      10      10      14      10
      10      14      10      10      14      10      10      14      10      10
      14      10      10      14      10      10      14      10      10      14
      10      10      14      10      10      14      10      10      14      10
      10      14      10      10      14      10      10      14      10      10
      14      10      10      14      10      10      14      10      10      14
      10      10      14      10      10      14      10      10      14      10
      10      14      10      10      14      10      10      14      10      10
      14      10      10      14      10      10      14      10      10      14
      10      10      14      10      10      14      10      10      14      10
      10      14      10      10      14      10      10      14      10      10
      14      10      10      14      10      10      14      10      10      14
      10      10      14      10      10      14      10      10      14      10
      10      14      10      10      14      10      10      14      10      10
      14      10      10      14      10      10      14      10      10      14
      10      10      14      10      10      14      10      10      14      10
      10      14      10      10      14      10      10      14      10      10
      14      10      10      14      10      10      14      10      10      14
      10      10      14      10      10      14      10      10      14      10
      10      14      10      10      14      10      10      14      10      10
      14      10      10      14      10      10      14      10      10      14
      10      10      14      10      10      14      10      10      14      10
      10      14      10      10      14      10      10      14      10      10
      14      10      10      14      10      10      14      10      10      14
      10      10      14      10      10      14      10      10      14      10
      10      14      10      10      14      10      10      14      10      10
      14      10      10      14      10      10      14      10      10      14
      10      10      14      10      10      14      10      10      14      10
      10      14      10      10      14      10      10      14      10      10
      14      10      10      14      10      10      14      10      10      14
      10      10      14      10      10      14      10      10      14      10
      10      14      10      10      14      10      10      14      10      10
      14      10      10      14      10      10      14      10      10      14
      10      10      14      10      10      14      10      10      14      10
      10      14      10      10      14      10      10      14      10      10
      14      10      10      14      10      10      14      10      10      14
      10      10      14      10      10      14      10      10      14      10
      10      14      10      10      14      10      10      14      10      10
      14      10      10      14      10      10      14      10      10      14
      10      10      14      10      10      14      10      10      14      10
      10      14      10      10      14      10      10      14      10      10
      14      10      10      14      10      10      14      10      10      14
      10      10      14      10      10      14      10      10      14      10
      10      14      10      10      14      10      10      14      10      10
      14      10      10      14      10      10      14      10      10      14
      10      10      14      10      10      14      10      10      14      10
      10      14      10      10      14      10      10      14      10      10
      14      10      10      14      10      10      14      10      10      14
      10      10      14      10      10      14      10      10      14      10
      10      14      10      10      14      10      10      14      10      10
      14      10      10      14      10      10      14      10      10      14
      10      10      14      10      10      14      10      10      14      10
      10      14      10      10      14      10      10      14      10      10
      14      10      10      14      10      10      14      10      10      14
      10      10      14      10      10      14      10      10      14      10
      10      14      10      10      14      10      10      14      10      10
      14      10      10      14      10      10      14      10      10      14
      10      10      14      10      10      14      10      10      14      10
      10      14      10      10      14      10      10      14      10      10
      14      10      10      14      10      10      14      10      10      14
      10      10      14      10      10      14      10      10      14      10
      10      14      10      10      14      10      10      14      10      10
      14      10      10      14      10      10      14      10      10      14
      10      10      14      10      10      14      10      10      14      10
      10      14      10      10      14      10      10      14      10      10
      14      10      10      14      10      10      14      10      10      14
      10      10      14      10      10      14      10      10      14      10
      10      14      10      10      14      10      10      14      10      10
      14      10      10      14      10      10      14      10      10      14
      10      10      14      10      10      14      10      10      14      10
      10      14      10      10      14      10      10      14      10      10
      14      10      10      14      10      10      14      10      10      14
      10      10      14      10      10      14      10      10      14      10
      10      14      10      10      14      10      10      14      10      10
      14      10      10      14      10      10      14      10      10      14
      10      10      14      10      10      14      10      10      14      10
      10      14      10      10      14      10      10      14      10      10
      14      10      10      14      10      10      14      10      10      14
      10      10      14      10      10      14      10      10      14      10
      10      14      10      10      14      10      10      14      10      10
      14      10      10      14      10      10      14      10      10      14
      10      10      14      10      10      14      10      10      14      10
      10      14      10      10      14      10      10      14      10      10
      14      10      10      14      10      10      14      10      10      14
      10      10      14      10      10      14      10      10      14      10
      10      14      10      10      14      10      10      14      10      10
      14      10      10      14      10      10      14      10      10      14
      10      10      14      10      10      14      10      10      14      10
      10      14      10      10      14      10      10      14      10      10
      14      10      10      14      10      10      14      10      10      14
      10      10      14      10      10      14      10      10      14      10
      10      14      10      10      14      10      10      14      10      10
      14      10      10      14      10      10      14      10      10      14
      10      10      14      10      10      14      10      10      14      10
      10      14      10      10      14      10      10      14      10      10
      14      10      10      14      10      10      14      10      10      14
      10      10      14      10      10      14      10      10      14      10
      10      14      10      10      14      10      10      14      10      10
      14      10      10      14      10      10      14      10      10      14
      10      10      14      10      10      14      10      10      14      10
      10      14      10      10      14      10      10      14      10      10
      14      10      10      14      10      10      14      10      10      14
      10      10      14      10      10      14      10      10      14      10
      10      14      10      10      14      10      10      14      10      10
      14      10      10      14      10      10      14      10      10      14
      10      10      14      10      10      14      10      10      14      10
      10      14      10      10      14      10      10      14      10      10
      14      10      10      14      10      10      14      10      10      14
      10      10      14      10      10      14      10      10      14      10
      10      14      10      10      14      10      10      14      10      10
      14      10      10      14      10      10      14      10      10      14
      10      10      14      10      10      14      10      10      14      10
      10      14      10      10      14      10      10      14      10      10
      14      10      10      14      10      10      14      10      10      14
      10      10      14      10      10      14      10      10      14      10
      10      14      10      10      14      10      10      14      10      10
      14      10      10      14      10      10      14      10      10      14
      10      10      14      10      10      14      10      10      14      10
      10      14      10      10      14      10      10      14      10      10
      14      10      10      14      10      10      14      10      10      14
      10      10      14      10      10      14      10      10      14      10
      10      14      10      10      14      10      10      14      10      10
      14      10      10      14      10      10      14      10      10      14
      10      10      14      10      10      14      10      10      14      10
      10      14      10      10      14      10      10      14      10      10
      14      10      10      14      10      10      14      10      10      14
      10      10      14      10      10      14      10      10      14      10
      10      14      10      10      14      10      10      14      10      10
      14      10      10      14      10      10      14      10      10      14
      10      10      14      10      10      14      10      10      14      10
      10      14      10      10      14      10      10      14      10      10
      14      10      10      14      10      10      14      10      10      14
      10      10      14      10      10      14      10      10      14      10
      10      14      10      10      14      10      10      14      10      10
      14      10      10      14      10      10      14      10      10      14
      10      10      14      10      10      14      10      10      14      10
      10      14      10      10      14      10      10      14      10      10
      14      10      10      14      10      10      14      10      10      14
      10      10      14      10      10      14      10      10      14      10
      10      14      10      10      14      10      10      14      10      10
      14      10      10      14      10      10      14      10      10      14
      10      10      14      10      10      14      10      10      14      10
      10      14      10      10      14      10      10      14      10      10
      14      10      10      14      10      10      14      10      10      14
      10      10      14      10      10      14      10      10      14      10
      10      14      10      10      14      10      10      14      10      10
      14      10      10      14      10      10      14      10      10      14
      10      10      14      10      10      14      10      10      14      10
      10      14      10      10      14      10      10      14      10      10
      14      10      10      14      10      10      14      10      10      14
      10      10      14      10      10      14      10      10      14      10
      10      14      10      10      14      10      10      14      10      10
      14      10      10      14      10      10      14      10      10      14
      10      10      14      10      10      14      10      10      14      10
      10      14      10      10      14      10      10      14      10      10
      14      10      10      14      10      10      14      10      10      14
      10      10      14      10      10      14      10      10      14      10
      10      14      10      10      14      10      10      14      10      10
      14      10      10      14      10      10      14      10      10      14
      10      10      14      10      10      14      10      10      14      10
      10      14      10      10      14      10      10      14      10      10
      14      10      10      14      10      10      14      10      10      14
      10      10      14      10      10      14      10      10      14      10
      10      14      10      10      14      10      10      14      10      10
      14      10      10      14      10      10      14      10      10      14
      10      10      14      10      10      14      10      10      14      10
      10      14      10      10      14      10      10      14      10      10
      14      10      10      14      10      10      14      10      10      14
      10      10      14      10      10      14      10      10      14      10
      10      14      10      10      14      10      10      14      10      10
      14      10      10      14      10      10      14      10      10      14
      10      10      14      10      10      14      10      10      14      10
      10      14      10      10      14      10      10      14      10      10
      14      10      10      14      10      10      14      10      10      14
      10      10      14      10      10      14      10      10      14      10
      10      14      10      10      14      10      10      14      10      10
      14      10      10      14      10      10      14      10      10      14
      10      10      14      10      10      14      10      10      14      10
      10      14      10      10      14      10      10      14      10      10
      14      10      10      14      10      10      14      10      10      14
      10      10      14      10      10      14      10      10      14      10
      10      14      10      10      14      10      10      14      10      10
      14      10      10      14      10      10      14      10      10      14
      10      10      14      10      10      14      10      10      14      10
      10      14      10      10      14      10      10      14      10      10
      14      10      10      14      10      10      14      10      10      14
      10      10      14      10      10      14      10      10      14      10
      10      14      10      10      14      10      10      14      10      10
      14      10      10      14      10      10      14      10      10      14
      10      10      14      10      10      14      10      10      14      10
      10      14      10      10      14      10      10      14      10      10
      14      10      10      14      10      10      14      10      10      14
      10      10      14      10      10      14      10      10      14      10
      10      14      10      10      14      10      10      14      10      10
      14      10      10      14      10      10      14      10      10      14
      10      10      14      10      10      14      10      10      14      10
      10      14      10      10      14      10      10      14      10      10
      14      10      10      14      10      10      14      10      10      14
      10      10      14      10      10      14      10      10      14      10
      10      14      10      10      14      10      10      14      10      10
      14      10      10      14      10      10      14      10      10      14
      10      10      14      10      10      14      10      10      14      10
      10      14      10      10      14      10      10      14      10      10
      14      10      10      14      10      10      14      10      10      14
      10      10      14      10      10      14      10      10      14      10
      10      14      10      10      14      10      10      14      10      10
      14      10      10      14      10      10      14      10      10      14
      10      10      14      10      10      14      10      10      14      10
      10      14      10      10      14      10      10      14      10      10
      14      10      10      14      10      10      14      10      10      14
      10      10      14      10      10      14      10      10      14      10
      10      14      10      10      14      10      10      14      10      10
      14      10      10      14      10      10      14      10      10      14
      10      10      14      10      10      14      10      10      14      10
      10      14      10      10      14      10      10      14      10      10
      14      10      10      14      10      10      14      10      10      14
      10      10      14      10      10      14      10      10      14      10
      10      14      10      10      14      10      10      14      10      10
      14      10      10      14      10      10      14      10      10      14
      10      10      14      10      10      14      10      10      14      10
      10      14      10      10      14      10      10      14      10      10
      14      10      10      14      10      10      14      10      10      14
      10      10      14      10      10      14      10      10      14      10
      10      14      10      10      14      10      10      14      10      10
      14      10      10      14      10      10      14      10      10      14
      10      10      14      10      10      14      10      10      14      10
      10      14      10      10      14      10      10      14      10      10
      14      10      10      14      10      10      14      10      10      14
      10      10      14      10      10      14      10      10      14      10
      10      14      10      10      14      10      10      14      10      10
      14      10      10      14      10      10      14      10      10      14
      10      10      14      10      10      14      10      10      14      10
      10      14      10      10      14      10      10      14      10      10
      14      10      10      14      10      10      14      10      10      14
      10      10      14      10      10      14      10      10      14      10
      10      14      10      10      14      10      10      14      10      10
      14      10      10      14      10      10      14      10      10      14
      10      10      14      10      10      14      10      10      14      10
      10      14      10      10      14      10      10      14      10      10
      14      10      10      14      10      10      14      10      10      14
      10      10      14      10      10      14      10      10      14      10
      10      14      10      10      14      10      10      14      10      10
      14      10      10      14      10      10      14      10      10      14
      10      10      14      10      10      14      10      10      14      10
      10      14      10      10      14      10      10      14      10      10
      14      10      10      14      10      10      14      10      10      14
      10      10      14      10      10      14      10      10      14      10
      10      14      10      10      14      10      10      14      10      10
      14      10      10      14      10      10      14      10      10      14
      10      10      14      10      10      14      10      10      14      10
      10      14      10      10      14      10      10      14      10      10
      14      10      10      14      10      10      14      10      10      14
      10      10      14      10      10      14      10      10      14      10
      10      14      10      10      14      10      10      14      10      10
      14      10      10      14      10      10      14      10      10      14
      10      10      14      10      10      14      10      10      14      10
      10      14      10      10      14      10      10      14      10      10
      14      10      10      14      10      10      14      10      10      14
      10      10      14      10      10      14      10      10      14      10
      10      14      10      10      14      10      10      14      10      10
      14      10      10      14      10      10      14      10      10      14
      10      10      14      10      10      14      10      10      14      10
      10      14      10      10      14      10      10      14      10      10
      14      10      10      14      10      10      14      10      10      14
      10      10      14      10      10      14      10      10      14      10
      10      14      10      10      14      10      10      14      10      10
      14      10      10      14      10      10      14      10      10      14
      10      10      14      10      10      14      10      10      14      10
      10      14      10      10      14      10      10      14      10      10
      14      10      10      14      10      10      14      10      10      14
      10      10      14      10      10      14      10      10      14      10
      10      14      10      10      14      10      10      14      10      10
      14      10      10      14      10      10      14      10      10      14
      10      10      14      10      10      14      10      10      14      10
      10      14      10      10      14      10      10      14      10      10
      14      10      10      14      10      10      14      10      10      14
      10      10      14      10      10      14      10      10      14      10
      10      14      10      10      14      10      10      14      10      10
      14      10      10      14      10      10      14      10      10      14
      10      10      14      10      10      14      10      10      14      10
      10      14      10      10      14      10      10      14      10      10
      14      10      10      14      10      10      14      10      10      14
      10      10      14      10      10      14      10      10      14      10
      10      14      10      10      14      10      10      14      10      10
      14      10      10      14      10      10      14      10      10      14
      10      10      14      10      10      14      10      10      14      10
      10      14      10      10      14      10      10      14      10      10
      14      10      10      14      10      10      14      10      10      14
      10      10      14      10      10      14      10      10      14      10
      10      14      10      10      14      10      10      14      10      10
      14      10      10      14      10      10      14      10      10      14
      10      10      14      10      10      14      10      10      14      10
      10      14      10      10      14      10      10      14      10      10
      14      10      10      14      10      10      14      10      10      14
      10      10      14      10      10      14      10      10      14      10
      10      14      10      10      14      10      10      14      10      10
      14      10      10      14      10      10      14      10      10      14
      10      10      14      10      10      14      10      10      14      10
      10      14      10      10      14      10      10      14      10      10
      14      10      10      14      10      10      14      10      10      14
      10      10      14      10      10      14      10      10      14      10
      10      14      10      10      14      10      10      14      10      10
      14      10      10      14      10      10      14      10      10      14
      10      10      14      10      10      14      10      10      14      10
      10      14      10      10      14      10      10      14      10      10
      14      10      10      14      10      10      14      10      10      14
      10      10      14      10      10      14      10      10      14      10
      10      14      10      10      14      10      10      14      10      10
      14      10      10      14      10      10      14      10      10      14
      10      10      14      10      10      14      10      10      14      10
      10      14      10      10      14      10      10      14      10      10
      14      10      10      14      10      10      14      10      10      14
      10      10      14      10      10      14      10      10      14      10
      10      14      10      10      14      10      10      14      10      10
      14      10      10      14      10      10      14      10      10      14
      10      10      14      10      10      14      10      10      14      10
      10      14      10      10      14      10      10      14      10      10
      14      10      10      14      10      10      14      10      10      14
      10      10      14      10      10      14      10      10      14      10
      10      14      10      10      14      10      10      14      10      10
      14      10      10      14      10      10      14      10      10      14
      10      10      14      10      10      14      10      10      14      10
      10      14      10      10      14      10      10      14      10      10
      14      10      10      14      10      10      14      10      10      14
      10      10      14      10      10      14      10      10      14      10
      10      14      10      10      14      10      10      14      10      10
      14      10      10      14      10      10      14      10      10      14
      10      10      14      10      10      14      10      10      14      10
      10      14      10      10      14      10      10      14      10      10
      14      10      10      14      10      10      14      10      10      14
      10      10      14      10      10      14      10      10      14      10
      10      14      10      10      14      10      10      14      10      10
      14      10      10      14      10      10      14      10      10      14
      10      10      14      10      10      14      10      10      14      10
      10      14      10      10      14      10      10      14      10      10
      14      10      10      14      10      10      14      10      10      14
      10      10      14      10      10      14      10      10      14      10
      10      14      10      10      14      10      10      14      10      10
      14      10      10      14      10      10      14      10      10      14
      10      10      14      10      10      14      10      10      14      10
      10      14      10      10      14      10      10      14      10      10
      14      10      10      14      10      10      14      10      10      14
      10      10      14      10      10      14      10      10      14      10
      10      14      10      10      14      10      10      14      10      10
      14      10      10      14      10      10      14      10      10      14
      10      10      14      10      10      14      10      10      14      10
      10      14      10      10      14      10      10      14      10      10
      14      10      10      14      10      10      14      10      10      14
      10      10      14      10      10      14      10      10      14      10
      10      14      10      10      14      10      10      14      10      10
      14      10      10      14      10      10      14      10      10      14
      10      10      14      10      10      14      10      10      14      10
      10      14      10      10      14      10      10      14      10      10
      14      10      10      14      10      10      14      10      10      14
      10      10      14      10      10      14      10      10      14      10
      10      14      10      10      14      10      10      14      10      10
      14      10      10      14      10      10      14      10      10      14
      10      10      14      10      10      14      10      10      14      10
      10      14      10      10      14      10      10      14      10      10
      14      10      10      14      10      10      14      10      10      14
      10      10      14      10      10      14      10      10      14      10
      10      14      10      10      14      10      10      14      10      10
      14      10      10      14      10      10      14      10      10      14
      10      10      14      10      10      14      10      10      14      10
      10      14      10      10      14      10      10      14      10      10
      14      10      10      14      10      10      14      10      10      14
      10      10      14      10      10      14      10      10      14      10
      10      14      10      10      14      10      10      14      10      10
      14      10      10      14      10      10      14      10      10      14
      10      10      14      10      10      14      10      10      14      10
      10      14      10      10      14      10      10      14      10      10
      14      10      10      14      10      10      14      10      10      14
      10      10      14      10      10      14      10      10      14      10
      10      14      10      10      14      10      10      14      10      10
      14      10      10      14      10      10      14      10      10      14
      10      10      14      10      10      14      10      10      14      10
      10      14      10      10      14      10      10      14      10      10
      14      10      10      14      10      10      14      10      10      14
      10      10      14      10      10      14      10      10      14      10
      10      14      10      10      14      10      10      14      10      10
      14      10      10      14      10      10      14      10      10      14
      10      10      14      10      10      14      10      10      14      10
      10      14      10      10      14      10      10      14      10      10
      14      10      10      14      10      10      14      10      10      14
      10      10      14      10      10      14      10      10      14      10
      10      14      10      10      14      10      10      14      10      10
      14      10      10      14      10      10      14      10      10      14
      10      10      14      10      10      14      10      10      14      10
      10      14      10      10      14      10      10      14      10      10
      14      10      10      14      10      10      14      10      10      14
      10      10      14      10      10      14      10      10      14      10
      10      14      10      10      14      10      10      14      10      10
      14      10      10      14      10      10      14      10      10      14
      10      10      14      10      10      14      10      10      14      10
      10      14      10      10      14      10      10      14      10      10
      14      10      10      14      10      10      14      10      10      14
      10      10      14      10      10      14      10      10      14      10
      10      14      10      10      14      10      10      14      10      10
      14      10      10      14      10      10      14      10      10      14
      10      10      14      10      10      14      10      10      14      10
      10      14      10      10      14      10      10      14      10      10
      14      10      10      14      10      10      14      10      10      14
      10      10      14      10      10      14      10      10      14      10
      10      14      10      10      14      10      10      14      10      10
      14      10      10      14      10      10      14      10      10      14
      10      10      14      10      10      14      10      10      14      10
      10      14      10      10      14      10      10      14      10      10
      14      10      10      14      10      10      14      10      10      14
      10      10      14      10      10      14      10      10      14      10
      10      14      10      10      14      10      10      14      10      10
      14      10      10      14      10      10      14      10      10      14
      10      10      14      10      10      14      10      10      14      10
      10      14      10      10      14      10      10      14      10      10
      14      10      10      14      10      10      14      10      10      14
      10      10      14      10      10      14      10      10      14      10
      10      14      10      10      14      10      10      14      10      10
      14      10      10      14      10      10      14      10      10      14
      10      10      14      10      10      14      10      10      14      10
      10      14      10      10      14      10      10      14      10      10
      14      10      10      14      10      10      14      10      10      14
      10      10      14      10      10      14      10      10      14      10
      10      14      10      10      14      10      10      14      10      10
      14      10      10      14      10      10      14      10      10      14
      10      10      14      10      10      14      10      10      14      10
      10      14      10      10      14      10      10      14      10      10
      14      10      10      14      10      10      14      10      10      14
      10      10      14      10      10      14      10      10      14      10
      10      14      10      10      14      10      10      14      10      10
      14      10      10      14      10      10      14      10      10      14
      10      10      14      10      10      14      10      10      14      10
      10      14      10      10      14      10      10      14      10      10
      14      10      10      14      10      10
%FLAG NUMBER_EXCLUDED_ATOMS                                                     
%FORMAT(10I8)                                                                   
       6       7       4       3       7       3      10       4      13       7
      11       6       5       8       4       3       4       3       2       1
       1       7       3      10       4      11       7       8       4       3
       6       7       3      10       4      11       7       8       4       3
       6       7       3      10       4      14       7      10       7       6
       3       2       1       2       1       7       3      10       4      11
       7       7       4       3       2       1       7       3      10       4
      16       7      15       9       8       3       2       1       7       5
       4       3       2       1       1       7       3      10       4      10
       7       6       3       2       1       7       3      10       4      11
       7       7       4       3       2       1       7       3      10       4
      13       7      15       6       5      10       8       7       3       2
       1       3       2       1       1       7       3      10       4      12
       7      12       5       4      10       8       4       7       3       6
       4       1       3       2       1       1       7       3      10       4
      13       7      11       6       5       8       4       3       4       3
       2       1       1       7       3      10       4      13       7      15
       6       5      10       8       7       3       2       1       3       2
       1       1       7       3      10       4      13       7      11       6
       5      10       4       3       6       5       4       1       7       3
       1       1       1      10       4      12       7      10       5       4
       5       3       2       1       1       7       3      10       4      12
       7      12       5       4      10       8       4       7       3       6
       4       1       3       2       1       1       7       3      10       4
      11       7       8       4       3       6       7       3       5       4
       3       2       1       1       6       7       4       3       7       3
      10       4      12       7      12       5       4       9       7       4
       5       3       3       2       1       1       7       3      10       4
      13       7      15       6       5      10       8       7       3       2
       1       3       2       1       1       7       3      10       4      10
       7       6       3       2       1       7       3       7       4       7
       4       3       7       3      10       4      11       7       7       4
       3       2       1       7       3      10       4      12       7      12
       5       4       9       7       4       5       3       3       2       1
       1       7       3      10       4      13       7      15       6       5
      10       8       7       3       2       1       3       2       1       1
       7       3      10       4      16       7      12       9       8       3
       2       1       4       2       1       1       7       3      10       4
      13       7      11       6       5      10       4       3       6       5
       4       1       7       3       1       1       1      10       4      10
       7       6       3       2       1       7       3      10       4      13
       7      15       6       5      10       8       7       3       2       1
       3       2       1       1       7       3      10       4      12       7
      12       5       4      10       8       4       7       3       6       4
       1       3       2       1       1       7       3      10       4      13
       7      15       6       5      10       8       7       3       2       1
       3       2       1       1       7       3      10       4      16       7
      12       9       8       3       2       1       4       2       1       1
       7       3      10       4      10       7       6       3       2       1
       7       3       7       4       7       4       3       7       3      10
       4      13       7      11       6       5      10       4       3       6
       5       4       1       7       3       1       1       1      10       4
      13       7      12       6       5       9       5       4       7       4
       3       8       3       6       5       2       1       2       1       1
       7       3       7       4       7       4       3       7       3      10
       4      12       7      12       5       4      10       8       4       6
       3       5       3       3       2       1       1       7       3      10
       4      12       7      12       5       4      10       8       4       6
       3       5       3       3       2       1       1       7       3      10
       4      12       7      12       5       4      10       8       4       7
       3       6       4       1       3       2       1       1       7       3
      10       4      14       7      10       7       6       3       2       1
       2       1       7       3       5       4       3       2       1       1
       6       7       4       3       7       3      10       4      13       7
      11       6       5       8       4       3       4       3       2       1
       1       7       3      10       4      11       7       8       4       3
       6       7       3      10       4      11       7       8       4       3
       6       7       3      10       4      14       7      10       7       6
       3       2       1       2       1       7       3      10       4      11
       7       7       4       3       2       1       7       3      10       4
      16       7      15       9       8       3       2       1       7       5
       4       3       2       1       1       7       3      10       4      10
       7       6       3       2       1       7       3      10       4      11
       7       7       4       3       2       1       7       3      10       4
      13       7      15       6       5      10       8       7       3       2
       1       3       2       1       1       7       3      10       4      12
       7      12       5       4      10       8       4       7       3       6
       4       1       3       2       1       1       7       3      10       4
      13       7      11       6       5       8       4       3       4       3
       2       1       1       7       3      10       4      13       7      15
       6       5      10       8       7       3       2       1       3       2
       1       1       7       3      10       4      13       7      11       6
       5      10       4       3       6       5       4       1       7       3
       1       1       1      10       4      12       7      10       5       4
       5       3       2       1       1       7       3      10       4      12
       7      12       5       4      10       8       4       7       3       6
       4       1       3       2       1       1       7       3      10       4
      11       7       8       4       3       6       7       3       5       4
       3       2       1       1       6       7       4       3       7       3
      10       4      12       7      12       5       4       9       7       4
       5       3       3       2       1       1       7       3      10       4
      13       7      15       6       5      10       8       7       3       2
       1       3       2       1       1       7       3      10       4      10
       7       6       3       2       1       7       3       7       4       7
       4       3       7       3      10       4      11       7       7       4
       3       2       1       7       3      10       4      12       7      12
       5       4       9       7       4       5       3       3       2       1
       1       7       3      10       4      13       7      15       6       5
      10       8       7       3       2       1       3       2       1       1
       7       3      10       4      16       7      12       9       8       3
       2       1       4       2       1       1       7       3      10       4
      13       7      11       6       5      10       4       3       6       5
       4       1       7       3       1       1       1      10       4      10
       7       6       3       2       1       7       3      10       4      13
       7      15       6       5      10       8       7       3       2       1
       3       2       1       1       7       3      10       4      12       7
      12       5       4      10       8       4       7       3       6       4
       1       3       2       1       1       7       3      10       4      13
       7      15       6       5      10       8       7       3       2       1
       3       2       1       1       7       3      10       4      16       7
      12       9       8       3       2       1       4       2       1       1
       7       3      10       4      10       7       6       3       2       1
       7       3       7       4       7       4       3       7       3      10
       4      13       7      11       6       5      10       4       3       6
       5       4       1       7       3       1       1       1      10       4
      13       7      12       6       5       9       5       4       7       4
       3       8       3       6       5       2       1       2       1       1
       7       3       7       4       7       4       3       7       3      10
       4      12       7      12       5       4      10       8       4       6
       3       5       3       3       2       1       1       7       3      10
       4      12       7      12       5       4      10       8       4       6
       3       5       3       3       2       1       1       7       3      10
       4      12       7      12       5       4      10       8       4       7
       3       6       4       1       3       2       1       1       7       3
      10       4      14       7      10       7       6       3       2       1
       2       1       7       3       5       4       3       2       1       1
       6       7       4       3       7       3      10       4      13       7
      11       6       5       8       4       3       4       3       2       1
       1       7       3      10       4      11       7       8       4       3
       6       7       3      10       4      11       7       8       4       3
       6       7       3      10       4      14       7      10       7       6
       3       2       1       2       1       7       3      10       4      11
       7       7       4       3       2       1       7       3      10       4
      16       7      15       9       8       3       2       1       7       5
       4       3       2       1       1       7       3      10       4      10
       7       6       3       2       1       7       3      10       4      11
       7       7       4       3       2       1       7       3      10       4
      13       7      15       6       5      10       8       7       3       2
       1       3       2       1       1       7       3      10       4      12
       7      12       5       4      10       8       4       7       3       6
       4       1       3       2       1       1       7       3      10       4
      13       7      11       6       5       8       4       3       4       3
       2       1       1       7       3      10       4      13       7      15
       6       5      10       8       7       3       2       1       3       2
       1       1       7       3      10       4      13       7      11       6
       5      10       4       3       6       5       4       1       7       3
       1       1       1      10       4      12       7      10       5       4
       5       3       2       1       1       7       3      10       4      12
       7      12       5       4      10       8       4       7       3       6
       4       1       3       2       1       1       7       3      10       4
      11       7       8       4       3       6       7       3       5       4
       3       2       1       1       6       7       4       3       7       3
      10       4      12       7      12       5       4       9       7       4
       5       3       3       2       1       1       7       3      10       4
      13       7      15       6       5      10       8       7       3       2
       1       3       2       1       1       7       3      10       4      10
       7       6       3       2       1       7       3       7       4       7
       4       3       7       3      10       4      11       7       7       4
       3       2       1       7       3      10       4      12       7      12
       5       4       9       7       4       5       3       3       2       1
       1       7       3      10       4      13       7      15       6       5
      10       8       7       3       2       1       3       2       1       1
       7       3      10       4      16       7      12       9       8       3
       2       1       4       2       1       1       7       3      10       4
      13       7      11       6       5      10       4       3       6       5
       4       1       7       3       1       1       1      10       4      10
       7       6       3       2       1       7       3      10       4      13
       7      15       6       5      10       8       7       3       2       1
       3       2       1       1       7       3      10       4      12       7
      12       5       4      10       8       4       7       3       6       4
       1       3       2       1       1       7       3      10       4      13
       7      15       6       5      10       8       7       3       2       1
       3       2       1       1       7       3      10       4      16       7
      12       9       8       3       2       1       4       2       1       1
       7       3      10       4      10       7       6       3       2       1
       7       3       7       4       7       4       3       7       3      10
       4      13       7      11       6       5      10       4       3       6
       5       4       1       7       3       1       1       1      10       4
      13       7      12       6       5       9       5       4       7       4
       3       8       3       6       5       2       1       2       1       1
       7       3       7       4       7       4       3       7       3      10
       4      12       7      12       5       4      10       8       4       6
       3       5       3       3       2       1       1       7       3      10
       4      12       7      12       5       4      10       8       4       6
       3       5       3       3       2       1       1       7       3      10
       4      12       7      12       5       4      10       8       4       7
       3       6       4       1       3       2       1       1       7       3
      10       4      14       7      10       7       6       3       2       1
       2       1       7       3       5       4       3       2       1       1
       6       7       4       3       7       3      10       4      13       7
      11       6       5       8       4       3       4       3       2       1
       1       7       3      10       4      11       7       8       4       3
       6       7       3      10       4      11       7       8       4       3
       6       7       3      10       4      14       7      10       7       6
       3       2       1       2       1       7       3      10       4      11
       7       7       4       3       2       1       7       3      10       4
      16       7      15       9       8       3       2       1       7       5
       4       3       2       1       1       7       3      10       4      10
       7       6       3       2       1       7       3      10       4      11
       7       7       4       3       2       1       7       3      10       4
      13       7      15       6       5      10       8       7       3       2
       1       3       2       1       1       7       3      10       4      12
       7      12       5       4      10       8       4       7       3       6
       4       1       3       2       1       1       7       3      10       4
      13       7      11       6       5       8       4       3       4       3
       2       1       1       7       3      10       4      13       7      15
       6       5      10       8       7       3       2       1       3       2
       1       1       7       3      10       4      13       7      11       6
       5      10       4       3       6       5       4       1       7       3
       1       1       1      10       4      12       7      10       5       4
       5       3       2       1       1       7       3      10       4      12
       7      12       5       4      10       8       4       7       3       6
       4       1       3       2       1       1       7       3      10       4
      11       7       8       4       3       6       7       3       5       4
       3       2       1       1       6       7       4       3       7       3
      10       4      12       7      12       5       4       9       7       4
       5       3       3       2       1       1       7       3      10       4
      13       7      15       6       5      10       8       7       3       2
       1       3       2       1       1       7       3      10       4      10
       7       6       3       2       1       7       3       7       4       7
       4       3       7       3      10       4      11       7       7       4
       3       2       1       7       3      10       4      12       7      12
       5       4       9       7       4       5       3       3       2       1
       1       7       3      10       4      13       7      15       6       5
      10       8       7       3       2       1       3       2       1       1
       7       3      10       4      16       7      12       9       8       3
       2       1       4       2       1       1       7       3      10       4
      13       7      11       6       5      10       4       3       6       5
       4       1       7       3       1       1       1      10       4      10
       7       6       3       2       1       7       3      10       4      13
       7      15       6       5      10       8       7       3       2       1
       3       2       1       1       7       3      10       4      12       7
      12       5       4      10       8       4       7       3       6       4
       1       3       2       1       1       7       3      10       4      13
       7      15       6       5      10       8       7       3       2       1
       3       2       1       1       7       3      10       4      16       7
      12       9       8       3       2       1       4       2       1       1
       7       3      10       4      10       7       6       3       2       1
       7       3       7       4       7       4       3       7       3      10
       4      13       7      11       6       5      10       4       3       6
       5       4       1       7       3       1       1       1      10       4
      13       7      12       6       5       9       5       4       7       4
       3       8       3       6       5       2       1       2       1       1
       7       3       7       4       7       4       3       7       3      10
       4      12       7      12       5       4      10       8       4       6
       3       5       3       3       2       1       1       7       3      10
       4      12       7      12       5       4      10       8       4       6
       3       5       3       3       2       1       1       7       3      10
       4      12       7      12       5       4      10       8       4       7
       3       6       4       1       3       2       1       1       7       3
      10       4      14       7      10       7       6       3       2       1
       2       1       7       3       5       4       3       2       1       1
       2       1       1       2       1       1       2       1       1       2
       1       1       2       1       1       2       1       1       2       1
       1       2       1       1       2       1       1       2       1       1
       2       1       1       2       1       1       2       1       1       2
       1       1       2       1       1       2       1       1       2       1
       1       2       1       1       2       1       1       2       1       1
       2       1       1       2       1       1       2       1       1       2
       1       1       2       1       1       2       1       1       2       1
       1       2       1       1       2       1       1       2       1       1
       2       1       1       2       1       1       2       1       1       2
       1       1       2       1       1       2       1       1       2       1
       1       2       1       1       2       1       1       2       1       1
       2       1       1       2       1       1       2       1       1       2
       1       1       2       1       1       2       1       1       2       1
       1       2       1       1       2       1       1       2       1       1
       2       1       1       2       1       1       2       1       1       2
       1       1       2       1       1       2       1       1       2       1
       1       2       1       1       2       1       1       2       1       1
       2       1       1       2       1       1       2       1       1       2
       1       1       2       1       1       2       1       1       2       1
       1       2       1       1       2       1       1       2       1       1
       2       1       1       2       1       1       2       1       1       2
       1       1       2       1       1       2       1       1       2       1
       1       2       1       1       2       1       1       2       1       1
       2       1       1       2       1       1       2       1       1       2
       1       1       2       1       1       2       1       1       2       1
       1       2       1       1       2       1       1       2       1       1
       2       1       1       2       1       1       2       1       1       2
       1       1       2       1       1       2       1       1       2       1
       1       2       1       1       2       1       1       2       1       1
       2       1       1       2       1       1       2       1       1       2
       1       1       2       1       1       2       1       1       2       1
       1       2       1       1       2       1       1       2       1       1
       2       1       1       2       1       1       2       1       1       2
       1       1       2       1       1       2       1       1       2       1
       1       2       1       1       2       1       1       2       1       1
       2       1       1       2       1       1       2       1       1       2
       1       1       2       1       1       2       1       1       2       1
       1       2       1       1       2       1       1       2       1       1
       2       1       1       2       1       1       2       1       1       2
       1       1       2       1       1       2       1       1       2       1
       1       2       1       1       2       1       1       2       1       1
       2       1       1       2       1       1       2       1       1       2
       1       1       2       1       1       2       1       1       2       1
       1       2       1       1       2       1       1       2       1       1
       2       1       1       2       1       1       2       1       1       2
       1       1       2       1       1       2       1       1       2       1
       1       2       1       1       2       1       1       2       1       1
       2       1       1       2       1       1       2       1       1       2
       1       1       2       1       1       2       1       1       2       1
       1       2       1       1       2       1       1       2       1       1
       2       1       1       2       1       1       2       1       1       2
       1       1       2       1       1       2       1       1       2       1
       1       2       1       1       2       1       1       2       1       1
       2       1       1       2       1       1       2       1       1       2
       1       1       2       1       1       2       1       1       2       1
       1       2       1       1       2       1       1       2       1       1
       2       1       1       2       1       1       2       1       1       2
       1       1       2       1       1       2       1       1       2       1
       1       2       1       1       2       1       1       2       1       1
       2       1       1       2       1       1       2       1       1       2
       1       1       2       1       1       2       1       1       2       1
       1       2       1       1       2       1       1       2       1       1
       2       1       1       2       1       1       2       1       1       2
       1       1       2       1       1       2       1       1       2       1
       1       2       1       1       2       1       1       2       1       1
       2       1       1       2       1       1       2       1       1       2
       1       1       2       1       1       2       1       1       2       1
       1       2       1       1       2       1       1       2       1       1
       2       1       1       2       1       1       2       1       1       2
       1       1       2       1       1       2       1       1       2       1
       1       2       1       1       2       1       1       2       1       1
       2       1       1       2       1       1       2       1       1       2
       1       1       2       1       1       2       1       1       2       1
       1       2       1       1       2       1       1       2       1       1
       2       1       1       2       1       1       2       1       1       2
       1       1       2       1       1       2       1       1       2       1
       1       2       1       1       2       1       1       2       1       1
       2       1       1       2       1       1       2       1       1       2
       1       1       2       1       1       2       1       1       2       1
       1       2       1       1       2       1       1       2       1       1
       2       1       1       2       1       1       2       1       1       2
       1       1       2       1       1       2       1       1       2       1
       1       2       1       1       2       1       1       2       1       1
       2       1       1       2       1       1       2       1       1       2
       1       1       2       1       1       2       1       1       2       1
       1       2       1       1       2       1       1       2       1       1
       2       1       1       2       1       1       2       1       1       2
       1       1       2       1       1       2       1       1       2       1
       1       2       1       1       2       1       1       2       1       1
       2       1       1       2       1       1       2       1       1       2
       1       1       2       1       1       2       1       1       2       1
       1       2       1       1       2       1       1       2       1       1
       2       1       1       2       1       1       2       1       1       2
       1       1       2       1       1       2       1       1       2       1
       1       2       1       1       2       1       1       2       1       1
       2       1       1       2       1       1       2       1       1       2
       1       1       2       1       1       2       1       1       2       1
       1       2       1       1       2       1       1       2       1       1
       2       1       1       2       1       1       2       1       1       2
       1       1       2       1       1       2       1       1       2       1
       1       2       1       1       2       1       1       2       1       1
       2       1       1       2       1       1       2       1       1       2
       1       1       2       1       1       2       1       1       2       1
       1       2       1       1       2       1       1       2       1       1
       2       1       1       2       1       1       2       1       1       2
       1       1       2       1       1       2       1       1       2       1
       1       2       1       1       2       1       1       2       1       1
       2       1       1       2       1       1       2       1       1       2
       1       1       2       1       1       2       1       1       2       1
       1       2       1       1       2       1       1       2       1       1
       2       1       1       2       1       1       2       1       1       2
       1       1       2       1       1       2       1       1       2       1
       1       2       1       1       2       1       1       2       1       1
       2       1       1       2       1       1       2       1       1       2
       1       1       2       1       1       2       1       1       2       1
       1       2       1       1       2       1       1       2       1       1
       2       1       1       2       1       1       2       1       1       2
       1       1       2       1       1       2       1       1       2       1
       1       2       1       1       2       1       1       2       1       1
       2       1       1       2       1       1       2       1       1       2
       1       1       2       1       1       2       1       1       2       1
       1       2       1       1       2       1       1       2       1       1
       2       1       1       2       1       1       2       1       1       2
       1       1       2       1       1       2       1       1       2       1
       1       2       1       1       2       1       1       2       1       1
       2       1       1       2       1       1       2       1       1       2
       1       1       2       1       1       2       1       1       2       1
       1       2       1       1       2       1       1       2       1       1
       2       1       1       2       1       1       2       1       1       2
       1       1       2       1       1       2       1       1       2       1
       1       2       1       1       2       1       1       2       1       1
       2       1       1       2       1       1       2       1       1       2
       1       1       2       1       1       2       1       1       2       1
       1       2       1       1       2       1       1       2       1       1
       2       1       1       2       1       1       2       1       1       2
       1       1       2       1       1       2       1       1       2       1
       1       2       1       1       2       1       1       2       1       1
       2       1       1       2       1       1       2       1       1       2
       1       1       2       1       1       2       1       1       2       1
       1       2       1       1       2       1       1       2       1       1
       2       1       1       2       1       1       2       1       1       2
       1       1       2       1       1       2       1       1       2       1
       1       2       1       1       2       1       1       2       1       1
       2       1       1       2       1       1       2       1       1       2
       1       1       2       1       1       2       1       1       2       1
       1       2       1       1       2       1       1       2       1       1
       2       1       1       2       1       1       2       1       1       2
       1       1       2       1       1       2       1       1       2       1
       1       2       1       1       2       1       1       2       1       1
       2       1       1       2       1       1       2       1       1       2
       1       1       2       1       1       2       1       1       2       1
       1       2       1       1       2       1       1       2       1       1
       2       1       1       2       1       1       2       1       1       2
       1       1       2       1       1       2       1       1       2       1
       1       2       1       1       2       1       1       2       1       1
       2       1       1       2       1       1       2       1       1       2
       1       1       2       1       1       2       1       1       2       1
       1       2       1       1       2       1       1       2       1       1
       2       1       1       2       1       1       2       1       1       2
       1       1       2       1       1       2       1       1       2       1
       1       2       1       1       2       1       1       2       1       1
       2       1       1       2       1       1       2       1       1       2
       1       1       2       1       1       2       1       1       2       1
       1       2       1       1       2       1       1       2       1       1
       2       1       1       2       1       1       2       1       1       2
       1       1       2       1       1       2       1       1       2       1
       1       2       1       1       2       1       1       2       1       1
       2       1       1       2       1       1       2       1       1       2
       1       1       2       1       1       2       1       1       2       1
       1       2       1       1       2       1       1       2       1       1
       2       1       1       2       1       1       2       1       1       2
       1       1       2       1       1       2       1       1       2       1
       1       2       1       1       2       1       1       2       1       1
       2       1       1       2       1       1       2       1       1       2
       1       1       2       1       1       2       1       1       2       1
       1       2       1       1       2       1       1       2       1       1
       2       1       1       2       1       1       2       1       1       2
       1       1       2       1       1       2       1       1       2       1
       1       2       1       1       2       1       1       2       1       1
       2       1       1       2       1       1       2       1       1       2
       1       1       2       1       1       2       1       1       2       1
       1       2       1       1       2       1       1       2       1       1
       2       1       1       2       1       1       2       1       1       2
       1       1       2       1       1       2       1       1       2       1
       1       2       1       1       2       1       1       2       1       1
       2       1       1       2       1       1       2       1       1       2
       1       1       2       1       1       2       1       1       2       1
       1       2       1       1       2       1       1       2       1       1
       2       1       1       2       1       1       2       1       1       2
       1       1       2       1       1       2       1       1       2       1
       1       2       1       1       2       1       1       2       1       1
       2       1       1       2       1       1       2       1       1       2
       1       1       2       1       1       2       1       1       2       1
       1       2       1       1       2       1       1       2       1       1
       2       1       1       2       1       1       2       1       1       2
       1       1       2       1       1       2       1       1       2       1
       1       2       1       1       2       1       1       2       1       1
       2       1       1       2       1       1       2       1       1       2
       1       1       2       1       1       2       1       1       2       1
       1       2       1       1       2       1       1       2       1       1
       2       1       1       2       1       1       2       1       1       2
       1       1       2       1       1       2       1       1       2       1
       1       2       1       1       2       1       1       2       1       1
       2       1       1       2       1       1       2       1       1       2
       1       1       2       1       1       2       1       1       2       1
       1       2       1       1       2       1       1       2       1       1
       2       1       1       2       1       1       2       1       1       2
       1       1       2       1       1       2       1       1       2       1
       1       2       1       1       2       1       1       2       1       1
       2       1       1       2       1       1       2       1       1       2
       1       1       2       1       1       2       1       1       2       1
       1       2       1       1       2       1       1       2       1       1
       2       1       1       2       1       1       2       1       1       2
       1       1       2       1       1       2       1       1       2       1
       1       2       1       1       2       1       1       2       1       1
       2       1       1       2       1       1       2       1       1       2
       1       1       2       1       1       2       1       1       2       1
       1       2       1       1       2       1       1       2       1       1
       2       1       1       2       1       1       2       1       1       2
       1       1       2       1       1       2       1       1       2       1
       1       2       1       1       2       1       1       2       1       1
       2       1       1       2       1       1       2       1       1       2
       1       1       2       1       1       2       1       1       2       1
       1       2       1       1       2       1       1       2       1       1
       2       1       1       2       1       1       2       1       1       2
       1       1       2       1       1       2       1       1       2       1
       1       2       1       1       2       1       1       2       1       1
       2       1       1       2       1       1       2       1       1       2
       1       1       2       1       1       2       1       1       2       1
       1       2       1       1       2       1       1       2       1       1
       2       1       1       2       1       1       2       1       1       2
       1       1       2       1       1       2       1       1       2       1
       1       2       1       1       2       1       1       2       1       1
       2       1       1       2       1       1       2       1       1       2
       1       1       2       1       1       2       1       1       2       1
       1       2       1       1       2       1       1       2       1       1
       2       1       1       2       1       1       2       1       1       2
       1       1       2       1       1       2       1       1       2       1
       1       2       1       1       2       1       1       2       1       1
       2       1       1       2       1       1       2       1       1       2
       1       1       2       1       1       2       1       1       2       1
       1       2       1       1       2       1       1       2       1       1
       2       1       1       2       1       1       2       1       1       2
       1       1       2       1       1       2       1       1       2       1
       1       2       1       1       2       1       1       2       1       1
       2       1       1       2       1       1       2       1       1       2
       1       1       2       1       1       2       1       1       2       1
       1       2       1       1       2       1       1       2       1       1
       2       1       1       2       1       1       2       1       1       2
       1       1       2       1       1       2       1       1       2       1
       1       2       1       1       2       1       1       2       1       1
       2       1       1       2       1       1       2       1       1       2
       1       1       2       1       1       2       1       1       2       1
       1       2       1       1       2       1       1       2       1       1
       2       1       1       2       1       1       2       1       1       2
       1       1       2       1       1       2       1       1       2       1
       1       2       1       1       2       1       1       2       1       1
       2       1       1       2       1       1       2       1       1       2
       1       1       2       1       1       2       1       1       2       1
       1       2       1       1       2       1       1       2       1       1
       2       1       1       2       1       1       2       1       1       2
       1       1       2       1       1       2       1       1       2       1
       1       2       1       1       2       1       1       2       1       1
       2       1       1       2       1       1       2       1       1       2
       1       1       2       1       1       2       1       1       2       1
       1       2       1       1       2       1       1       2       1       1
       2       1       1       2       1       1       2       1       1       2
       1       1       2       1       1       2       1       1       2       1
       1       2       1       1       2       1       1       2       1       1
       2       1       1       2       1       1       2       1       1       2
       1       1       2       1       1       2       1       1       2       1
       1       2       1       1       2       1       1       2       1       1
       2       1       1       2       1       1       2       1       1       2
       1       1       2       1       1       2       1       1       2       1
       1       2       1       1       2       1       1       2       1       1
       2       1       1       2       1       1       2       1       1       2
       1       1       2       1       1       2       1       1       2       1
       1       2       1       1       2       1       1       2       1       1
       2       1       1       2       1       1       2       1       1       2
       1       1       2       1       1       2       1       1       2       1
       1       2       1       1       2       1       1       2       1       1
       2       1       1       2       1       1       2       1       1       2
       1       1       2       1       1       2       1       1       2       1
       1       2       1       1       2       1       1       2       1       1
       2       1       1       2       1       1       2       1       1       2
       1       1       2       1       1       2       1       1       2       1
       1       2       1       1       2       1       1       2       1       1
       2       1       1       2       1       1       2       1       1       2
       1       1       2       1       1       2       1       1       2       1
       1       2       1       1       2       1       1       2       1       1
       2       1       1       2       1       1       2       1       1       2
       1       1       2       1       1       2       1       1       2       1
       1       2       1       1       2       1       1       2       1       1
       2       1       1       2       1       1       2       1       1       2
       1       1       2       1       1       2       1       1       2       1
       1       2       1       1       2       1       1       2       1       1
       2       1       1       2       1       1       2       1       1       2
       1       1       2       1       1       2       1       1       2       1
       1       2       1       1       2       1       1       2       1       1
       2       1       1       2       1       1       2       1       1       2
       1       1       2       1       1       2       1       1       2       1
       1       2       1       1       2       1       1       2       1       1
       2       1       1       2       1       1       2       1       1       2
       1       1       2       1       1       2       1       1       2       1
       1       2       1       1       2       1       1       2       1       1
       2       1       1       2       1       1       2       1       1       2
       1       1       2       1       1       2       1       1       2       1
       1       2       1       1       2       1       1       2       1       1
       2       1       1       2       1       1       2       1       1       2
       1       1       2       1       1       2       1       1       2       1
       1       2       1       1       2       1       1       2       1       1
       2       1       1       2       1       1       2       1       1       2
       1       1       2       1       1       2       1       1       2       1
       1       2       1       1       2       1       1       2       1       1
       2       1       1       2       1       1       2       1       1       2
       1       1       2       1       1       2       1       1       2       1
       1       2       1       1       2       1       1       2       1       1
       2       1       1       2       1       1       2       1       1       2
       1       1       2       1       1       2       1       1       2       1
       1       2       1       1       2       1       1       2       1       1
       2       1       1       2       1       1       2       1       1       2
       1       1       2       1       1       2       1       1       2       1
       1       2       1       1       2       1       1       2       1       1
       2       1       1       2       1       1       2       1       1       2
       1       1       2       1       1       2       1       1       2       1
       1       2       1       1       2       1       1       2       1       1
       2       1       1       2       1       1       2       1       1       2
       1       1       2       1       1       2       1       1       2       1
       1       2       1       1       2       1       1       2       1       1
       2       1       1       2       1       1       2       1       1       2
       1       1       2       1       1       2       1       1       2       1
       1       2       1       1       2       1       1       2       1       1
       2       1       1       2       1       1       2       1       1       2
       1       1       2       1       1       2       1       1       2       1
       1       2       1       1       2       1       1       2       1       1
       2       1       1       2       1       1       2       1       1       2
       1       1       2       1       1       2       1       1       2       1
       1       2       1       1       2       1       1       2       1       1
       2       1       1       2       1       1       2       1       1       2
       1       1       2       1       1       2       1       1       2       1
       1       2       1       1       2       1       1       2       1       1
       2       1       1       2       1       1       2       1       1       2
       1       1       2       1       1       2       1       1       2       1
       1       2       1       1       2       1       1       2       1       1
       2       1       1       2       1       1       2       1       1       2
       1       1       2       1       1       2       1       1       2       1
       1       2       1       1       2       1       1       2       1       1
       2       1       1       2       1       1       2       1       1       2
       1       1       2       1       1       2       1       1       2       1
       1       2       1       1       2       1       1       2       1       1
       2       1       1       2       1       1       2       1       1       2
       1       1       2       1       1       2       1       1       2       1
       1       2       1       1       2       1       1       2       1       1
       2       1       1       2       1       1       2       1       1       2
       1       1       2       1       1       2       1       1       2       1
       1       2       1       1       2       1       1       2       1       1
       2       1       1       2       1       1       2       1       1       2
       1       1       2       1       1       2       1       1       2       1
       1       2       1       1       2       1       1       2       1       1
       2       1       1       2       1       1       2       1       1       2
       1       1       2       1       1       2       1       1       2       1
       1       2       1       1       2       1       1       2       1       1
       2       1       1       2       1       1       2       1       1       2
       1       1       2       1       1       2       1       1       2       1
       1       2       1       1       2       1       1       2       1       1
       2       1       1       2       1       1       2       1       1       2
       1       1       2       1       1       2       1       1       2       1
       1       2       1       1       2       1       1       2       1       1
       2       1       1       2       1       1       2       1       1       2
       1       1       2       1       1       2       1       1       2       1
       1       2       1       1       2       1       1       2       1       1
       2       1       1       2       1       1       2       1       1       2
       1       1       2       1       1       2       1       1       2       1
       1       2       1       1       2       1       1       2       1       1
       2       1       1       2       1       1       2       1       1       2
       1       1       2       1       1       2       1       1       2       1
       1       2       1       1       2       1       1       2       1       1
       2       1       1       2       1       1       2       1       1       2
       1       1       2       1       1       2       1       1       2       1
       1       2       1       1       2       1       1       2       1       1
       2       1       1       2       1       1       2       1       1       2
       1       1       2       1       1       2       1       1       2       1
       1       2       1       1       2       1       1       2       1       1
       2       1       1       2       1       1       2       1       1       2
       1       1       2       1       1       2       1       1       2       1
       1       2       1       1       2       1       1       2       1       1
       2       1       1       2       1       1       2       1       1       2
       1       1       2       1       1       2       1       1       2       1
       1       2       1       1       2       1       1       2       1       1
       2       1       1       2       1       1       2       1       1       2
       1       1       2       1       1       2       1       1       2       1
       1       2       1       1       2       1       1       2       1       1
       2       1       1       2       1       1       2       1       1       2
       1       1       2       1       1       2       1       1       2       1
       1       2       1       1       2       1       1       2       1       1
       2       1       1       2       1       1       2       1       1       2
       1       1       2       1       1       2       1       1       2       1
       1       2       1       1       2       1       1       2       1       1
       2       1       1       2       1       1       2       1       1       2
       1       1       2       1       1       2       1       1       2       1
       1       2       1       1       2       1       1       2       1       1
       2       1       1       2       1       1       2       1       1       2
       1       1       2       1       1       2       1       1       2       1
       1       2       1       1       2       1       1       2       1       1
       2       1       1       2       1       1       2       1       1       2
       1       1       2       1       1       2       1       1       2       1
       1       2       1       1       2       1       1       2       1       1
       2       1       1       2       1       1       2       1       1       2
       1       1       2       1       1       2       1       1       2       1
       1       2       1       1       2       1       1       2       1       1
       2       1       1       2       1       1       2       1       1       2
       1       1       2       1       1       2       1       1       2       1
       1       2       1       1       2       1       1       2       1       1
       2       1       1       2       1       1       2       1       1       2
       1       1       2       1       1       2       1       1       2       1
       1       2       1       1       2       1       1       2       1       1
       2       1       1       2       1       1       2       1       1       2
       1       1       2       1       1       2       1       1       2       1
       1       2       1       1       2       1       1       2       1       1
       2       1       1       2       1       1       2       1       1       2
       1       1       2       1       1       2       1       1       2       1
       1       2       1       1       2       1       1       2       1       1
       2       1       1       2       1       1       2       1       1       2
       1       1       2       1       1       2       1       1       2       1
       1       2       1       1       2       1       1       2       1       1
       2       1       1       2       1       1       2       1       1       2
       1       1       2       1       1       2       1       1       2       1
       1       2       1       1       2       1       1       2       1       1
       2       1       1       2       1       1       2       1       1       2
       1       1       2       1       1       2       1       1       2       1
       1       2       1       1       2       1       1       2       1       1
       2       1       1       2       1       1       2       1       1       2
       1       1       2       1       1       2       1       1       2       1
       1       2       1       1       2       1       1       2       1       1
       2       1       1       2       1       1       2       1       1       2
       1       1       2       1       1       2       1       1       2       1
       1       2       1       1       2       1       1       2       1       1
       2       1       1       2       1       1       2       1       1       2
       1       1       2       1       1       2       1       1       2       1
       1       2       1       1       2       1       1       2       1       1
       2       1       1       2       1       1       2       1       1       2
       1       1       2       1       1       2       1       1       2       1
       1       2       1       1       2       1       1       2       1       1
       2       1       1       2       1       1       2       1       1       2
       1       1       2       1       1       2       1       1       2       1
       1       2       1       1       2       1       1       2       1       1
       2       1       1       2       1       1       2       1       1       2
       1       1       2       1       1       2       1       1       2       1
       1       2       1       1       2       1       1       2       1       1
       2       1       1       2       1       1       2       1       1       2
       1       1       2       1       1       2       1       1       2       1
       1       2       1       1       2       1       1       2       1       1
       2       1       1       2       1       1       2       1       1       2
       1       1       2       1       1       2       1       1       2       1
       1       2       1       1       2       1       1       2       1       1
       2       1       1       2       1       1       2       1       1       2
       1       1       2       1       1       2       1       1       2       1
       1       2       1       1       2       1       1       2       1       1
       2       1       1       2       1       1       2       1       1       2
       1       1       2       1       1       2       1       1       2       1
       1       2       1       1       2       1       1       2       1       1
       2       1       1       2       1       1       2       1       1       2
       1       1       2       1       1       2       1       1       2       1
       1       2       1       1       2       1       1       2       1       1
       2       1       1       2       1       1       2       1       1       2
       1       1       2       1       1       2       1       1       2       1
       1       2       1       1       2       1       1       2       1       1
       2       1       1       2       1       1       2       1       1       2
       1       1       2       1       1       2       1       1       2       1
       1       2       1       1       2       1       1       2       1       1
       2       1       1       2       1       1       2       1       1       2
       1       1       2       1       1       2       1       1       2       1
       1       2       1       1       2       1       1       2       1       1
       2       1       1       2       1       1       2       1       1       2
       1       1       2       1       1       2       1       1       2       1
       1       2       1       1       2       1       1       2       1       1
       2       1       1       2       1       1       2       1       1       2
       1       1       2       1       1       2       1       1       2       1
       1       2       1       1       2       1       1       2       1       1
       2       1       1       2       1       1       2       1       1       2
       1       1       2       1       1       2       1       1       2       1
       1       2       1       1       2       1       1       2       1       1
       2       1       1       2       1       1       2       1       1       2
       1       1       2       1       1       2       1       1       2       1
       1       2       1       1       2       1       1       2       1       1
       2       1       1       2       1       1       2       1       1       2
       1       1       2       1       1       2       1       1       2       1
       1       2       1       1       2       1       1       2       1       1
       2       1       1       2       1       1       2       1       1       2
       1       1       2       1       1       2       1       1       2       1
       1       2       1       1       2       1       1       2       1       1
       2       1       1       2       1       1       2       1       1       2
       1       1       2       1       1       2       1       1       2       1
       1       2       1       1       2       1       1       2       1       1
       2       1       1       2       1       1       2       1       1       2
       1       1       2       1       1       2       1       1       2       1
       1       2       1       1       2       1       1       2       1       1
       2       1       1       2       1       1       2       1       1       2
       1       1       2       1       1       2       1       1       2       1
       1       2       1       1       2       1       1       2       1       1
       2       1       1       2       1       1       2       1       1       2
       1       1       2       1       1       2       1       1       2       1
       1       2       1       1       2       1       1       2       1       1
       2       1       1       2       1       1       2       1       1       2
       1       1       2       1       1       2       1       1       2       1
       1       2       1       1       2       1       1       2       1       1
       2       1       1       2       1       1       2       1       1       2
       1       1       2       1       1       2       1       1       2       1
       1       2       1       1       2       1       1       2       1       1
       2       1       1       2       1       1       2       1       1       2
       1       1       2       1       1       2       1       1       2       1
       1       2       1       1       2       1       1       2       1       1
       2       1       1       2       1       1       2       1       1       2
       1       1       2       1       1       2       1       1       2       1
       1       2       1       1       2       1       1       2       1       1
       2       1       1       2       1       1       2       1       1       2
       1       1       2       1       1       2       1       1       2       1
       1       2       1       1       2       1       1       2       1       1
       2       1       1       2       1       1       2       1       1       2
       1       1       2       1       1       2       1       1       2       1
       1       2       1       1       2       1       1       2       1       1
       2       1       1       2       1       1       2       1       1       2
       1       1       2       1       1       2       1       1       2       1
       1       2       1       1       2       1       1       2       1       1
       2       1       1       2       1       1       2       1       1       2
       1       1       2       1       1       2       1       1       2       1
       1       2       1       1       2       1       1       2       1       1
       2       1       1       2       1       1       2       1       1       2
       1       1       2       1       1       2       1       1       2       1
       1       2       1       1       2       1       1       2       1       1
       2       1       1       2       1       1       2       1       1       2
       1       1       2       1       1       2       1       1       2       1
       1       2       1       1       2       1       1       2       1       1
       2       1       1       2       1       1       2       1       1       2
       1       1       2       1       1       2       1       1       2       1
       1       2       1       1       2       1       1       2       1       1
       2       1       1       2       1       1       2       1       1       2
       1       1       2       1       1       2       1       1       2       1
       1       2       1       1       2       1       1       2       1       1
       2       1       1       2       1       1       2       1       1       2
       1       1       2       1       1       2       1       1       2       1
       1       2       1       1       2       1       1       2       1       1
       2       1       1       2       1       1       2       1       1       2
       1       1       2       1       1       2       1       1       2       1
       1       2       1       1       2       1       1       2       1       1
       2       1       1       2       1       1       2       1       1       2
       1       1       2       1       1       2       1       1       2       1
       1       2       1       1       2       1       1       2       1       1
       2       1       1       2       1       1       2       1       1       2
       1       1       2       1       1       2       1       1       2       1
       1       2       1       1       2       1       1       2       1       1
       2       1       1       2       1       1       2       1       1       2
       1       1       2       1       1       2       1       1       2       1
       1       2       1       1       2       1       1       2       1       1
       2       1       1       2       1       1       2       1       1       2
       1       1       2       1       1       2       1       1       2       1
       1       2       1       1       2       1       1       2       1       1
       2       1       1       2       1       1       2       1       1       2
       1       1       2       1       1       2       1       1       2       1
       1       2       1       1       2       1       1       2       1       1
       2       1       1       2       1       1       2       1       1       2
       1       1       2       1       1       2       1       1       2       1
       1       2       1       1       2       1       1       2       1       1
       2       1       1       2       1       1       2       1       1       2
       1       1       2       1       1       2       1       1       2       1
       1       2       1       1       2       1       1       2       1       1
       2       1       1       2       1       1       2       1       1       2
       1       1       2       1       1       2       1       1       2       1
       1       2       1       1       2       1       1       2       1       1
       2       1       1       2       1       1       2       1       1       2
       1       1       2       1       1       2       1       1       2       1
       1       2       1       1       2       1       1       2       1       1
       2       1       1       2       1       1       2       1       1       2
       1       1       2       1       1       2       1       1       2       1
       1       2       1       1       2       1       1       2       1       1
       2       1       1       2       1       1       2       1       1       2
       1       1       2       1       1       2       1       1       2       1
       1       2       1       1       2       1       1       2       1       1
       2       1       1       2       1       1       2       1       1       2
       1       1       2       1       1       2       1       1       2       1
       1       2       1       1       2       1       1       2       1       1
       2       1       1       2       1       1       2       1       1       2
       1       1       2       1       1       2       1       1       2       1
       1       2       1       1       2       1       1       2       1       1
       2       1       1       2       1       1       2       1       1       2
       1       1       2       1       1       2       1       1       2       1
       1       2       1       1       2       1       1       2       1       1
       2       1       1       2       1       1       2       1       1       2
       1       1       2       1       1       2       1       1       2       1
       1       2       1       1       2       1       1       2       1       1
       2       1       1       2       1       1       2       1       1       2
       1       1       2       1       1       2       1       1       2       1
       1       2       1       1       2       1       1       2       1       1
       2       1       1       2       1       1       2       1       1       2
       1       1       2       1       1       2       1       1       2       1
       1       2       1       1       2       1       1       2       1       1
       2       1       1       2       1       1       2       1       1       2
       1       1       2       1       1       2       1       1       2       1
       1       2       1       1       2       1       1       2       1       1
       2       1       1       2       1       1       2       1       1       2
       1       1       2       1       1       2       1       1       2       1
       1       2       1       1       2       1       1       2       1       1
       2       1       1       2       1       1       2       1       1       2
       1       1       2       1       1       2       1       1       2       1
       1       2       1       1       2       1       1       2       1       1
       2       1       1       2       1       1       2       1       1       2
       1       1       2       1       1       2       1       1       2       1
       1       2       1       1       2       1       1       2       1       1
       2       1       1       2       1       1       2       1       1       2
       1       1       2       1       1       2       1       1       2       1
       1       2       1       1       2       1       1       2       1       1
       2       1       1       2       1       1       2       1       1       2
       1       1       2       1       1       2       1       1       2       1
       1       2       1       1       2       1       1       2       1       1
       2       1       1       2       1       1       2       1       1       2
       1       1       2       1       1       2       1       1       2       1
       1       2       1       1       2       1       1       2       1       1
       2       1       1       2       1       1       2       1       1       2
       1       1       2       1       1       2       1       1       2       1
       1       2       1       1       2       1       1       2       1       1
       2       1       1       2       1       1       2       1       1       2
       1       1       2       1       1       2       1       1       2       1
       1       2       1       1       2       1       1       2       1       1
       2       1       1       2       1       1       2       1       1       2
       1       1       2       1       1       2       1       1       2       1
       1       2       1       1       2       1       1       2       1       1
       2       1       1       2       1       1       2       1       1       2
       1       1       2       1       1       2       1       1       2       1
       1       2       1       1       2       1       1       2       1       1
       2       1       1       2       1       1       2       1       1       2
       1       1       2       1       1       2       1       1       2       1
       1       2       1       1       2       1       1       2       1       1
       2       1       1       2       1       1       2       1       1       2
       1       1       2       1       1       2       1       1       2       1
       1       2       1       1       2       1       1       2       1       1
       2       1       1       2       1       1       2       1       1       2
       1       1       2       1       1       2       1       1       2       1
       1       2       1       1       2       1       1       2       1       1
       2       1       1       2       1       1       2       1       1       2
       1       1       2       1       1       2       1       1       2       1
       1       2       1       1       2       1       1       2       1       1
       2       1       1       2       1       1       2       1       1       2
       1       1       2       1       1       2       1       1       2       1
       1       2       1       1       2       1       1       2       1       1
       2       1       1       2       1       1       2       1       1       2
       1       1       2       1       1       2       1       1       2       1
       1       2       1       1       2       1       1       2       1       1
       2       1       1       2       1       1       2       1       1       2
       1       1       2       1       1       2       1       1       2       1
       1       2       1       1       2       1       1       2       1       1
       2       1       1       2       1       1       2       1       1       2
       1       1       2       1       1       2       1       1       2       1
       1       2       1       1       2       1       1       2       1       1
       2       1       1       2       1       1       2       1       1       2
       1       1       2       1       1       2       1       1       2       1
       1       2       1       1       2       1       1       2       1       1
       2       1       1       2       1       1       2       1       1       2
       1       1       2       1       1       2       1       1       2       1
       1       2       1       1       2       1       1       2       1       1
       2       1       1       2       1       1       2       1       1       2
       1       1       2       1       1       2       1       1       2       1
       1       2       1       1       2       1       1       2       1       1
       2       1       1       2       1       1       2       1       1       2
       1       1       2       1       1       2       1       1       2       1
       1       2       1       1       2       1       1       2       1       1
       2       1       1       2       1       1       2       1       1       2
       1       1       2       1       1       2       1       1       2       1
       1       2       1       1       2       1       1       2       1       1
       2       1       1       2       1       1       2       1       1       2
       1       1       2       1       1       2       1       1       2       1
       1       2       1       1       2       1       1       2       1       1
       2       1       1       2       1       1       2       1       1       2
       1       1       2       1       1       2       1       1       2       1
       1       2       1       1       2       1       1       2       1       1
       2       1       1       2       1       1       2       1       1       2
       1       1       2       1       1       2       1       1       2       1
       1       2       1       1       2       1       1       2       1       1
       2       1       1       2       1       1       2       1       1       2
       1       1       2       1       1       2       1       1       2       1
       1       2       1       1       2       1       1       2       1       1
       2       1       1       2       1       1       2       1       1       2
       1       1       2       1       1       2       1       1       2       1
       1       2       1       1       2       1       1       2       1       1
       2       1       1       2       1       1       2       1       1       2
       1       1       2       1       1       2       1       1       2       1
       1       2       1       1       2       1       1       2       1       1
       2       1       1       2       1       1       2       1       1       2
       1       1       2       1       1       2       1       1       2       1
       1       2       1       1       2       1       1       2       1       1
       2       1       1       2       1       1       2       1       1       2
       1       1       2       1       1       2       1       1       2       1
       1       2       1       1       2       1       1       2       1       1
       2       1       1       2       1       1       2       1       1       2
       1       1       2       1       1       2       1       1       2       1
       1       2       1       1       2       1       1       2       1       1
       2       1       1       2       1       1       2       1       1       2
       1       1       2       1       1       2       1       1       2       1
       1       2       1       1       2       1       1       2       1       1
       2       1       1       2       1       1       2       1       1       2
       1       1       2       1       1       2       1       1       2       1
       1       2       1       1       2       1       1       2       1       1
       2       1       1       2       1       1       2       1       1       2
       1       1       2       1       1       2       1       1       2       1
       1       2       1       1       2       1       1       2       1       1
       2       1       1       2       1       1       2       1       1       2
       1       1       2       1       1       2       1       1       2       1
       1       2       1       1       2       1       1       2       1       1
       2       1       1       2       1       1       2       1       1       2
       1       1       2       1       1       2       1       1       2       1
       1       2       1       1       2       1       1       2       1       1
       2       1       1       2       1       1       2       1       1       2
       1       1       2       1       1       2       1       1       2       1
       1       2       1       1       2       1       1       2       1       1
       2       1       1       2       1       1       2       1       1       2
       1       1       2       1       1       2       1       1       2       1
       1       2       1       1       2       1       1       2       1       1
       2       1       1       2       1       1       2       1       1       2
       1       1       2       1       1       2       1       1       2       1
       1       2       1       1       2       1       1       2       1       1
       2       1       1       2       1       1       2       1       1       2
       1       1       2       1       1       2       1       1       2       1
       1       2       1       1       2       1       1       2       1       1
       2       1       1       2       1       1       2       1       1       2
       1       1       2       1       1       2       1       1       2       1
       1       2       1       1       2       1       1       2       1       1
       2       1       1       2       1       1       2       1       1       2
       1       1       2       1       1       2       1       1       2       1
       1       2       1       1       2       1       1       2       1       1
       2       1       1       2       1       1       2       1       1       2
       1       1       2       1       1       2       1       1       2       1
       1       2       1       1       2       1       1       2       1       1
       2       1       1       2       1       1       2       1       1       2
       1       1       2       1       1       2       1       1       2       1
       1       2       1       1       2       1       1       2       1       1
       2       1       1       2       1       1       2       1       1       2
       1       1       2       1       1       2       1       1       2       1
       1       2       1       1       2       1       1       2       1       1
       2       1       1       2       1       1       2       1       1       2
       1       1       2       1       1       2       1       1       2       1
       1       2       1       1       2       1       1       2       1       1
       2       1       1       2       1       1       2       1       1       2
       1       1       2       1       1       2       1       1       2       1
       1       2       1       1       2       1       1       2       1       1
       2       1       1       2       1       1       2       1       1       2
       1       1       2       1       1       2       1       1       2       1
       1       2       1       1       2       1       1       2       1       1
       2       1       1       2       1       1       2       1       1       2
       1       1       2       1       1       2       1       1       2       1
       1       2       1       1       2       1       1       2       1       1
       2       1       1       2       1       1       2       1       1       2
       1       1       2       1       1       2       1       1       2       1
       1       2       1       1       2       1       1       2       1       1
       2       1       1       2       1       1       2       1       1       2
       1       1       2       1       1       2       1       1       2       1
       1       2       1       1       2       1       1       2       1       1
       2       1       1       2       1       1       2       1       1       2
       1       1       2       1       1       2       1       1       2       1
       1       2       1       1       2       1       1       2       1       1
       2       1       1       2       1       1       2       1       1       2
       1       1       2       1       1       2       1       1       2       1
       1       2       1       1       2       1       1       2       1       1
       2       1       1       2       1       1       2       1       1       2
       1       1       2       1       1       2       1       1       2       1
       1       2       1       1       2       1       1       2       1       1
       2       1       1       2       1       1       2       1       1       2
       1       1       2       1       1       2       1       1       2       1
       1       2       1       1       2       1       1       2       1       1
       2       1       1       2       1       1       2       1       1       2
       1       1       2       1       1       2       1       1       2       1
       1       2       1       1       2       1       1       2       1       1
       2       1       1       2       1       1       2       1       1       2
       1       1       2       1       1       2       1       1       2       1
       1       2       1       1       2       1       1       2       1       1
       2       1       1       2       1       1       2       1       1       2
       1       1       2       1       1       2       1       1       2       1
       1       2       1       1       2       1       1       2       1       1
       2       1       1       2       1       1       2       1       1       2
       1       1       2       1       1       2       1       1       2       1
       1       2       1       1       2       1       1       2       1       1
       2       1       1       2       1       1       2       1       1       2
       1       1       2       1       1       2       1       1       2       1
       1       2       1       1       2       1       1       2       1       1
       2       1       1       2       1       1       2       1       1       2
       1       1       2       1       1       2       1       1       2       1
       1       2       1       1       2       1       1       2       1       1
       2       1       1       2       1       1       2       1       1       2
       1       1       2       1       1       2       1       1       2       1
       1       2       1       1       2       1       1       2       1       1
       2       1       1       2       1       1       2       1       1       2
       1       1       2       1       1       2       1       1       2       1
       1       2       1       1       2       1       1       2       1       1
       2       1       1       2       1       1       2       1       1       2
       1       1       2       1       1       2       1       1       2       1
       1       2       1       1       2       1       1       2       1       1
       2       1       1       2       1       1       2       1       1       2
       1       1       2       1       1       2       1       1       2       1
       1       2       1       1       2       1       1       2       1       1
       2       1       1       2       1       1       2       1       1       2
       1       1       2       1       1       2       1       1       2       1
       1       2       1       1       2       1       1       2       1       1
       2       1       1       2       1       1       2       1       1       2
       1       1       2       1       1       2       1       1       2       1
       1       2       1       1       2       1       1       2       1       1
       2       1       1       2       1       1       2       1       1       2
       1       1       2       1       1       2       1       1       2       1
       1       2       1       1       2       1       1       2       1       1
       2       1       1       2       1       1       2       1       1       2
       1       1       2       1       1       2       1       1       2       1
       1       2       1       1       2       1       1       2       1       1
       2       1       1       2       1       1       2       1       1       2
       1       1       2       1       1       2       1       1       2       1
       1       2       1       1       2       1       1       2       1       1
       2       1       1       2       1       1       2       1       1       2
       1       1       2       1       1       2       1       1       2       1
       1       2       1       1       2       1       1       2       1       1
       2       1       1       2       1       1       2       1       1       2
       1       1       2       1       1       2       1       1       2       1
       1       2       1       1       2       1       1       2       1       1
       2       1       1       2       1       1       2       1       1       2
       1       1       2       1       1       2       1       1       2       1
       1       2       1       1       2       1       1       2       1       1
       2       1       1       2       1       1       2       1       1       2
       1       1       2       1       1       2       1       1       2       1
       1       2       1       1       2       1       1       2       1       1
       2       1       1       2       1       1       2       1       1       2
       1       1       2       1       1       2       1       1       2       1
       1       2       1       1       2       1       1       2       1       1
       2       1       1       2       1       1       2       1       1       2
       1       1       2       1       1       2       1       1       2       1
       1       2       1       1       2       1       1       2       1       1
       2       1       1       2       1       1       2       1       1       2
       1       1       2       1       1       2       1       1       2       1
       1       2       1       1       2       1       1       2       1       1
       2       1       1       2       1       1       2       1       1       2
       1       1       2       1       1       2       1       1       2       1
       1       2       1       1       2       1       1       2       1       1
       2       1       1       2       1       1       2       1       1       2
       1       1       2       1       1       2       1       1       2       1
       1       2       1       1       2       1       1       2       1       1
       2       1       1       2       1       1       2       1       1       2
       1       1       2       1       1       2       1       1       2       1
       1       2       1       1       2       1       1       2       1       1
       2       1       1       2       1       1       2       1       1       2
       1       1       2       1       1       2       1       1       2       1
       1       2       1       1       2       1       1       2       1       1
       2       1       1       2       1       1       2       1       1       2
       1       1       2       1       1       2       1       1       2       1
       1       2       1       1       2       1       1       2       1       1
       2       1       1       2       1       1       2       1       1       2
       1       1       2       1       1       2       1       1       2       1
       1       2       1       1       2       1       1       2       1       1
       2       1       1       2       1       1       2       1       1       2
       1       1       2       1       1       2       1       1       2       1
       1       2       1       1       2       1       1       2       1       1
       2       1       1       2       1       1       2       1       1       2
       1       1       2       1       1       2       1       1       2       1
       1       2       1       1       2       1       1       2       1       1
       2       1       1       2       1       1       2       1       1       2
       1       1       2       1       1       2       1       1       2       1
       1       2       1       1       2       1       1       2       1       1
       2       1       1       2       1       1       2       1       1       2
       1       1       2       1       1       2       1       1       2       1
       1       2       1       1       2       1       1       2       1       1
       2       1       1       2       1       1       2       1       1       2
       1       1       2       1       1       2       1       1       2       1
       1       2       1       1       2       1       1       2       1       1
       2       1       1       2       1       1       2       1       1       2
       1       1       2       1       1       2       1       1       2       1
       1       2       1       1       2       1       1       2       1       1
       2       1       1       2       1       1       2       1       1       2
       1       1       2       1       1       2       1       1       2       1
       1       2       1       1       2       1       1       2       1       1
       2       1       1       2       1       1       2       1       1       2
       1       1       2       1       1       2       1       1       2       1
       1       2       1       1       2       1       1       2       1       1
       2       1       1       2       1       1       2       1       1       2
       1       1       2       1       1       2       1       1       2       1
       1       2       1       1       2       1       1       2       1       1
       2       1       1       2       1       1       2       1       1       2
       1       1       2       1       1       2       1       1       2       1
       1       2       1       1       2       1       1       2       1       1
       2       1       1       2       1       1       2       1       1       2
       1       1       2       1       1       2       1       1       2       1
       1       2       1       1       2       1       1       2       1       1
       2       1       1       2       1       1       2       1       1       2
       1       1       2       1       1       2       1       1       2       1
       1       2       1       1       2       1       1       2       1       1
       2       1       1       2       1       1       2       1       1       2
       1       1       2       1       1       2       1       1       2       1
       1       2       1       1       2       1       1       2       1       1
       2       1       1       2       1       1       2       1       1       2
       1       1       2       1       1       2       1       1       2       1
       1       2       1       1       2       1       1       2       1       1
       2       1       1       2       1       1       2       1       1       2
       1       1       2       1       1       2       1       1       2       1
       1       2       1       1       2       1       1       2       1       1
       2       1       1       2       1       1       2       1       1       2
       1       1       2       1       1       2       1       1       2       1
       1       2       1       1       2       1       1       2       1       1
       2       1       1       2       1       1       2       1       1       2
       1       1       2       1       1       2       1       1       2       1
       1       2       1       1       2       1       1       2       1       1
       2       1       1       2       1       1       2       1       1       2
       1       1       2       1       1       2       1       1       2       1
       1       2       1       1       2       1       1       2       1       1
       2       1       1       2       1       1       2       1       1       2
       1       1       2       1       1       2       1       1       2       1
       1       2       1       1       2       1       1       2       1       1
       2       1       1       2       1       1       2       1       1       2
       1       1       2       1       1       2       1       1       2       1
       1       2       1       1       2       1       1       2       1       1
       2       1       1       2       1       1       2       1       1       2
       1       1       2       1       1       2       1       1       2       1
       1       2       1       1       2       1       1       2       1       1
       2       1       1       2       1       1       2       1       1       2
       1       1       2       1       1       2       1       1       2       1
       1       2       1       1       2       1       1       2       1       1
       2       1       1       2       1       1       2       1       1       2
       1       1       2       1       1       2       1       1       2       1
       1       2       1       1       2       1       1       2       1       1
       2       1       1       2       1       1       2       1       1       2
       1       1       2       1       1       2       1       1       2       1
       1       2       1       1       2       1       1       2       1       1
       2       1       1       2       1       1       2       1       1       2
       1       1       2       1       1       2       1       1       2       1
       1       2       1       1       2       1       1       2       1       1
       2       1       1       2       1       1       2       1       1       2
       1       1       2       1       1       2       1       1       2       1
       1       2       1       1       2       1       1       2       1       1
       2       1       1       2       1       1       2       1       1       2
       1       1       2       1       1       2       1       1       2       1
       1       2       1       1       2       1       1       2       1       1
       2       1       1       2       1       1       2       1       1       2
       1       1       2       1       1       2       1       1       2       1
       1       2       1       1       2       1       1       2       1       1
       2       1       1       2       1       1       2       1       1       2
       1       1       2       1       1       2       1       1       2       1
       1       2       1       1       2       1       1       2       1       1
       2       1       1       2       1       1       2       1       1       2
       1       1       2       1       1       2       1       1       2       1
       1       2       1       1       2       1       1       2       1       1
       2       1       1       2       1       1       2       1       1       2
       1       1       2       1       1       2       1       1       2       1
       1       2       1       1       2       1       1       2       1       1
       2       1       1       2       1       1       2       1       1       2
       1       1       2       1       1       2       1       1       2       1
       1       2       1       1       2       1       1       2       1       1
       2       1       1       2       1       1       2       1       1       2
       1       1       2       1       1       2       1       1       2       1
       1       2       1       1       2       1       1       2       1       1
       2       1       1       2       1       1       2       1       1       2
       1       1       2       1       1       2       1       1       2       1
       1       2       1       1       2       1       1       2       1       1
       2       1       1       2       1       1       2       1       1       2
       1       1       2       1       1       2       1       1       2       1
       1       2       1       1       2       1       1       2       1       1
       2       1       1       2       1       1       2       1       1       2
       1       1       2       1       1       2       1       1       2       1
       1       2       1       1       2       1       1       2       1       1
       2       1       1       2       1       1       2       1       1       2
       1       1       2       1       1       2       1       1       2       1
       1       2       1       1       2       1       1       2       1       1
       2       1       1       2       1       1       2       1       1       2
       1       1       2       1       1       2       1       1       2       1
       1       2       1       1       2       1       1       2       1       1
       2       1       1       2       1       1       2       1       1       2
       1       1       2       1       1       2       1       1       2       1
       1       2       1       1       2       1       1       2       1       1
       2       1       1       2       1       1       2       1       1       2
       1       1       2       1       1       2       1       1       2       1
       1       2       1       1       2       1       1       2       1       1
       2       1       1       2       1       1       2       1       1       2
       1       1       2       1       1       2       1       1       2       1
       1       2       1       1       2       1       1       2       1       1
       2       1       1       2       1       1       2       1       1       2
       1       1       2       1       1       2       1       1       2       1
       1       2       1       1       2       1       1       2       1       1
       2       1       1       2       1       1       2       1       1       2
       1       1       2       1       1       2       1       1       2       1
       1       2       1       1       2       1       1       2       1       1
       2       1       1       2       1       1       2       1       1       2
       1       1       2       1       1       2       1       1       2       1
       1       2       1       1       2       1       1       2       1       1
       2       1       1       2       1       1       2       1       1       2
       1       1       2       1       1       2       1       1       2       1
       1       2       1       1       2       1       1       2       1       1
       2       1       1       2       1       1       2       1       1       2
       1       1       2       1       1       2       1       1       2       1
       1       2       1       1       2       1       1       2       1       1
       2       1       1       2       1       1       2       1       1       2
       1       1       2       1       1       2       1       1       2       1
       1       2       1       1       2       1       1       2       1       1
       2       1       1       2       1       1       2       1       1       2
       1       1       2       1       1       2       1       1       2       1
       1       2       1       1       2       1       1       2       1       1
       2       1       1       2       1       1       2       1       1       2
       1       1       2       1       1       2       1       1       2       1
       1       2       1       1       2       1       1       2       1       1
       2       1       1       2       1       1       2       1       1       2
       1       1       2       1       1       2       1       1       2       1
       1       2       1       1       2       1       1       2       1       1
       2       1       1       2       1       1       2       1       1       2
       1       1       2       1       1       2       1       1       2       1
       1       2       1       1       2       1       1       2       1       1
       2       1       1       2       1       1       2       1       1       2
       1       1       2       1       1       2       1       1       2       1
       1       2       1       1       2       1       1       2       1       1
       2       1       1       2       1       1       2       1       1       2
       1       1       2       1       1       2       1       1       2       1
       1       2       1       1       2       1       1       2       1       1
       2       1       1       2       1       1       2       1       1       2
       1       1       2       1       1       2       1       1       2       1
       1       2       1       1       2       1       1       2       1       1
       2       1       1       2       1       1       2       1       1       2
       1       1       2       1       1       2       1       1       2       1
       1       2       1       1       2       1       1       2       1       1
       2       1       1       2       1       1       2       1       1       2
       1       1       2       1       1       2       1       1       2       1
       1       2       1       1       2       1       1       2       1       1
       2       1       1       2       1       1       2       1       1       2
       1       1       2       1       1       2       1       1       2       1
       1       2       1       1       2       1       1       2       1       1
       2       1       1       2       1       1       2       1       1       2
       1       1       2       1       1       2       1       1       2       1
       1       2       1       1       2       1       1       2       1       1
       2       1       1       2       1       1       2       1       1       2
       1       1       2       1       1       2       1       1       2       1
       1       2       1       1       2       1       1       2       1       1
       2       1       1       2       1       1       2       1       1       2
       1       1       2       1       1       2       1       1       2       1
       1       2       1       1       2       1       1       2       1       1
       2       1       1       2       1       1       2       1       1       2
       1       1       2       1       1       2       1       1       2       1
       1       2       1       1       2       1       1       2       1       1
       2       1       1       2       1       1       2       1       1       2
       1       1       2       1       1       2       1       1       2       1
       1       2       1       1       2       1       1       2       1       1
       2       1       1       2       1       1       2       1       1       2
       1       1       2       1       1       2       1       1       2       1
       1       2       1       1       2       1       1       2       1       1
       2       1       1       2       1       1       2       1       1       2
       1       1       2       1       1       2       1       1       2       1
       1       2       1       1       2       1       1       2       1       1
       2       1       1       2       1       1       2       1       1       2
       1       1       2       1       1       2       1       1       2       1
       1       2       1       1       2       1       1       2       1       1
       2       1       1       2       1       1       2       1       1       2
       1       1       2       1       1       2       1       1       2       1
       1       2       1       1       2       1       1       2       1       1
       2       1       1       2       1       1       2       1       1       2
       1       1       2       1       1       2       1       1       2       1
       1       2       1       1       2       1       1       2       1       1
       2       1       1       2       1       1       2       1       1       2
       1       1       2       1       1       2       1       1       2       1
       1       2       1       1       2       1       1       2       1       1
       2       1       1       2       1       1       2       1       1       2
       1       1       2       1       1       2       1       1       2       1
       1       2       1       1       2       1       1       2       1       1
       2       1       1       2       1       1       2       1       1       2
       1       1       2       1       1       2       1       1       2       1
       1       2       1       1       2       1       1       2       1       1
       2       1       1       2       1       1       2       1       1       2
       1       1       2       1       1       2       1       1       2       1
       1       2       1       1       2       1       1       2       1       1
       2       1       1       2       1       1       2       1       1       2
       1       1       2       1       1       2       1       1       2       1
       1       2       1       1       2       1       1       2       1       1
       2       1       1       2       1       1       2       1       1       2
       1       1       2       1       1       2       1       1       2       1
       1       2       1       1       2       1       1       2       1       1
       2       1       1       2       1       1       2       1       1       2
       1       1       2       1       1       2       1       1       2       1
       1       2       1       1       2       1       1       2       1       1
       2       1       1       2       1       1       2       1       1       2
       1       1       2       1       1       2       1       1       2       1
       1       2       1       1       2       1       1       2       1       1
       2       1       1       2       1       1       2       1       1       2
       1       1       2       1       1       2       1       1       2       1
       1       2       1       1       2       1       1       2       1       1
       2       1       1       2       1       1       2       1       1       2
       1       1       2       1       1       2       1       1       2       1
       1       2       1       1       2       1       1       2       1       1
       2       1       1       2       1       1       2       1       1       2
       1       1       2       1       1       2       1       1       2       1
       1       2       1       1       2       1       1       2       1       1
       2       1       1       2       1       1       2       1       1       2
       1       1       2       1       1       2       1       1       2       1
       1       2       1       1       2       1       1       2       1       1
       2       1       1       2       1       1       2       1       1       2
       1       1       2       1       1       2       1       1       2       1
       1       2       1       1       2       1       1       2       1       1
       2       1       1       2       1       1       2       1       1       2
       1       1       2       1       1       2       1       1       2       1
       1       2       1       1       2       1       1       2       1       1
       2       1       1       2       1       1       2       1       1       2
       1       1       2       1       1       2       1       1       2       1
       1       2       1       1       2       1       1       2       1       1
       2       1       1       2       1       1       2       1       1       2
       1       1       2       1       1       2       1       1       2       1
       1       2       1       1       2       1       1       2       1       1
       2       1       1       2       1       1       2       1       1       2
       1       1       2       1       1       2       1       1       2       1
       1       2       1       1       2       1       1       2       1       1
       2       1       1       2       1       1       2       1       1       2
       1       1       2       1       1       2       1       1       2       1
       1       2       1       1       2       1       1       2       1       1
       2       1       1       2       1       1       2       1       1       2
       1       1       2       1       1       2       1       1       2       1
       1       2       1       1       2       1       1       2       1       1
       2       1       1       2       1       1       2       1       1       2
       1       1       2       1       1       2       1       1       2       1
       1       2       1       1       2       1       1       2       1       1
       2       1       1       2       1       1       2       1       1       2
       1       1       2       1       1       2       1       1       2       1
       1       2       1       1       2       1       1       2       1       1
       2       1       1       2       1       1       2       1       1       2
       1       1       2       1       1       2       1       1       2       1
       1       2       1       1       2       1       1       2       1       1
       2       1       1       2       1       1       2       1       1       2
       1       1       2       1       1       2       1       1       2       1
       1       2       1       1       2       1       1       2       1       1
       2       1       1       2       1       1       2       1       1       2
       1       1       2       1       1       2       1       1       2       1
       1       2       1       1       2       1       1       2       1       1
       2       1       1       2       1       1       2       1       1       2
       1       1       2       1       1       2       1       1       2       1
       1       2       1       1       2       1       1       2       1       1
       2       1       1       2       1       1       2       1       1       2
       1       1       2       1       1       2       1       1       2       1
       1       2       1       1       2       1       1       2       1       1
       2       1       1       2       1       1       2       1       1       2
       1       1       2       1       1       2       1       1       2       1
       1       2       1       1       2       1       1       2       1       1
       2       1       1       2       1       1       2       1       1       2
       1       1       2       1       1       2       1       1       2       1
       1       2       1       1       2       1       1       2       1       1
       2       1       1       2       1       1       2       1       1       2
       1       1       2       1       1       2       1       1       2       1
       1       2       1       1       2       1       1       2       1       1
       2       1       1       2       1       1       2       1       1       2
       1       1       2       1       1       2       1       1       2       1
       1       2       1       1       2       1       1       2       1       1
       2       1       1       2       1       1       2       1       1       2
       1       1       2       1       1       2       1       1       2       1
       1       2       1       1       2       1       1       2       1       1
       2       1       1       2       1       1       2       1       1       2
       1       1       2       1       1       2       1       1       2       1
       1       2       1       1       2       1       1       2       1       1
       2       1       1       2       1       1       2       1       1       2
       1       1       2       1       1       2       1       1       2       1
       1       2       1       1       2       1       1       2       1       1
       2       1       1       2       1       1       2       1       1       2
       1       1       2       1       1       2       1       1       2       1
       1       2       1       1       2       1       1       2       1       1
       2       1       1       2       1       1       2       1       1       2
       1       1       2       1       1       2       1       1       2       1
       1       2       1       1       2       1       1       2       1       1
       2       1       1       2       1       1       2       1       1       2
       1       1       2       1       1       2       1       1       2       1
       1       2       1       1       2       1       1       2       1       1
       2       1       1       2       1       1       2       1       1       2
       1       1       2       1       1       2       1       1       2       1
       1       2       1       1       2       1       1       2       1       1
       2       1       1       2       1       1       2       1       1       2
       1       1       2       1       1       2       1       1       2       1
       1       2       1       1       2       1       1       2       1       1
       2       1       1       2       1       1       2       1       1       2
       1       1       2       1       1       2       1       1       2       1
       1       2       1       1       2       1       1       2       1       1
       2       1       1       2       1       1       2       1       1       2
       1       1       2       1       1       2       1       1       2       1
       1       2       1       1       2       1       1       2       1       1
       2       1       1       2       1       1       2       1       1       2
       1       1       2       1       1       2       1       1       2       1
       1       2       1       1       2       1       1       2       1       1
       2       1       1       2       1       1       2       1       1       2
       1       1       2       1       1       2       1       1       2       1
       1       2       1       1       2       1       1       2       1       1
       2       1       1       2       1       1       2       1       1       2
       1       1       2       1       1       2       1       1       2       1
       1       2       1       1       2       1       1       2       1       1
       2       1       1       2       1       1       2       1       1       2
       1       1       2       1       1       2       1       1       2       1
       1       2       1       1       2       1       1       2       1       1
       2       1       1       2       1       1       2       1       1       2
       1       1       2       1       1       2       1       1       2       1
       1       2       1       1       2       1       1       2       1       1
       2       1       1       2       1       1       2       1       1       2
       1       1       2       1       1       2       1       1       2       1
       1       2       1       1       2       1       1       2       1       1
       2       1       1       2       1       1       2       1       1       2
       1       1       2       1       1       2       1       1       2       1
       1       2       1       1       2       1       1       2       1       1
       2       1       1       2       1       1       2       1       1       2
       1       1       2       1       1       2       1       1       2       1
       1       2       1       1       2       1       1       2       1       1
       2       1       1       2       1       1       2       1       1       2
       1       1       2       1       1       2       1       1       2       1
       1       2       1       1       2       1       1       2       1       1
       2       1       1       2       1       1       2       1       1       2
       1       1       2       1       1       2       1       1       2       1
       1       2       1       1       2       1       1       2       1       1
       2       1       1       2       1       1       2       1       1       2
       1       1       2       1       1       2       1       1       2       1
       1       2       1       1       2       1       1       2       1       1
       2       1       1       2       1       1       2       1       1       2
       1       1       2       1       1       2       1       1       2       1
       1       2       1       1       2       1       1       2       1       1
       2       1       1       2       1       1       2       1       1       2
       1       1       2       1       1       2       1       1       2       1
       1       2       1       1       2       1       1       2       1       1
       2       1       1       2       1       1       2       1       1       2
       1       1       2       1       1       2       1       1       2       1
       1       2       1       1       2       1       1       2       1       1
       2       1       1       2       1       1       2       1       1       2
       1       1       2       1       1       2       1       1       2       1
       1       2       1       1       2       1       1       2       1       1
       2       1       1       2       1       1       2       1       1       2
       1       1       2       1       1       2       1       1       2       1
       1       2       1       1       2       1       1       2       1       1
       2       1       1       2       1       1       2       1       1       2
       1       1       2       1       1       2       1       1       2       1
       1       2       1       1       2       1       1       2       1       1
       2       1       1       2       1       1       2       1       1       2
       1       1       2       1       1       2       1       1       2       1
       1       2       1       1       2       1       1       2       1       1
       2       1       1       2       1       1       2       1       1       2
       1       1       2       1       1       2       1       1       2       1
       1       2       1       1       2       1       1       2       1       1
       2       1       1       2       1       1       2       1       1       2
       1       1       2       1       1       2       1       1       2       1
       1       2       1       1       2       1       1       2       1       1
       2       1       1       2       1       1       2       1       1       2
       1       1       2       1       1       2       1       1       2       1
       1       2       1       1       2       1       1       2       1       1
       2       1       1       2       1       1       2       1       1       2
       1       1       2       1       1       2       1       1       2       1
       1       2       1       1       2       1       1       2       1       1
       2       1       1       2       1       1       2       1       1       2
       1       1       2       1       1       2       1       1       2       1
       1       2       1       1       2       1       1       2       1       1
       2       1       1       2       1       1       2       1       1       2
       1       1       2       1       1       2       1       1       2       1
       1       2       1       1       2       1       1       2       1       1
       2       1       1       2       1       1       2       1       1       2
       1       1       2       1       1       2       1       1       2       1
       1       2       1       1       2       1       1       2       1       1
       2       1       1       2       1       1       2       1       1       2
       1       1       2       1       1       2       1       1       2       1
       1       2       1       1       2       1       1       2       1       1
       2       1       1       2       1       1       2       1       1       2
       1       1       2       1       1       2       1       1       2       1
       1       2       1       1       2       1       1       2       1       1
       2       1       1       2       1       1       2       1       1       2
       1       1       2       1       1       2       1       1       2       1
       1       2       1       1       2       1       1       2       1       1
       2       1       1       2       1       1       2       1       1       2
       1       1       2       1       1       2       1       1       2       1
       1       2       1       1       2       1       1       2       1       1
       2       1       1       2       1       1       2       1       1       2
       1       1       2       1       1       2       1       1       2       1
       1       2       1       1       2       1       1       2       1       1
       2       1       1       2       1       1       2       1       1       2
       1       1       2       1       1       2       1       1       2       1
       1       2       1       1       2       1       1       2       1       1
       2       1       1       2       1       1       2       1       1       2
       1       1       2       1       1       2       1       1       2       1
       1       2       1       1       2       1       1       2       1       1
       2       1       1       2       1       1       2       1       1       2
       1       1       2       1       1       2       1       1       2       1
       1       2       1       1       2       1       1       2       1       1
       2       1       1       2       1       1       2       1       1       2
       1       1       2       1       1       2       1       1       2       1
       1       2       1       1       2       1       1       2       1       1
       2       1       1       2       1       1       2       1       1       2
       1       1       2       1       1       2       1       1       2       1
       1       2       1       1       2       1       1       2       1       1
       2       1       1       2       1       1       2       1       1       2
       1       1       2       1       1       2       1       1       2       1
       1       2       1       1       2       1       1       2       1       1
       2       1       1       2       1       1       2       1       1       2
       1       1       2       1       1       2       1       1       2       1
       1       2       1       1       2       1       1       2       1       1
       2       1       1       2       1       1       2       1       1       2
       1       1       2       1       1       2       1       1       2       1
       1       2       1       1       2       1       1       2       1       1
       2       1       1       2       1       1       2       1       1       2
       1       1       2       1       1       2       1       1       2       1
       1       2       1       1       2       1       1       2       1       1
       2       1       1       2       1       1       2       1       1       2
       1       1       2       1       1       2       1       1       2       1
       1       2       1       1       2       1       1       2       1       1
       2       1       1       2       1       1       2       1       1       2
       1       1       2       1       1       2       1       1       2       1
       1       2       1       1       2       1       1       2       1       1
       2       1       1       2       1       1       2       1       1       2
       1       1       2       1       1       2       1       1       2       1
       1       2       1       1       2       1       1       2       1       1
       2       1       1       2       1       1       2       1       1       2
       1       1       2       1       1       2       1       1       2       1
       1       2       1       1       2       1       1       2       1       1
       2       1       1       2       1       1       2       1       1       2
       1       1       2       1       1       2       1       1       2       1
       1       2       1       1       2       1       1       2       1       1
       2       1       1       2       1       1       2       1       1       2
       1       1       2       1       1       2       1       1       2       1
       1       2       1       1       2       1       1       2       1       1
       2       1       1       2       1       1       2       1       1       2
       1       1       2       1       1       2       1       1       2       1
       1       2       1       1       2       1       1       2       1       1
       2       1       1       2       1       1       2       1       1       2
       1       1       2       1       1       2       1       1       2       1
       1       2       1       1       2       1       1       2       1       1
       2       1       1       2       1       1       2       1       1       2
       1       1       2       1       1       2       1       1       2       1
       1       2       1       1       2       1       1       2       1       1
       2       1       1       2       1       1       2       1       1       2
       1       1       2       1       1       2       1       1       2       1
       1       2       1       1       2       1       1       2       1       1
       2       1       1       2       1       1       2       1       1       2
       1       1       2       1       1       2       1       1       2       1
       1       2       1       1       2       1       1       2       1       1
       2       1       1       2       1       1       2       1       1       2
       1       1       2       1       1       2       1       1       2       1
       1       2       1       1       2       1       1       2       1       1
       2       1       1       2       1       1       2       1       1       2
       1       1       2       1       1       2       1       1       2       1
       1       2       1       1       2       1       1       2       1       1
       2       1       1       2       1       1       2       1       1       2
       1       1       2       1       1       2       1       1       2       1
       1       2       1       1       2       1       1       2       1       1
       2       1       1       2       1       1       2       1       1       2
       1       1       2       1       1       2       1       1       2       1
       1       2       1       1       2       1       1       2       1       1
       2       1       1       2       1       1       2       1       1       2
       1       1       2       1       1       2       1       1       2       1
       1       2       1       1       2       1       1       2       1       1
       2       1       1       2       1       1       2       1       1       2
       1       1       2       1       1       2       1       1       2       1
       1       2       1       1       2       1       1       2       1       1
       2       1       1       2       1       1       2       1       1       2
       1       1       2       1       1       2       1       1       2       1
       1       2       1       1       2       1       1       2       1       1
       2       1       1       2       1       1       2       1       1       2
       1       1       2       1       1       2       1       1       2       1
       1       2       1       1       2       1       1       2       1       1
       2       1       1       2       1       1       2       1       1       2
       1       1       2       1       1       2       1       1       2       1
       1       2       1       1       2       1       1       2       1       1
       2       1       1       2       1       1       2       1       1       2
       1       1       2       1       1       2       1       1       2       1
       1       2       1       1       2       1       1       2       1       1
       2       1       1       2       1       1       2       1       1       2
       1       1       2       1       1       2       1       1       2       1
       1       2       1       1       2       1       1       2       1       1
       2       1       1       2       1       1       2       1       1       2
       1       1       2       1       1       2       1       1       2       1
       1       2       1       1       2       1       1       2       1       1
       2       1       1       2       1       1       2       1       1       2
       1       1       2       1       1       2       1       1       2       1
       1       2       1       1       2       1       1       2       1       1
       2       1       1       2       1       1       2       1       1       2
       1       1       2       1       1       2       1       1       2       1
       1       2       1       1       2       1       1       2       1       1
       2       1       1       2       1       1       2       1       1       2
       1       1       2       1       1       2       1       1       2       1
       1       2       1       1       2       1       1       2       1       1
       2       1       1       2       1       1       2       1       1       2
       1       1       2       1       1       2       1       1       2       1
       1       2       1       1       2       1       1       2       1       1
       2       1       1       2       1       1       2       1       1       2
       1       1       2       1       1       2       1       1       2       1
       1       2       1       1       2       1       1       2       1       1
       2       1       1       2       1       1       2       1       1       2
       1       1       2       1       1       2       1       1       2       1
       1       2       1       1       2       1       1       2       1       1
       2       1       1       2       1       1       2       1       1       2
       1       1       2       1       1       2       1       1       2       1
       1       2       1       1       2       1       1       2       1       1
       2       1       1       2       1       1       2       1       1       2
       1       1       2       1       1       2       1       1       2       1
       1       2       1       1       2       1       1       2       1       1
       2       1       1       2       1       1       2       1       1       2
       1       1       2       1       1       2       1       1       2       1
       1       2       1       1       2       1       1       2       1       1
       2       1       1       2       1       1       2       1       1       2
       1       1       2       1       1       2       1       1       2       1
       1       2       1       1       2       1       1       2       1       1
       2       1       1       2       1       1       2       1       1       2
       1       1       2       1       1       2       1       1       2       1
       1       2       1       1       2       1       1       2       1       1
       2       1       1       2       1       1       2       1       1       2
       1       1       2       1       1       2       1       1       2       1
       1       2       1       1       2       1       1       2       1       1
       2       1       1       2       1       1       2       1       1       2
       1       1       2       1       1       2       1       1       2       1
       1       2       1       1       2       1       1       2       1       1
       2       1       1       2       1       1       2       1       1       2
       1       1       2       1       1       2       1       1       2       1
       1       2       1       1       2       1       1       2       1       1
       2       1       1       2       1       1       2       1       1       2
       1       1       2       1       1       2       1       1       2       1
       1       2       1       1       2       1       1       2       1       1
       2       1       1       2       1       1       2       1       1       2
       1       1       2       1       1       2       1       1       2       1
       1       2       1       1       2       1       1       2       1       1
       2       1       1       2       1       1       2       1       1       2
       1       1       2       1       1       2       1       1       2       1
       1       2       1       1       2       1       1       2       1       1
       2       1       1       2       1       1       2       1       1       2
       1       1       2       1       1       2       1       1       2       1
       1       2       1       1       2       1       1       2       1       1
       2       1       1       2       1       1       2       1       1       2
       1       1       2       1       1       2       1       1       2       1
       1       2       1       1       2       1       1       2       1       1
       2       1       1       2       1       1       2       1       1       2
       1       1       2       1       1       2       1       1       2       1
       1       2       1       1       2       1       1       2       1       1
       2       1       1       2       1       1       2       1       1       2
       1       1       2       1       1       2       1       1       2       1
       1       2       1       1       2       1       1       2       1       1
       2       1       1       2       1       1       2       1       1       2
       1       1       2       1       1       2       1       1       2       1
       1       2       1       1       2       1       1       2       1       1
       2       1       1       2       1       1       2       1       1       2
       1       1       2       1       1       2       1       1       2       1
       1       2       1       1       2       1       1       2       1       1
       2       1       1       2       1       1       2       1       1       2
       1       1       2       1       1       2       1       1       2       1
       1       2       1       1       2       1       1       2       1       1
       2       1       1       2       1       1       2       1       1       2
       1       1       2       1       1       2       1       1       2       1
       1       2       1       1       2       1       1       2       1       1
       2       1       1       2       1       1       2       1       1       2
       1       1       2       1       1       2       1       1       2       1
       1       2       1       1       2       1       1       2       1       1
       2       1       1       2       1       1       2       1       1       2
       1       1       2       1       1       2       1       1       2       1
       1       2       1       1       2       1       1       2       1       1
       2       1       1       2       1       1       2       1       1       2
       1       1       2       1       1       2       1       1       2       1
       1       2       1       1       2       1       1       2       1       1
       2       1       1       2       1       1       2       1       1       2
       1       1       2       1       1       2       1       1       2       1
       1       2       1       1       2       1       1       2       1       1
       2       1       1       2       1       1       2       1       1       2
       1       1       2       1       1       2       1       1       2       1
       1       2       1       1       2       1       1       2       1       1
       2       1       1       2       1       1       2       1       1       2
       1       1       2       1       1       2       1       1       2       1
       1       2       1       1       2       1       1       2       1       1
       2       1       1       2       1       1       2       1       1       2
       1       1       2       1       1       2       1       1       2       1
       1       2       1       1       2       1       1       2       1       1
       2       1       1       2       1       1       2       1       1       2
       1       1       2       1       1       2       1       1       2       1
       1       2       1       1       2       1       1       2       1       1
       2       1       1       2       1       1       2       1       1       2
       1       1       2       1       1       2       1       1       2       1
       1       2       1       1       2       1       1       2       1       1
       2       1       1       2       1       1       2       1       1       2
       1       1       2       1       1       2       1       1       2       1
       1       2       1       1       2       1       1       2       1       1
       2       1       1       2       1       1       2       1       1       2
       1       1       2       1       1       2       1       1       2       1
       1       2       1       1       2       1       1       2       1       1
       2       1       1       2       1       1       2       1       1       2
       1       1       2       1       1       2       1       1       2       1
       1       2       1       1       2       1       1       2       1       1
       2       1       1       2       1       1       2       1       1       2
       1       1       2       1       1       2       1       1       2       1
       1       2       1       1       2       1       1       2       1       1
       2       1       1       2       1       1       2       1       1       2
       1       1       2       1       1       2       1       1       2       1
       1       2       1       1       2       1       1       2       1       1
       2       1       1       2       1       1       2       1       1       2
       1       1       2       1       1       2       1       1       2       1
       1       2       1       1       2       1       1       2       1       1
       2       1       1       2       1       1       2       1       1       2
       1       1       2       1       1       2       1       1       2       1
       1       2       1       1       2       1       1       2       1       1
       2       1       1       2       1       1       2       1       1       2
       1       1       2       1       1       2       1       1       2       1
       1       2       1       1       2       1       1       2       1       1
       2       1       1       2       1       1       2       1       1       2
       1       1       2       1       1       2       1       1       2       1
       1       2       1       1       2       1       1       2       1       1
       2       1       1       2       1       1       2       1       1       2
       1       1       2       1       1       2       1       1       2       1
       1       2       1       1       2       1       1       2       1       1
       2       1       1       2       1       1       2       1       1       2
       1       1       2       1       1       2       1       1       2       1
       1       2       1       1       2       1       1       2       1       1
       2       1       1       2       1       1       2       1       1       2
       1       1       2       1       1       2       1       1       2       1
       1       2       1       1       2       1       1       2       1       1
       2       1       1       2       1       1       2       1       1       2
       1       1       2       1       1       2       1       1       2       1
       1       2       1       1       2       1       1       2       1       1
       2       1       1       2       1       1       2       1       1       2
       1       1       2       1       1       2       1       1       2       1
       1       2       1       1       2       1       1       2       1       1
       2       1       1       2       1       1       2       1       1       2
       1       1       2       1       1       2       1       1       2       1
       1       2       1       1       2       1       1       2       1       1
       2       1       1       2       1       1       2       1       1       2
       1       1       2       1       1       2       1       1       2       1
       1       2       1       1       2       1       1       2       1       1
       2       1       1       2       1       1       2       1       1       2
       1       1       2       1       1       2       1       1       2       1
       1       2       1       1       2       1       1       2       1       1
       2       1       1       2       1       1       2       1       1       2
       1       1       2       1       1       2       1       1       2       1
       1       2       1       1       2       1       1       2       1       1
       2       1       1       2       1       1       2       1       1       2
       1       1       2       1       1       2       1       1       2       1
       1       2       1       1       2       1       1       2       1       1
       2       1       1       2       1       1       2       1       1       2
       1       1       2       1       1       2       1       1       2       1
       1       2       1       1       2       1       1       2       1       1
       2       1       1       2       1       1       2       1       1       2
       1       1       2       1       1       2       1       1       2       1
       1       2       1       1       2       1       1       2       1       1
       2       1       1       2       1       1       2       1       1       2
       1       1       2       1       1       2       1       1       2       1
       1       2       1       1       2       1       1       2       1       1
       2       1       1       2       1       1       2       1       1       2
       1       1       2       1       1       2       1       1       2       1
       1       2       1       1       2       1       1       2       1       1
       2       1       1       2       1       1       2       1       1       2
       1       1       2       1       1       2       1       1       2       1
       1       2       1       1       2       1       1       2       1       1
       2       1       1       2       1       1       2       1       1       2
       1       1       2       1       1       2       1       1       2       1
       1       2       1       1       2       1       1       2       1       1
       2       1       1       2       1       1       2       1       1       2
       1       1       2       1       1       2       1       1       2       1
       1       2       1       1       2       1       1       2       1       1
       2       1       1       2       1       1       2       1       1       2
       1       1       2       1       1       2       1       1       2       1
       1       2       1       1       2       1       1       2       1       1
       2       1       1       2       1       1       2       1       1       2
       1       1       2       1       1       2       1       1       2       1
       1       2       1       1       2       1       1       2       1       1
       2       1       1       2       1       1       2       1       1       2
       1       1       2       1       1       2       1       1       2       1
       1       2       1       1       2       1       1       2       1       1
       2       1       1       2       1       1       2       1       1       2
       1       1       2       1       1       2       1       1       2       1
       1       2       1       1       2       1       1       2       1       1
       2       1       1       2       1       1       2       1       1       2
       1       1       2       1       1       2       1       1       2       1
       1       2       1       1       2       1       1       2       1       1
       2       1       1       2       1       1       2       1       1       2
       1       1       2       1       1       2       1       1       2       1
       1       2       1       1       2       1       1       2       1       1
       2       1       1       2       1       1       2       1       1       2
       1       1       2       1       1       2       1       1       2       1
       1       2       1       1       2       1       1       2       1       1
       2       1       1       2       1       1       2       1       1       2
       1       1       2       1       1       2       1       1       2       1
       1       2       1       1       2       1       1       2       1       1
       2       1       1       2       1       1       2       1       1       2
       1       1       2       1       1       2       1       1       2       1
       1       2       1       1       2       1       1       2       1       1
       2       1       1       2       1       1       2       1       1       2
       1       1       2       1       1       2       1       1       2       1
       1       2       1       1       2       1       1       2       1       1
       2       1       1       2       1       1       2       1       1       2
       1       1       2       1       1       2       1       1       2       1
       1       2       1       1       2       1       1       2       1       1
       2       1       1       2       1       1       2       1       1       2
       1       1       2       1       1       2       1       1       2       1
       1       2       1       1       2       1       1       2       1       1
       2       1       1       2       1       1       2       1       1       2
       1       1       2       1       1       2       1       1       2       1
       1       2       1       1       2       1       1       2       1       1
       2       1       1       2       1       1       2       1       1       2
       1       1       2       1       1       2       1       1       2       1
       1       2       1       1       2       1       1       2       1       1
       2       1       1       2       1       1       2       1       1       2
       1       1       2       1       1       2       1       1       2       1
       1       2       1       1       2       1       1       2       1       1
       2       1       1       2       1       1       2       1       1       2
       1       1       2       1       1       2       1       1       2       1
       1       2       1       1       2       1       1       2       1       1
       2       1       1       2       1       1       2       1       1       2
       1       1       2       1       1       2       1       1       2       1
       1       2       1       1       2       1       1       2       1       1
       2       1       1       2       1       1       2       1       1       2
       1       1       2       1       1       2       1       1       2       1
       1       2       1       1       2       1       1       2       1       1
       2       1       1       2       1       1       2       1       1       2
       1       1       2       1       1       2       1       1       2       1
       1       2       1       1       2       1       1       2       1       1
       2       1       1       2       1       1       2       1       1       2
       1       1       2       1       1       2       1       1       2       1
       1       2       1       1       2       1       1       2       1       1
       2       1       1       2       1       1       2       1       1       2
       1       1       2       1       1       2       1       1       2       1
       1       2       1       1       2       1       1       2       1       1
       2       1       1       2       1       1       2       1       1       2
       1       1       2       1       1       2       1       1       2       1
       1       2       1       1       2       1       1       2       1       1
       2       1       1       2       1       1       2       1       1       2
       1       1       2       1       1       2       1       1       2       1
       1       2       1       1       2       1       1       2       1       1
       2       1       1       2       1       1       2       1       1       2
       1       1       2       1       1       2       1       1       2       1
       1       2       1       1       2       1       1       2       1       1
       2       1       1       2       1       1       2       1       1       2
       1       1       2       1       1       2       1       1       2       1
       1       2       1       1       2       1       1       2       1       1
       2       1       1       2       1       1       2       1       1       2
       1       1       2       1       1       2       1       1       2       1
       1       2       1       1       2       1       1       2       1       1
       2       1       1       2       1       1       2       1       1       2
       1       1       2       1       1       2       1       1       2       1
       1       2       1       1       2       1       1       2       1       1
       2       1       1       2       1       1       2       1       1       2
       1       1       2       1       1       2       1       1       2       1
       1       2       1       1       2       1       1       2       1       1
       2       1       1       2       1       1       2       1       1       2
       1       1       2       1       1       2       1       1       2       1
       1       2       1       1       2       1       1       2       1       1
       2       1       1       2       1       1       2       1       1       2
       1       1       2       1       1       2       1       1       2       1
       1       2       1       1       2       1       1       2       1       1
       2       1       1       2       1       1       2       1       1       2
       1       1       2       1       1       2       1       1       2       1
       1       2       1       1       2       1       1       2       1       1
       2       1       1       2       1       1       2       1       1       2
       1       1       2       1       1       2       1       1       2       1
       1       2       1       1       2       1       1       2       1       1
       2       1       1       2       1       1       2       1       1       2
       1       1       2       1       1       2       1       1       2       1
       1       2       1       1       2       1       1       2       1       1
       2       1       1       2       1       1       2       1       1       2
       1       1       2       1       1       2       1       1       2       1
       1       2       1       1       2       1       1       2       1       1
       2       1       1       2       1       1       2       1       1       2
       1       1       2       1       1       2       1       1       2       1
       1       2       1       1       2       1       1       2       1       1
       2       1       1       2       1       1       2       1       1       2
       1       1       2       1       1       2       1       1       2       1
       1       2       1       1       2       1       1       2       1       1
       2       1       1       2       1       1       2       1       1       2
       1       1       2       1       1       2       1       1       2       1
       1       2       1       1       2       1       1       2       1       1
       2       1       1       2       1       1       2       1       1       2
       1       1       2       1       1       2       1       1       2       1
       1       2       1       1       2       1       1       2       1       1
       2       1       1       2       1       1       2       1       1       2
       1       1       2       1       1       2       1       1       2       1
       1       2       1       1       2       1       1       2       1       1
       2       1       1       2       1       1       2       1       1       2
       1       1       2       1       1       2       1       1       2       1
       1       2       1       1       2       1       1       2       1       1
       2       1       1       2       1       1       2       1       1       2
       1       1       2       1       1       2       1       1       2       1
       1       2       1       1       2       1       1       2       1       1
       2       1       1       2       1       1       2       1       1       2
       1       1       2       1       1       2       1       1       2       1
       1       2       1       1       2       1       1       2       1       1
       2       1       1       2       1       1       2       1       1       2
       1       1       2       1       1       2       1       1       2       1
       1       2       1       1       2       1       1       2       1       1
       2       1       1       2       1       1       2       1       1       2
       1       1       2       1       1       2       1       1       2       1
       1       2       1       1       2       1       1       2       1       1
       2       1       1       2       1       1       2       1       1       2
       1       1       2       1       1       2       1       1       2       1
       1       2       1       1       2       1       1       2       1       1
       2       1       1       2       1       1       2       1       1       2
       1       1       2       1       1       2       1       1       2       1
       1       2       1       1       2       1       1       2       1       1
       2       1       1       2       1       1       2       1       1       2
       1       1       2       1       1       2       1       1       2       1
       1       2       1       1       2       1       1       2       1       1
       2       1       1       2       1       1       2       1       1       2
       1       1       2       1       1       2       1       1       2       1
       1       2       1       1       2       1       1       2       1       1
       2       1       1       2       1       1       2       1       1       2
       1       1       2       1       1       2       1       1       2       1
       1       2       1       1       2       1       1       2       1       1
       2       1       1       2       1       1       2       1       1       2
       1       1       2       1       1       2       1       1       2       1
       1       2       1       1       2       1       1       2       1       1
       2       1       1       2       1       1       2       1       1       2
       1       1       2       1       1       2       1       1       2       1
       1       2       1       1       2       1       1       2       1       1
       2       1       1       2       1       1       2       1       1       2
       1       1       2       1       1       2       1       1       2       1
       1       2       1       1       2       1       1       2       1       1
       2       1       1       2       1       1       2       1       1       2
       1       1       2       1       1       2       1       1       2       1
       1       2       1       1       2       1       1       2       1       1
       2       1       1       2       1       1       2       1       1       2
       1       1       2       1       1       2       1       1       2       1
       1       2       1       1       2       1       1       2       1       1
       2       1       1       2       1       1       2       1       1       2
       1       1       2       1       1       2       1       1       2       1
       1       2       1       1       2       1       1       2       1       1
       2       1       1       2       1       1       2       1       1       2
       1       1       2       1       1       2       1       1       2       1
       1       2       1       1       2       1       1       2       1       1
       2       1       1       2       1       1       2       1       1       2
       1       1       2       1       1       2       1       1       2       1
       1       2       1       1       2       1       1       2       1       1
       2       1       1       2       1       1       2       1       1       2
       1       1       2       1       1       2       1       1       2       1
       1       2       1       1       2       1       1       2       1       1
       2       1       1       2       1       1       2       1       1       2
       1       1       2       1       1       2       1       1       2       1
       1       2       1       1       2       1       1       2       1       1
       2       1       1       2       1       1       2       1       1       2
       1       1       2       1       1       2       1       1       2       1
       1       2       1       1       2       1       1       2       1       1
       2       1       1       2       1       1       2       1       1       2
       1       1       2       1       1       2       1       1       2       1
       1       2       1       1       2       1       1       2       1       1
       2       1       1       2       1       1       2       1       1       2
       1       1       2       1       1       2       1       1       2       1
       1       2       1       1       2       1       1       2       1       1
       2       1       1       2       1       1       2       1       1       2
       1       1       2       1       1       2       1       1       2       1
       1       2       1       1       2       1       1       2       1       1
       2       1       1       2       1       1       2       1       1       2
       1       1       2       1       1       2       1       1       2       1
       1       2       1       1       2       1       1       2       1       1
       2       1       1       2       1       1       2       1       1       2
       1       1       2       1       1       2       1       1       2       1
       1       2       1       1       2       1       1       2       1       1
       2       1       1       2       1       1       2       1       1       2
       1       1       2       1       1       2       1       1       2       1
       1       2       1       1       2       1       1       2       1       1
       2       1       1       2       1       1       2       1       1       2
       1       1       2       1       1       2       1       1       2       1
       1       2       1       1       2       1       1       2       1       1
       2       1       1       2       1       1       2       1       1       2
       1       1       2       1       1       2       1       1       2       1
       1       2       1       1       2       1       1       2       1       1
       2       1       1       2       1       1       2       1       1       2
       1       1       2       1       1       2       1       1       2       1
       1       2       1       1       2       1       1       2       1       1
       2       1       1       2       1       1       2       1       1       2
       1       1       2       1       1       2       1       1       2       1
       1       2       1       1       2       1       1       2       1       1
       2       1       1       2       1       1       2       1       1       2
       1       1       2       1       1       2       1       1       2       1
       1       2       1       1       2       1       1       2       1       1
       2       1       1       2       1       1       2       1       1       2
       1       1       2       1       1       2       1       1       2       1
       1       2       1       1       2       1       1       2       1       1
       2       1       1       2       1       1       2       1       1       2
       1       1       2       1       1       2       1       1       2       1
       1       2       1       1       2       1       1       2       1       1
       2       1       1       2       1       1       2       1       1       2
       1       1       2       1       1       2       1       1       2       1
       1       2       1       1       2       1       1       2       1       1
       2       1       1       2       1       1       2       1       1       2
       1       1       2       1       1       2       1       1       2       1
       1       2       1       1       2       1       1       2       1       1
       2       1       1       2       1       1       2       1       1       2
       1       1       2       1       1       2       1       1       2       1
       1       2       1       1       2       1       1       2       1       1
       2       1       1       2       1       1       2       1       1       2
       1       1       2       1       1       2       1       1       2       1
       1       2       1       1       2       1       1       2       1       1
       2       1       1       2       1       1       2       1       1       2
       1       1       2       1       1       2       1       1       2       1
       1       2       1       1       2       1       1       2       1       1
       2       1       1       2       1       1       2       1       1       2
       1       1       2       1       1       2       1       1       2       1
       1       2       1       1       2       1       1       2       1       1
       2       1       1       2       1       1       2       1       1       2
       1       1       2       1       1       2       1       1       2       1
       1       2       1       1       2       1       1       2       1       1
       2       1       1       2       1       1       2       1       1       2
       1       1       2       1       1       2       1       1       2       1
       1       2       1       1       2       1       1       2       1       1
       2       1       1       2       1       1       2       1       1       2
       1       1       2       1       1       2       1       1       2       1
       1       2       1       1       2       1       1       2       1       1
       2       1       1       2       1       1       2       1       1       2
       1       1       2       1       1       2       1       1       2       1
       1       2       1       1       2       1       1       2       1       1
       2       1       1       2       1       1       2       1       1       2
       1       1       2       1       1       2       1       1       2       1
       1       2       1       1       2       1       1       2       1       1
       2       1       1       2       1       1       2       1       1       2
       1       1       2       1       1       2       1       1       2       1
       1       2       1       1       2       1       1       2       1       1
       2       1       1       2       1       1       2       1       1       2
       1       1       2       1       1       2       1       1       2       1
       1       2       1       1       2       1       1       2       1       1
       2       1       1       2       1       1       2       1       1       2
       1       1       2       1       1       2       1       1       2       1
       1       2       1       1       2       1       1       2       1       1
       2       1       1       2       1       1       2       1       1       2
       1       1       2       1       1       2       1       1       2       1
       1       2       1       1       2       1       1       2       1       1
       2       1       1       2       1       1       2       1       1       2
       1       1       2       1       1       2       1       1       2       1
       1       2       1       1       2       1       1       2       1       1
       2       1       1       2       1       1       2       1       1       2
       1       1       2       1       1       2       1       1       2       1
       1       2       1       1       2       1       1       2       1       1
       2       1       1       2       1       1       2       1       1       2
       1       1       2       1       1       2       1       1       2       1
       1       2       1       1       2       1       1       2       1       1
       2       1       1       2       1       1       2       1       1       2
       1       1       2       1       1       2       1       1       2       1
       1       2       1       1       2       1       1       2       1       1
       2       1       1       2       1       1       2       1       1       2
       1       1       2       1       1       2       1       1       2       1
       1       2       1       1       2       1       1       2       1       1
       2       1       1       2       1       1       2       1       1       2
       1       1       2       1       1       2       1       1       2       1
       1       2       1       1       2       1       1       2       1       1
       2       1       1       2       1       1       2       1       1       2
       1       1       2       1       1       2       1       1       2       1
       1       2       1       1       2       1       1       2       1       1
       2       1       1       2       1       1       2       1       1       2
       1       1       2       1       1       2       1       1       2       1
       1       2       1       1       2       1       1       2       1       1
       2       1       1       2       1       1       2       1       1       2
       1       1       2       1       1       2       1       1       2       1
       1       2       1       1       2       1       1       2       1       1
       2       1       1       2       1       1       2       1       1       2
       1       1       2       1       1       2       1       1       2       1
       1       2       1       1       2       1       1       2       1       1
       2       1       1       2       1       1       2       1       1       2
       1       1       2       1       1       2       1       1       2       1
       1       2       1       1       2       1       1       2       1       1
       2       1       1       2       1       1       2       1       1       2
       1       1       2       1       1       2       1       1       2       1
       1       2       1       1       2       1       1       2       1       1
       2       1       1       2       1       1       2       1       1       2
       1       1       2       1       1       2       1       1       2       1
       1       2       1       1       2       1       1       2       1       1
       2       1       1       2       1       1       2       1       1       2
       1       1       2       1       1       2       1       1       2       1
       1       2       1       1       2       1       1       2       1       1
       2       1       1       2       1       1       2       1       1       2
       1       1       2       1       1       2       1       1       2       1
       1       2       1       1       2       1       1       2       1       1
       2       1       1       2       1       1       2       1       1       2
       1       1       2       1       1       2       1       1       2       1
       1       2       1       1       2       1       1       2       1       1
       2       1       1       2       1       1       2       1       1       2
       1       1       2       1       1       2       1       1       2       1
       1       2       1       1       2       1       1       2       1       1
       2       1       1       2       1       1       2       1       1       2
       1       1       2       1       1       2       1       1       2       1
       1       2       1       1       2       1       1       2       1       1
       2       1       1       2       1       1       2       1       1       2
       1       1       2       1       1       2       1       1       2       1
       1       2       1       1       2       1       1       2       1       1
       2       1       1       2       1       1       2       1       1       2
       1       1       2       1       1       2       1       1       2       1
       1       2       1       1       2       1       1       2       1       1
       2       1       1       2       1       1       2       1       1       2
       1       1       2       1       1       2       1       1       2       1
       1       2       1       1       2       1       1       2       1       1
       2       1       1       2       1       1       2       1       1       2
       1       1       2       1       1       2       1       1       2       1
       1       2       1       1       2       1       1       2       1       1
       2       1       1       2       1       1       2       1       1       2
       1       1       2       1       1       2       1       1       2       1
       1       2       1       1       2       1       1       2       1       1
       2       1       1       2       1       1       2       1       1       2
       1       1       2       1       1       2       1       1       2       1
       1       2       1       1       2       1       1       2       1       1
       2       1       1       2       1       1       2       1       1       2
       1       1       2       1       1       2       1       1       2       1
       1       2       1       1       2       1       1       2       1       1
       2       1       1       2       1       1       2       1       1       2
       1       1       2       1       1       2       1       1       2       1
       1       2       1       1       2       1       1       2       1       1
       2       1       1       2       1       1       2       1       1       2
       1       1       2       1       1       2       1       1       2       1
       1       2       1       1       2       1       1       2       1       1
       2       1       1       2       1       1       2       1       1       2
       1       1       2       1       1       2       1       1       2       1
       1       2       1       1       2       1       1       2       1       1
       2       1       1       2       1       1       2       1       1       2
       1       1       2       1       1       2       1       1       2       1
       1       2       1       1       2       1       1       2       1       1
       2       1       1       2       1       1       2       1       1       2
       1       1       2       1       1       2       1       1       2       1
       1       2       1       1       2       1       1       2       1       1
       2       1       1       2       1       1       2       1       1       2
       1       1       2       1       1       2       1       1       2       1
       1       2       1       1       2       1       1       2       1       1
       2       1       1       2       1       1       2       1       1       2
       1       1       2       1       1       2       1       1       2       1
       1       2       1       1       2       1       1       2       1       1
       2       1       1       2       1       1       2       1       1       2
       1       1       2       1       1       2       1       1       2       1
       1       2       1       1       2       1       1       2       1       1
       2       1       1       2       1       1       2       1       1       2
       1       1       2       1       1       2       1       1       2       1
       1       2       1       1       2       1       1       2       1       1
       2       1       1       2       1       1       2       1       1       2
       1       1       2       1       1       2       1       1       2       1
       1       2       1       1       2       1       1       2       1       1
       2       1       1       2       1       1       2       1       1       2
       1       1       2       1       1       2       1       1       2       1
       1       2       1       1       2       1       1       2       1       1
       2       1       1       2       1       1       2       1       1       2
       1       1       2       1       1       2       1       1       2       1
       1       2       1       1       2       1       1       2       1       1
       2       1       1       2       1       1       2       1       1       2
       1       1       2       1       1       2       1       1       2       1
       1       2       1       1       2       1       1       2       1       1
       2       1       1       2       1       1       2       1       1       2
       1       1       2       1       1       2       1       1       2       1
       1       2       1       1       2       1       1       2       1       1
       2       1       1       2       1       1       2       1       1       2
       1       1       2       1       1       2       1       1       2       1
       1       2       1       1       2       1       1       2       1       1
       2       1       1       2       1       1       2       1       1       2
       1       1       2       1       1       2       1       1       2       1
       1       2       1       1       2       1       1       2       1       1
       2       1       1       2       1       1       2       1       1       2
       1       1       2       1       1       2       1       1       2       1
       1       2       1       1       2       1       1       2       1       1
       2       1       1       2       1       1       2       1       1       2
       1       1       2       1       1       2       1       1       2       1
       1       2       1       1       2       1       1       2       1       1
       2       1       1       2       1       1       2       1       1       2
       1       1       2       1       1       2       1       1       2       1
       1       2       1       1       2       1       1       2       1       1
       2       1       1       2       1       1       2       1       1       2
       1       1       2       1       1       2       1       1       2       1
       1       2       1       1       2       1       1       2       1       1
       2       1       1       2       1       1       2       1       1       2
       1       1       2       1       1       2       1       1       2       1
       1       2       1       1       2       1       1       2       1       1
       2       1       1       2       1       1       2       1       1       2
       1       1       2       1       1       2       1       1       2       1
       1       2       1       1       2       1       1       2       1       1
       2       1       1       2       1       1       2       1       1       2
       1       1       2       1       1       2       1       1       2       1
       1       2       1       1       2       1       1       2       1       1
       2       1       1       2       1       1       2       1       1       2
       1       1       2       1       1       2       1       1       2       1
       1       2       1       1       2       1       1       2       1       1
       2       1       1       2       1       1       2       1       1       2
       1       1       2       1       1       2       1       1       2       1
       1       2       1       1       2       1       1       2       1       1
       2       1       1       2       1       1       2       1       1       2
       1       1       2       1       1       2       1       1       2       1
       1       2       1       1       2       1       1       2       1       1
       2       1       1       2       1       1       2       1       1       2
       1       1       2       1       1       2       1       1       2       1
       1       2       1       1       2       1       1       2       1       1
       2       1       1       2       1       1       2       1       1       2
       1       1       2       1       1       2       1       1       2       1
       1       2       1       1       2       1       1       2       1       1
       2       1       1       2       1       1       2       1       1       2
       1       1       2       1       1       2       1       1       2       1
       1       2       1       1       2       1       1       2       1       1
       2       1       1       2       1       1       2       1       1       2
       1       1       2       1       1       2       1       1       2       1
       1       2       1       1       2       1       1       2       1       1
       2       1       1       2       1       1       2       1       1       2
       1       1       2       1       1       2       1       1       2       1
       1       2       1       1       2       1       1       2       1       1
       2       1       1       2       1       1       2       1       1       2
       1       1       2       1       1       2       1       1       2       1
       1       2       1       1       2       1       1       2       1       1
       2       1       1       2       1       1       2       1       1       2
       1       1       2       1       1       2       1       1       2       1
       1       2       1       1       2       1       1       2       1       1
       2       1       1       2       1       1       2       1       1       2
       1       1       2       1       1       2       1       1       2       1
       1       2       1       1       2       1       1       2       1       1
       2       1       1       2       1       1       2       1       1       2
       1       1       2       1       1       2       1       1       2       1
       1       2       1       1       2       1       1       2       1       1
       2       1       1       2       1       1       2       1       1       2
       1       1       2       1       1       2       1       1       2       1
       1       2       1       1       2       1       1       2       1       1
       2       1       1       2       1       1       2       1       1       2
       1       1       2       1       1       2       1       1       2       1
       1       2       1       1       2       1       1       2       1       1
       2       1       1       2       1       1       2       1       1       2
       1       1       2       1       1       2       1       1       2       1
       1       2       1       1       2       1       1       2       1       1
       2       1       1       2       1       1       2       1       1       2
       1       1       2       1       1       2       1       1       2       1
       1       2       1       1       2       1       1       2       1       1
       2       1       1       2       1       1       2       1       1       2
       1       1       2       1       1       2       1       1       2       1
       1       2       1       1       2       1       1       2       1       1
       2       1       1       2       1       1       2       1       1       2
       1       1       2       1       1       2       1       1       2       1
       1       2       1       1       2       1       1       2       1       1
       2       1       1       2       1       1       2       1       1       2
       1       1       2       1       1       2       1       1       2       1
       1       2       1       1       2       1       1       2       1       1
       2       1       1       2       1       1       2       1       1       2
       1       1       2       1       1       2       1       1       2       1
       1       2       1       1       2       1       1       2       1       1
       2       1       1       2       1       1       2       1       1       2
       1       1       2       1       1       2       1       1       2       1
       1       2       1       1       2       1       1       2       1       1
       2       1       1       2       1       1       2       1       1       2
       1       1       2       1       1       2       1       1       2       1
       1       2       1       1       2       1       1       2       1       1
       2       1       1       2       1       1       2       1       1       2
       1       1       2       1       1       2       1       1       2       1
       1       2       1       1       2       1       1       2       1       1
       2       1       1       2       1       1       2       1       1       2
       1       1       2       1       1       2       1       1       2       1
       1       2       1       1       2       1       1       2       1       1
       2       1       1       2       1       1       2       1       1       2
       1       1       2       1       1       2       1       1       2       1
       1       2       1       1       2       1       1       2       1       1
       2       1       1       2       1       1       2       1       1       2
       1       1       2       1       1       2       1       1       2       1
       1       2       1       1       2       1       1       2       1       1
       2       1       1       2       1       1       2       1       1       2
       1       1       2       1       1       2       1       1       2       1
       1       2       1       1       2       1       1       2       1       1
       2       1       1       2       1       1       2       1       1       2
       1       1       2       1       1       2       1       1       2       1
       1       2       1       1       2       1       1       2       1       1
       2       1       1       2       1       1       2       1       1       2
       1       1       2       1       1       2       1       1       2       1
       1       2       1       1       2       1       1       2       1       1
       2       1       1       2       1       1       2       1       1       2
       1       1       2       1       1       2       1       1       2       1
       1       2       1       1       2       1       1       2       1       1
       2       1       1       2       1       1       2       1       1       2
       1       1       2       1       1       2       1       1       2       1
       1       2       1       1       2       1       1       2       1       1
       2       1       1       2       1       1       2       1       1       2
       1       1       2       1       1       2       1       1       2       1
       1       2       1       1       2       1       1       2       1       1
       2       1       1       2       1       1       2       1       1       2
       1       1       2       1       1       2       1       1       2       1
       1       2       1       1       2       1       1       2       1       1
       2       1       1       2       1       1       2       1       1       2
       1       1       2       1       1       2       1       1       2       1
       1       2       1       1       2       1       1       2       1       1
       2       1       1       2       1       1       2       1       1       2
       1       1       2       1       1       2       1       1       2       1
       1       2       1       1       2       1       1       2       1       1
       2       1       1       2       1       1       2       1       1       2
       1       1       2       1       1       2       1       1       2       1
       1       2       1       1       2       1       1       2       1       1
       2       1       1       2       1       1       2       1       1       2
       1       1       2       1       1       2       1       1       2       1
       1       2       1       1       2       1       1       2       1       1
       2       1       1       2       1       1       2       1       1       2
       1       1       2       1       1       2       1       1       2       1
       1       2       1       1       2       1       1       2       1       1
       2       1       1       2       1       1       2       1       1       2
       1       1       2       1       1       2       1       1       2       1
       1       2       1       1       2       1       1       2       1       1
       2       1       1       2       1       1       2       1       1       2
       1       1       2       1       1       2       1       1       2       1
       1       2       1       1       2       1       1       2       1       1
       2       1       1       2       1       1       2       1       1       2
       1       1       2       1       1       2       1       1       2       1
       1       2       1       1       2       1       1       2       1       1
       2       1       1       2       1       1       2       1       1       2
       1       1       2       1       1       2       1       1       2       1
       1       2       1       1       2       1       1       2       1       1
       2       1       1       2       1       1       2       1       1       2
       1       1       2       1       1       2       1       1       2       1
       1       2       1       1       2       1       1       2       1       1
       2       1       1       2       1       1       2       1       1       2
       1       1       2       1       1       2       1       1       2       1
       1       2       1       1       2       1       1       2       1       1
       2       1       1       2       1       1       2       1       1       2
       1       1       2       1       1       2       1       1       2       1
       1       2       1       1       2       1       1       2       1       1
       2       1       1       2       1       1       2       1       1       2
       1       1       2       1       1       2       1       1       2       1
       1       2       1       1       2       1       1       2       1       1
       2       1       1       2       1       1       2       1       1       2
       1       1       2       1       1       2       1       1       2       1
       1       2       1       1       2       1       1       2       1       1
       2       1       1       2       1       1       2       1       1       2
       1       1       2       1       1       2       1       1       2       1
       1       2       1       1       2       1       1       2       1       1
       2       1       1       2       1       1       2       1       1       2
       1       1       2       1       1       2       1       1       2       1
       1       2       1       1       2       1       1       2       1       1
       2       1       1       2       1       1       2       1       1       2
       1       1       2       1       1       2       1       1       2       1
       1       2       1       1       2       1       1       2       1       1
       2       1       1       2       1       1       2       1       1       2
       1       1       2       1       1       2       1       1       2       1
       1       2       1       1       2       1       1       2       1       1
       2       1       1       2       1       1       2       1       1       2
       1       1       2       1       1       2       1       1       2       1
       1       2       1       1       2       1       1       2       1       1
       2       1       1       2       1       1       2       1       1       2
       1       1       2       1       1       2       1       1       2       1
       1       2       1       1       2       1       1       2       1       1
       2       1       1       2       1       1       2       1       1       2
       1       1       2       1       1       2       1       1       2       1
       1       2       1       1       2       1       1       2       1       1
       2       1       1       2       1       1       2       1       1       2
       1       1       2       1       1       2       1       1       2       1
       1       2       1       1       2       1       1       2       1       1
       2       1       1       2       1       1       2       1       1       2
       1       1       2       1       1       2       1       1       2       1
       1       2       1       1       2       1       1       2       1       1
       2       1       1       2       1       1       2       1       1       2
       1       1       2       1       1       2       1       1       2       1
       1       2       1       1       2       1       1       2       1       1
       2       1       1       2       1       1       2       1       1       2
       1       1       2       1       1       2       1       1       2       1
       1       2       1       1       2       1       1       2       1       1
       2       1       1       2       1       1       2       1       1       2
       1       1       2       1       1       2       1       1       2       1
       1       2       1       1       2       1       1       2       1       1
       2       1       1       2       1       1       2       1       1       2
       1       1       2       1       1       2       1       1       2       1
       1       2       1       1       2       1       1       2       1       1
       2       1       1       2       1       1       2       1       1       2
       1       1       2       1       1       2       1       1       2       1
       1       2       1       1       2       1       1       2       1       1
       2       1       1       2       1       1       2       1       1       2
       1       1       2       1       1       2       1       1       2       1
       1       2       1       1       2       1       1       2       1       1
       2       1       1       2       1       1       2       1       1       2
       1       1       2       1       1       2       1       1       2       1
       1       2       1       1       2       1       1       2       1       1
       2       1       1       2       1       1       2       1       1       2
       1       1       2       1       1       2       1       1       2       1
       1       2       1       1       2       1       1       2       1       1
       2       1       1       2       1       1       2       1       1       2
       1       1       2       1       1       2       1       1       2       1
       1       2       1       1       2       1       1       2       1       1
       2       1       1       2       1       1       2       1       1       2
       1       1       2       1       1       2       1       1       2       1
       1       2       1       1       2       1       1       2       1       1
       2       1       1       2       1       1       2       1       1       2
       1       1       2       1       1       2       1       1       2       1
       1       2       1       1       2       1       1       2       1       1
       2       1       1       2       1       1       2       1       1       2
       1       1       2       1       1       2       1       1       2       1
       1       2       1       1       2       1       1       2       1       1
       2       1       1       2       1       1       2       1       1       2
       1       1       2       1       1       2       1       1       2       1
       1       2       1       1       2       1       1       2       1       1
       2       1       1       2       1       1       2       1       1       2
       1       1       2       1       1       2       1       1       2       1
       1       2       1       1       2       1       1       2       1       1
       2       1       1       2       1       1       2       1       1       2
       1       1       2       1       1       2       1       1       2       1
       1       2       1       1       2       1       1       2       1       1
       2       1       1       2       1       1       2       1       1       2
       1       1       2       1       1       2       1       1       2       1
       1       2       1       1       2       1       1       2       1       1
       2       1       1       2       1       1       2       1       1       2
       1       1       2       1       1       2       1       1       2       1
       1       2       1       1       2       1       1       2       1       1
       2       1       1       2       1       1       2       1       1       2
       1       1       2       1       1       2       1       1       2       1
       1       2       1       1       2       1       1       2       1       1
       2       1       1       2       1       1       2       1       1       2
       1       1       2       1       1       2       1       1       2       1
       1       2       1       1       2       1       1       2       1       1
       2       1       1       2       1       1       2       1       1       2
       1       1       2       1       1       2       1       1       2       1
       1       2       1       1       2       1       1       2       1       1
       2       1       1       2       1       1       2       1       1       2
       1       1       2       1       1       2       1       1       2       1
       1       2       1       1       2       1       1       2       1       1
       2       1       1       2       1       1       2       1       1       2
       1       1       2       1       1       2       1       1       2       1
       1       2       1       1       2       1       1       2       1       1
       2       1       1       2       1       1       2       1       1       2
       1       1       2       1       1       2       1       1       2       1
       1       2       1       1       2       1       1       2       1       1
       2       1       1       2       1       1       2       1       1       2
       1       1       2       1       1       2       1       1       2       1
       1       2       1       1       2       1       1       2       1       1
       2       1       1       2       1       1       2       1       1       2
       1       1       2       1       1       2       1       1       2       1
       1       2       1       1       2       1       1       2       1       1
       2       1       1       2       1       1       2       1       1       2
       1       1       2       1       1       2       1       1       2       1
       1       2       1       1       2       1       1       2       1       1
       2       1       1       2       1       1       2       1       1       2
       1       1       2       1       1       2       1       1       2       1
       1       2       1       1       2       1       1       2       1       1
       2       1       1       2       1       1       2       1       1       2
       1       1       2       1       1       2       1       1       2       1
       1       2       1       1       2       1       1       2       1       1
       2       1       1       2       1       1       2       1       1       2
       1       1       2       1       1       2       1       1       2       1
       1       2       1       1       2       1       1       2       1       1
       2       1       1       2       1       1       2       1       1       2
       1       1       2       1       1       2       1       1       2       1
       1       2       1       1       2       1       1       2       1       1
       2       1       1       2       1       1       2       1       1       2
       1       1       2       1       1       2       1       1       2       1
       1       2       1       1       2       1       1       2       1       1
       2       1       1       2       1       1       2       1       1       2
       1       1       2       1       1       2       1       1       2       1
       1       2       1       1       2       1       1       2       1       1
       2       1       1       2       1       1       2       1       1       2
       1       1       2       1       1       2       1       1       2       1
       1       2       1       1       2       1       1       2       1       1
       2       1       1       2       1       1       2       1       1       2
       1       1       2       1       1       2       1       1       2       1
       1       2       1       1       2       1       1       2       1       1
       2       1       1       2       1       1       2       1       1       2
       1       1       2       1       1       2       1       1       2       1
       1       2       1       1       2       1       1       2       1       1
       2       1       1       2       1       1       2       1       1       2
       1       1       2       1       1       2       1       1       2       1
       1       2       1       1       2       1       1       2       1       1
       2       1       1       2       1       1       2       1       1       2
       1       1       2       1       1       2       1       1       2       1
       1       2       1       1       2       1       1       2       1       1
       2       1       1       2       1       1       2       1       1       2
       1       1       2       1       1       2       1       1       2       1
       1       2       1       1       2       1       1       2       1       1
       2       1       1       2       1       1       2       1       1       2
       1       1       2       1       1       2       1       1       2       1
       1       2       1       1       2       1       1       2       1       1
       2       1       1       2       1       1       2       1       1       2
       1       1       2       1       1       2       1       1       2       1
       1       2       1       1       2       1       1       2       1       1
       2       1       1       2       1       1       2       1       1       2
       1       1       2       1       1       2       1       1       2       1
       1       2       1       1       2       1       1       2       1       1
       2       1       1       2       1       1       2       1       1       2
       1       1       2       1       1       2       1       1       2       1
       1       2       1       1       2       1       1       2       1       1
       2       1       1       2       1       1       2       1       1       2
       1       1       2       1       1       2       1       1       2       1
       1       2       1       1       2       1       1       2       1       1
       2       1       1       2       1       1       2       1       1       2
       1       1       2       1       1       2       1       1       2       1
       1       2       1       1       2       1       1       2       1       1
       2       1       1       2       1       1       2       1       1       2
       1       1       2       1       1       2       1       1       2       1
       1       2       1       1       2       1       1       2       1       1
       2       1       1       2       1       1       2       1       1       2
       1       1       2       1       1       2       1       1       2       1
       1       2       1       1       2       1       1       2       1       1
       2       1       1       2       1       1       2       1       1       2
       1       1       2       1       1       2       1       1       2       1
       1       2       1       1       2       1       1       2       1       1
       2       1       1       2       1       1       2       1       1       2
       1       1       2       1       1       2       1       1       2       1
       1       2       1       1       2       1       1       2       1       1
       2       1       1       2       1       1       2       1       1       2
       1       1       2       1       1       2       1       1       2       1
       1       2       1       1       2       1       1       2       1       1
       2       1       1       2       1       1       2       1       1       2
       1       1       2       1       1       2       1       1       2       1
       1       2       1       1       2       1       1       2       1       1
       2       1       1       2       1       1       2       1       1       2
       1       1       2       1       1       2       1       1       2       1
       1       2       1       1       2       1       1       2       1       1
       2       1       1       2       1       1       2       1       1       2
       1       1       2       1       1       2       1       1       2       1
       1       2       1       1       2       1       1       2       1       1
       2       1       1       2       1       1       2       1       1       2
       1       1       2       1       1       2       1       1       2       1
       1       2       1       1       2       1       1       2       1       1
       2       1       1       2       1       1       2       1       1       2
       1       1       2       1       1       2       1       1       2       1
       1       2       1       1       2       1       1       2       1       1
       2       1       1       2       1       1       2       1       1       2
       1       1       2       1       1       2       1       1       2       1
       1       2       1       1       2       1       1       2       1       1
       2       1       1       2       1       1       2       1       1       2
       1       1       2       1       1       2       1       1       2       1
       1       2       1       1       2       1       1       2       1       1
       2       1       1       2       1       1       2       1       1       2
       1       1       2       1       1       2       1       1       2       1
       1       2       1       1       2       1       1       2       1       1
       2       1       1       2       1       1       2       1       1       2
       1       1       2       1       1       2       1       1       2       1
       1       2       1       1       2       1       1       2       1       1
       2       1       1       2       1       1       2       1       1       2
       1       1       2       1       1       2       1       1       2       1
       1       2       1       1       2       1       1       2       1       1
       2       1       1       2       1       1       2       1       1       2
       1       1       2       1       1       2       1       1       2       1
       1       2       1       1       2       1       1       2       1       1
       2       1       1       2       1       1       2       1       1       2
       1       1       2       1       1       2       1       1       2       1
       1       2       1       1       2       1       1       2       1       1
       2       1       1       2       1       1       2       1       1       2
       1       1       2       1       1       2       1       1       2       1
       1       2       1       1       2       1       1       2       1       1
       2       1       1       2       1       1       2       1       1       2
       1       1       2       1       1       2       1       1       2       1
       1       2       1       1       2       1       1       2       1       1
       2       1       1       2       1       1       2       1       1       2
       1       1       2       1       1       2       1       1       2       1
       1       2       1       1       2       1       1       2       1       1
       2       1       1       2       1       1       2       1       1       2
       1       1       2       1       1       2       1       1       2       1
       1       2       1       1       2       1       1       2       1       1
       2       1       1       2       1       1       2       1       1       2
       1       1       2       1       1       2       1       1       2       1
       1       2       1       1       2       1       1       2       1       1
       2       1       1       2       1       1       2       1       1       2
       1       1       2       1       1       2       1       1       2       1
       1       2       1       1       2       1       1       2       1       1
       2       1       1       2       1       1       2       1       1       2
       1       1       2       1       1       2       1       1       2       1
       1       2       1       1       2       1       1       2       1       1
       2       1       1       2       1       1       2       1       1       2
       1       1       2       1       1       2       1       1       2       1
       1       2       1       1       2       1       1       2       1       1
       2       1       1       2       1       1       2       1       1       2
       1       1       2       1       1       2       1       1       2       1
       1       2       1       1       2       1       1       2       1       1
       2       1       1       2       1       1       2       1       1       2
       1       1       2       1       1       2       1       1       2       1
       1       2       1       1       2       1       1       2       1       1
       2       1       1       2       1       1       2       1       1       2
       1       1       2       1       1       2       1       1       2       1
       1       2       1       1       2       1       1       2       1       1
       2       1       1       2       1       1       2       1       1       2
       1       1       2       1       1       2       1       1       2       1
       1       2       1       1       2       1       1       2       1       1
       2       1       1       2       1       1       2       1       1       2
       1       1       2       1       1       2       1       1       2       1
       1       2       1       1       2       1       1       2       1       1
       2       1       1       2       1       1       2       1       1       2
       1       1       2       1       1       2       1       1       2       1
       1       2       1       1       2       1       1       2       1       1
       2       1       1       2       1       1       2       1       1       2
       1       1       2       1       1       2       1       1       2       1
       1       2       1       1       2       1       1       2       1       1
       2       1       1       2       1       1       2       1       1       2
       1       1       2       1       1       2       1       1       2       1
       1       2       1       1       2       1       1       2       1       1
       2       1       1       2       1       1       2       1       1       2
       1       1       2       1       1       2       1       1       2       1
       1       2       1       1       2       1       1       2       1       1
       2       1       1       2       1       1       2       1       1       2
       1       1       2       1       1       2       1       1       2       1
       1       2       1       1       2       1       1       2       1       1
       2       1       1       2       1       1       2       1       1       2
       1       1       2       1       1       2       1       1       2       1
       1       2       1       1       2       1       1       2       1       1
       2       1       1       2       1       1       2       1       1       2
       1       1       2       1       1       2       1       1       2       1
       1       2       1       1       2       1       1       2       1       1
       2       1       1       2       1       1       2       1       1       2
       1       1       2       1       1       2       1       1       2       1
       1       2       1       1       2       1       1       2       1       1
       2       1       1       2       1       1       2       1       1       2
       1       1       2       1       1       2       1       1       2       1
       1       2       1       1       2       1       1       2       1       1
       2       1       1       2       1       1       2       1       1       2
       1       1       2       1       1       2       1       1       2       1
       1       2       1       1       2       1       1       2       1       1
       2       1       1       2       1       1       2       1       1       2
       1       1       2       1       1       2       1       1       2       1
       1       2       1       1       2       1       1       2       1       1
       2       1       1       2       1       1       2       1       1       2
       1       1       2       1       1       2       1       1       2       1
       1       2       1       1       2       1       1       2       1       1
       2       1       1       2       1       1       2       1       1       2
       1       1       2       1       1       2       1       1       2       1
       1       2       1       1       2       1       1       2       1       1
       2       1       1       2       1       1       2       1       1       2
       1       1       2       1       1       2       1       1       2       1
       1       2       1       1       2       1       1       2       1       1
       2       1       1       2       1       1       2       1       1       2
       1       1       2       1       1       2       1       1       2       1
       1       2       1       1       2       1       1       2       1       1
       2       1       1       2       1       1       2       1       1       2
       1       1       2       1       1       2       1       1       2       1
       1       2       1       1       2       1       1       2       1       1
       2       1       1       2       1       1       2       1       1       2
       1       1       2       1       1       2       1       1       2       1
       1       2       1       1       2       1       1       2       1       1
       2       1       1       2       1       1       2       1       1       2
       1       1       2       1       1       2       1       1       2       1
       1       2       1       1       2       1       1       2       1       1
       2       1       1       2       1       1       2       1       1       2
       1       1       2       1       1       2       1       1       2       1
       1       2       1       1       2       1       1       2       1       1
       2       1       1       2       1       1       2       1       1       2
       1       1       2       1       1       2       1       1       2       1
       1       2       1       1       2       1       1       2       1       1
       2       1       1       2       1       1       2       1       1       2
       1       1       2       1       1       2       1       1       2       1
       1       2       1       1       2       1       1       2       1       1
       2       1       1       2       1       1       2       1       1       2
       1       1       2       1       1       2       1       1       2       1
       1       2       1       1       2       1       1       2       1       1
       2       1       1       2       1       1       2       1       1       2
       1       1       2       1       1       2       1       1       2       1
       1       2       1       1       2       1       1       2       1       1
       2       1       1       2       1       1       2       1       1       2
       1       1       2       1       1       2       1       1       2       1
       1       2       1       1       2       1       1       2       1       1
       2       1       1       2       1       1       2       1       1       2
       1       1       2       1       1       2       1       1       2       1
       1       2       1       1       2       1       1       2       1       1
       2       1       1       2       1       1       2       1       1       2
       1       1       2       1       1       2       1       1       2       1
       1       2       1       1       2       1       1       2       1       1
       2       1       1       2       1       1       2       1       1       2
       1       1       2       1       1       2       1       1       2       1
       1       2       1       1       2       1       1       2       1       1
       2       1       1       2       1       1       2       1       1       2
       1       1       2       1       1       2       1       1       2       1
       1       2       1       1       2       1       1       2       1       1
       2       1       1       2       1       1       2       1       1       2
       1       1       2       1       1       2       1       1       2       1
       1       2       1       1       2       1       1       2       1       1
       2       1       1       2       1       1       2       1       1       2
       1       1       2       1       1       2       1       1       2       1
       1       2       1       1       2       1       1       2       1       1
       2       1       1       2       1       1       2       1       1       2
       1       1       2       1       1       2       1       1       2       1
       1       2       1       1       2       1       1       2       1       1
       2       1       1       2       1       1       2       1       1       2
       1       1       2       1       1       2       1       1       2       1
       1       2       1       1       2       1       1       2       1       1
       2       1       1       2       1       1       2       1       1       2
       1       1       2       1       1       2       1       1       2       1
       1       2       1       1       2       1       1       2       1       1
       2       1       1       2       1       1       2       1       1       2
       1       1       2       1       1       2       1       1       2       1
       1       2       1       1       2       1       1       2       1       1
       2       1       1       2       1       1       2       1       1       2
       1       1       2       1       1       2       1       1       2       1
       1       2       1       1       2       1       1       2       1       1
       2       1       1       2       1       1       2       1       1       2
       1       1       2       1       1       2       1       1       2       1
       1       2       1       1       2       1       1       2       1       1
       2       1       1       2       1       1       2       1       1       2
       1       1       2       1       1       2       1       1       2       1
       1       2       1       1       2       1       1       2       1       1
       2       1       1       2       1       1       2       1       1       2
       1       1       2       1       1       2       1       1       2       1
       1       2       1       1       2       1       1       2       1       1
       2       1       1       2       1       1       2       1       1       2
       1       1       2       1       1       2       1       1       2       1
       1       2       1       1       2       1       1       2       1       1
       2       1       1       2       1       1       2       1       1       2
       1       1       2       1       1       2       1       1       2       1
       1       2       1       1       2       1       1       2       1       1
       2       1       1       2       1       1       2       1       1       2
       1       1       2       1       1       2       1       1       2       1
       1       2       1       1       2       1       1       2       1       1
       2       1       1       2       1       1       2       1       1       2
       1       1       2       1       1       2       1       1       2       1
       1       2       1       1       2       1       1       2       1       1
       2       1       1       2       1       1       2       1       1       2
       1       1       2       1       1       2       1       1       2       1
       1       2       1       1       2       1       1       2       1       1
       2       1       1       2       1       1       2       1       1       2
       1       1       2       1       1       2       1       1       2       1
       1       2       1       1       2       1       1       2       1       1
       2       1       1       2       1       1       2       1       1       2
       1       1       2       1       1       2       1       1       2       1
       1       2       1       1       2       1       1       2       1       1
       2       1       1       2       1       1       2       1       1       2
       1       1       2       1       1       2       1       1       2       1
       1       2       1       1       2       1       1       2       1       1
       2       1       1       2       1       1       2       1       1       2
       1       1       2       1       1       2       1       1       2       1
       1       2       1       1       2       1       1       2       1       1
       2       1       1       2       1       1       2       1       1       2
       1       1       2       1       1       2       1       1       2       1
       1       2       1       1       2       1       1       2       1       1
       2       1       1       2       1       1       2       1       1       2
       1       1       2       1       1       2       1       1       2       1
       1       2       1       1       2       1       1       2       1       1
       2       1       1       2       1       1       2       1       1       2
       1       1       2       1       1       2       1       1       2       1
       1       2       1       1       2       1       1       2       1       1
       2       1       1       2       1       1       2       1       1       2
       1       1       2       1       1       2       1       1       2       1
       1       2       1       1       2       1       1       2       1       1
       2       1       1       2       1       1       2       1       1       2
       1       1       2       1       1       2       1       1       2       1
       1       2       1       1       2       1       1       2       1       1
       2       1       1       2       1       1       2       1       1       2
       1       1       2       1       1       2       1       1       2       1
       1       2       1       1       2       1       1       2       1       1
       2       1       1       2       1       1       2       1       1       2
       1       1       2       1       1       2       1       1       2       1
       1       2       1       1       2       1       1       2       1       1
       2       1       1       2       1       1       2       1       1       2
       1       1       2       1       1       2       1       1       2       1
       1       2       1       1       2       1       1       2       1       1
       2       1       1       2       1       1       2       1       1       2
       1       1       2       1       1       2       1       1       2       1
       1       2       1       1       2       1       1       2       1       1
       2       1       1       2       1       1       2       1       1       2
       1       1       2       1       1       2       1       1       2       1
       1       2       1       1       2       1       1       2       1       1
       2       1       1       2       1       1       2       1       1       2
       1       1       2       1       1       2       1       1       2       1
       1       2       1       1       2       1       1       2       1       1
       2       1       1       2       1       1       2       1       1       2
       1       1       2       1       1       2       1       1       2       1
       1       2       1       1       2       1       1       2       1       1
       2       1       1       2       1       1       2       1       1       2
       1       1       2       1       1       2       1       1       2       1
       1       2       1       1       2       1       1       2       1       1
       2       1       1       2       1       1       2       1       1       2
       1       1       2       1       1       2       1       1       2       1
       1       2       1       1       2       1       1       2       1       1
       2       1       1       2       1       1       2       1       1       2
       1       1       2       1       1       2       1       1       2       1
       1       2       1       1       2       1       1       2       1       1
       2       1       1       2       1       1       2       1       1       2
       1       1       2       1       1       2       1       1       2       1
       1       2       1       1       2       1       1       2       1       1
       2       1       1       2       1       1       2       1       1       2
       1       1       2       1       1       2       1       1       2       1
       1       2       1       1       2       1       1       2       1       1
       2       1       1       2       1       1       2       1       1       2
       1       1       2       1       1       2       1       1       2       1
       1       2       1       1       2       1       1       2       1       1
       2       1       1       2       1       1       2       1       1       2
       1       1       2       1       1       2       1       1       2       1
       1       2       1       1       2       1       1       2       1       1
       2       1       1       2       1       1       2       1       1       2
       1       1       2       1       1       2       1       1       2       1
       1       2       1       1       2       1       1       2       1       1
       2       1       1       2       1       1       2       1       1       2
       1       1       2       1       1       2       1       1       2       1
       1       2       1       1       2       1       1       2       1       1
       2       1       1       2       1       1       2       1       1       2
       1       1       2       1       1       2       1       1       2       1
       1       2       1       1       2       1       1       2       1       1
       2       1       1       2       1       1       2       1       1       2
       1       1       2       1       1       2       1       1       2       1
       1       2       1       1       2       1       1       2       1       1
       2       1       1       2       1       1       2       1       1       2
       1       1       2       1       1       2       1       1       2       1
       1       2       1       1       2       1       1       2       1       1
       2       1       1       2       1       1       2       1       1       2
       1       1       2       1       1       2       1       1       2       1
       1       2       1       1       2       1       1       2       1       1
       2       1       1       2       1       1       2       1       1       2
       1       1       2       1       1       2       1       1       2       1
       1       2       1       1       2       1       1       2       1       1
       2       1       1       2       1       1       2       1       1       2
       1       1       2       1       1       2       1       1       2       1
       1       2       1       1       2       1       1       2       1       1
       2       1       1       2       1       1       2       1       1       2
       1       1       2       1       1       2       1       1       2       1
       1       2       1       1       2       1       1       2       1       1
       2       1       1       2       1       1       2       1       1       2
       1       1       2       1       1       2       1       1       2       1
       1       2       1       1       2       1       1       2       1       1
       2       1       1       2       1       1       2       1       1       2
       1       1       2       1       1       2       1       1       2       1
       1       2       1       1       2       1       1       2       1       1
       2       1       1       2       1       1       2       1       1       2
       1       1       2       1       1       2       1       1       2       1
       1       2       1       1       2       1       1       2       1       1
       2       1       1       2       1       1       2       1       1       2
       1       1       2       1       1       2       1       1       2       1
       1       2       1       1       2       1       1       2       1       1
       2       1       1       2       1       1       2       1       1       2
       1       1       2       1       1       2       1       1       2       1
       1       2       1       1       2       1       1       2       1       1
       2       1       1       2       1       1       2       1       1       2
       1       1       2       1       1       2       1       1       2       1
       1       2       1       1       2       1       1       2       1       1
       2       1       1       2       1       1       2       1       1       2
       1       1       2       1       1       2       1       1       2       1
       1       2       1       1       2       1       1       2       1       1
       2       1       1       2       1       1       2       1       1       2
       1       1       2       1       1       2       1       1       2       1
       1       2       1       1       2       1       1       2       1       1
       2       1       1       2       1       1       2       1       1       2
       1       1       2       1       1       2       1       1       2       1
       1       2       1       1       2       1       1       2       1       1
       2       1       1       2       1       1       2       1       1       2
       1       1       2       1       1       2       1       1       2       1
       1       2       1       1       2       1       1       2       1       1
       2       1       1       2       1       1       2       1       1       2
       1       1       2       1       1       2       1       1       2       1
       1       2       1       1       2       1       1       2       1       1
       2       1       1       2       1       1       2       1       1       2
       1       1       2       1       1       2       1       1       2       1
       1       2       1       1       2       1       1       2       1       1
       2       1       1       2       1       1       2       1       1       2
       1       1       2       1       1       2       1       1       2       1
       1       2       1       1       2       1       1       2       1       1
       2       1       1       2       1       1       2       1       1       2
       1       1       2       1       1       2       1       1       2       1
       1       2       1       1       2       1       1       2       1       1
       2       1       1       2       1       1       2       1       1       2
       1       1       2       1       1       2       1       1       2       1
       1       2       1       1       2       1       1       2       1       1
       2       1       1       2       1       1       2       1       1       2
       1       1       2       1       1       2       1       1       2       1
       1       2       1       1       2       1       1       2       1       1
       2       1       1       2       1       1       2       1       1       2
       1       1       2       1       1       2       1       1       2       1
       1       2       1       1       2       1       1       2       1       1
       2       1       1       2       1       1       2       1       1       2
       1       1       2       1       1       2       1       1       2       1
       1       2       1       1       2       1       1       2       1       1
       2       1       1       2       1       1       2       1       1       2
       1       1       2       1       1       2       1       1       2       1
       1       2       1       1       2       1       1       2       1       1
       2       1       1       2       1       1       2       1       1       2
       1       1       2       1       1       2       1       1       2       1
       1       2       1       1       2       1       1       2       1       1
       2       1       1       2       1       1       2       1       1       2
       1       1       2       1       1       2       1       1       2       1
       1       2       1       1       2       1       1       2       1       1
       2       1       1       2       1       1       2       1       1       2
       1       1       2       1       1       2       1       1       2       1
       1       2       1       1       2       1       1       2       1       1
       2       1       1       2       1       1       2       1       1       2
       1       1       2       1       1       2       1       1       2       1
       1       2       1       1       2       1       1       2       1       1
       2       1       1       2       1       1       2       1       1       2
       1       1       2       1       1       2       1       1       2       1
       1       2       1       1       2       1       1       2       1       1
       2       1       1       2       1       1       2       1       1       2
       1       1       2       1       1       2       1       1       2       1
       1       2       1       1       2       1       1       2       1       1
       2       1       1       2       1       1       2       1       1       2
       1       1       2       1       1       2       1       1       2       1
       1       2       1       1       2       1       1       2       1       1
       2       1       1       2       1       1       2       1       1       2
       1       1       2       1       1       2       1       1       2       1
       1       2       1       1       2       1       1       2       1       1
       2       1       1       2       1       1       2       1       1       2
       1       1       2       1       1       2       1       1       2       1
       1       2       1       1       2       1       1       2       1       1
       2       1       1       2       1       1       2       1       1       2
       1       1       2       1       1       2       1       1       2       1
       1       2       1       1       2       1       1       2       1       1
       2       1       1       2       1       1       2       1       1       2
       1       1       2       1       1       2       1       1       2       1
       1       2       1       1       2       1       1       2       1       1
       2       1       1       2       1       1       2       1       1       2
       1       1       2       1       1       2       1       1       2       1
       1       2       1       1       2       1       1       2       1       1
       2       1       1       2       1       1       2       1       1       2
       1       1       2       1       1       2       1       1       2       1
       1       2       1       1       2       1       1       2       1       1
       2       1       1       2       1       1       2       1       1       2
       1       1       2       1       1       2       1       1       2       1
       1       2       1       1       2       1       1       2       1       1
       2       1       1       2       1       1       2       1       1       2
       1       1       2       1       1       2       1       1       2       1
       1       2       1       1       2       1       1       2       1       1
       2       1       1       2       1       1       2       1       1       2
       1       1       2       1       1       2       1       1       2       1
       1       2       1       1       2       1       1       2       1       1
       2       1       1       2       1       1       2       1       1       2
       1       1       2       1       1       2       1       1       2       1
       1       2       1       1       2       1       1       2       1       1
       2       1       1       2       1       1       2       1       1       2
       1       1       2       1       1       2       1       1       2       1
       1       2       1       1       2       1       1       2       1       1
       2       1       1       2       1       1       2       1       1       2
       1       1       2       1       1       2       1       1       2       1
       1       2       1       1       2       1       1       2       1       1
       2       1       1       2       1       1       2       1       1       2
       1       1       2       1       1       2       1       1       2       1
       1       2       1       1       2       1       1       2       1       1
       2       1       1       2       1       1       2       1       1       2
       1       1       2       1       1       2       1       1       2       1
       1       2       1       1       2       1       1       2       1       1
       2       1       1       2       1       1       2       1       1       2
       1       1       2       1       1       2       1       1       2       1
       1       2       1       1       2       1       1       2       1       1
       2       1       1       2       1       1       2       1       1       2
       1       1       2       1       1       2       1       1       2       1
       1       2       1       1       2       1       1       2       1       1
       2       1       1       2       1       1       2       1       1       2
       1       1       2       1       1       2       1       1       2       1
       1       2       1       1       2       1       1       2       1       1
       2       1       1       2       1       1       2       1       1       2
       1       1       2       1       1       2       1       1       2       1
       1       2       1       1       2       1       1       2       1       1
       2       1       1       2       1       1       2       1       1       2
       1       1       2       1       1       2       1       1       2       1
       1       2       1       1       2       1       1       2       1       1
       2       1       1       2       1       1       2       1       1       2
       1       1       2       1       1       2       1       1       2       1
       1       2       1       1       2       1       1       2       1       1
       2       1       1       2       1       1       2       1       1       2
       1       1       2       1       1       2       1       1       2       1
       1       2       1       1       2       1       1       2       1       1
       2       1       1       2       1       1       2       1       1       2
       1       1       2       1       1       2       1       1       2       1
       1       2       1       1       2       1       1       2       1       1
       2       1       1       2       1       1       2       1       1       2
       1       1       2       1       1       2       1       1       2       1
       1       2       1       1       2       1       1       2       1       1
       2       1       1       2       1       1       2       1       1       2
       1       1       2       1       1       2       1       1       2       1
       1       2       1       1       2       1       1       2       1       1
       2       1       1       2       1       1       2       1       1       2
       1       1       2       1       1       2       1       1       2       1
       1       2       1       1       2       1       1       2       1       1
       2       1       1       2       1       1       2       1       1       2
       1       1       2       1       1       2       1       1       2       1
       1       2       1       1       2       1       1       2       1       1
       2       1       1       2       1       1       2       1       1       2
       1       1       2       1       1       2       1       1       2       1
       1       2       1       1       2       1       1       2       1       1
       2       1       1       2       1       1       2       1       1       2
       1       1       2       1       1       2       1       1       2       1
       1       2       1       1       2       1       1       2       1       1
       2       1       1       2       1       1       2       1       1       2
       1       1       2       1       1       2       1       1       2       1
       1       2       1       1       2       1       1       2       1       1
       2       1       1       2       1       1       2       1       1       2
       1       1       2       1       1       2       1       1       2       1
       1       2       1       1       2       1       1       2       1       1
       2       1       1       2       1       1       2       1       1       2
       1       1       2       1       1       2       1       1       2       1
       1       2       1       1       2       1       1       2       1       1
       2       1       1       2       1       1       2       1       1       2
       1       1       2       1       1       2       1       1       2       1
       1       2       1       1       2       1       1       2       1       1
       2       1       1       2       1       1       2       1       1       2
       1       1       2       1       1       2       1       1       2       1
       1       2       1       1       2       1       1       2       1       1
       2       1       1       2       1       1       2       1       1       2
       1       1       2       1       1       2       1       1       2       1
       1       2       1       1       2       1       1       2       1       1
       2       1       1       2       1       1       2       1       1       2
       1       1       2       1       1       2       1       1       2       1
       1       2       1       1       2       1       1       2       1       1
       2       1       1       2       1       1       2       1       1       2
       1       1       2       1       1       2       1       1       2       1
       1       2       1       1       2       1       1       2       1       1
       2       1       1       2       1       1       2       1       1       2
       1       1       2       1       1       2       1       1       2       1
       1       2       1       1       2       1       1       2       1       1
       2       1       1       2       1       1       2       1       1       2
       1       1       2       1       1       2       1       1       2       1
       1       2       1       1       2       1       1       2       1       1
       2       1       1       2       1       1       2       1       1       2
       1       1       2       1       1       2       1       1       2       1
       1       2       1       1       2       1       1       2       1       1
       2       1       1       2       1       1       2       1       1       2
       1       1       2       1       1       2       1       1       2       1
       1       2       1       1       2       1       1       2       1       1
       2       1       1       2       1       1       2       1       1       2
       1       1       2       1       1       2       1       1       2       1
       1       2       1       1       2       1       1       2       1       1
       2       1       1       2       1       1       2       1       1       2
       1       1       2       1       1       2       1       1       2       1
       1       2       1       1       2       1       1       2       1       1
       2       1       1       2       1       1       2       1       1       2
       1       1       2       1       1       2       1       1       2       1
       1       2       1       1       2       1       1       2       1       1
       2       1       1       2       1       1       2       1       1       2
       1       1       2       1       1       2       1       1       2       1
       1       2       1       1       2       1       1       2       1       1
       2       1       1       2       1       1       2       1       1       2
       1       1       2       1       1       2       1       1       2       1
       1       2       1       1       2       1       1       2       1       1
       2       1       1       2       1       1       2       1       1       2
       1       1       2       1       1       2       1       1       2       1
       1       2       1       1       2       1       1       2       1       1
       2       1       1       2       1       1       2       1       1       2
       1       1       2       1       1       2       1       1       2       1
       1       2       1       1       2       1       1       2       1       1
       2       1       1       2       1       1       2       1       1       2
       1       1       2       1       1       2       1       1       2       1
       1       2       1       1       2       1       1       2       1       1
       2       1       1       2       1       1       2       1       1       2
       1       1       2       1       1       2       1       1       2       1
       1       2       1       1       2       1       1       2       1       1
       2       1       1       2       1       1       2       1       1       2
       1       1       2       1       1       2       1       1       2       1
       1       2       1       1       2       1       1       2       1       1
       2       1       1       2       1       1       2       1       1       2
       1       1       2       1       1       2       1       1       2       1
       1       2       1       1       2       1       1       2       1       1
       2       1       1       2       1       1       2       1       1       2
       1       1       2       1       1       2       1       1       2       1
       1       2       1       1       2       1       1       2       1       1
       2       1       1       2       1       1       2       1       1       2
       1       1       2       1       1       2       1       1       2       1
       1       2       1       1       2       1       1       2       1       1
       2       1       1       2       1       1       2       1       1       2
       1       1       2       1       1       2       1       1       2       1
       1       2       1       1       2       1       1       2       1       1
       2       1       1       2       1       1       2       1       1       2
       1       1       2       1       1       2       1       1       2       1
       1       2       1       1       2       1       1       2       1       1
       2       1       1       2       1       1       2       1       1       2
       1       1       2       1       1       2       1       1       2       1
       1       2       1       1       2       1       1       2       1       1
       2       1       1       2       1       1       2       1       1       2
       1       1       2       1       1       2       1       1       2       1
       1       2       1       1       2       1       1       2       1       1
       2       1       1       2       1       1       2       1       1       2
       1       1       2       1       1       2       1       1       2       1
       1       2       1       1       2       1       1       2       1       1
       2       1       1       2       1       1       2       1       1       2
       1       1       2       1       1       2       1       1       2       1
       1       2       1       1       2       1       1       2       1       1
       2       1       1       2       1       1       2       1       1       2
       1       1       2       1       1       2       1       1       2       1
       1       2       1       1       2       1       1       2       1       1
       2       1       1       2       1       1       2       1       1       2
       1       1       2       1       1       2       1       1       2       1
       1       2       1       1       2       1       1       2       1       1
       2       1       1       2       1       1       2       1       1       2
       1       1       2       1       1       2       1       1       2       1
       1       2       1       1       2       1       1       2       1       1
       2       1       1       2       1       1       2       1       1       2
       1       1       2       1       1       2       1       1       2       1
       1       2       1       1       2       1       1       2       1       1
       2       1       1       2       1       1       2       1       1       2
       1       1       2       1       1       2       1       1       2       1
       1       2       1       1       2       1       1       2       1       1
       2       1       1       2       1       1       2       1       1       2
       1       1       2       1       1       2       1       1       2       1
       1       2       1       1       2       1       1       2       1       1
       2       1       1       2       1       1       2       1       1       2
       1       1       2       1       1       2       1       1       2       1
       1       2       1       1       2       1       1       2       1       1
       2       1       1       2       1       1       2       1       1       2
       1       1       2       1       1       2       1       1       2       1
       1       2       1       1       2       1       1       2       1       1
       2       1       1       2       1       1       2       1       1       2
       1       1       2       1       1       2       1       1       2       1
       1       2       1       1       2       1       1       2       1       1
       2       1       1       2       1       1       2       1       1       2
       1       1       2       1       1       2       1       1       2       1
       1       2       1       1       2       1       1       2       1       1
       2       1       1       2       1       1       2       1       1       2
       1       1       2       1       1       2       1       1       2       1
       1       2       1       1       2       1       1       2       1       1
       2       1       1       2       1       1       2       1       1       2
       1       1       2       1       1       2       1       1       2       1
       1       2       1       1       2       1       1       2       1       1
       2       1       1       2       1       1       2       1       1       2
       1       1       2       1       1       2       1       1       2       1
       1       2       1       1       2       1       1       2       1       1
       2       1       1       2       1       1       2       1       1       2
       1       1       2       1       1       2       1       1       2       1
       1       2       1       1       2       1       1       2       1       1
       2       1       1       2       1       1       2       1       1       2
       1       1       2       1       1       2       1       1       2       1
       1       2       1       1       2       1       1       2       1       1
       2       1       1       2       1       1       2       1       1       2
       1       1       2       1       1       2       1       1       2       1
       1       2       1       1       2       1       1       2       1       1
       2       1       1       2       1       1       2       1       1       2
       1       1       2       1       1       2       1       1       2       1
       1       2       1       1       2       1       1       2       1       1
       2       1       1       2       1       1       2       1       1       2
       1       1       2       1       1       2       1       1       2       1
       1       2       1       1       2       1       1       2       1       1
       2       1       1       2       1       1       2       1       1       2
       1       1       2       1       1       2       1       1       2       1
       1       2       1       1       2       1       1       2       1       1
       2       1       1       2       1       1       2       1       1       2
       1       1       2       1       1       2       1       1       2       1
       1       2       1       1       2       1       1       2       1       1
       2       1       1       2       1       1       2       1       1       2
       1       1       2       1       1       2       1       1       2       1
       1       2       1       1       2       1       1       2       1       1
       2       1       1       2       1       1       2       1       1       2
       1       1       2       1       1       2       1       1       2       1
       1       2       1       1       2       1       1       2       1       1
       2       1       1       2       1       1       2       1       1       2
       1       1       2       1       1       2       1       1       2       1
       1       2       1       1       2       1       1       2       1       1
       2       1       1       2       1       1       2       1       1       2
       1       1       2       1       1       2       1       1       2       1
       1       2       1       1       2       1       1       2       1       1
       2       1       1       2       1       1       2       1       1       2
       1       1       2       1       1       2       1       1       2       1
       1       2       1       1       2       1       1       2       1       1
       2       1       1       2       1       1       2       1       1       2
       1       1       2       1       1       2       1       1       2       1
       1       2       1       1       2       1       1       2       1       1
       2       1       1       2       1       1       2       1       1       2
       1       1       2       1       1       2       1       1       2       1
       1       2       1       1       2       1       1       2       1       1
       2       1       1       2       1       1       2       1       1       2
       1       1       2       1       1       2       1       1       2       1
       1       2       1       1       2       1       1       2       1       1
       2       1       1       2       1       1       2       1       1       2
       1       1       2       1       1       2       1       1       2       1
       1       2       1       1       2       1       1       2       1       1
       2       1       1       2       1       1       2       1       1       2
       1       1       2       1       1       2       1       1       2       1
       1       2       1       1       2       1       1       2       1       1
       2       1       1       2       1       1       2       1       1       2
       1       1       2       1       1       2       1       1       2       1
       1       2       1       1       2       1       1       2       1       1
       2       1       1       2       1       1       2       1       1       2
       1       1       2       1       1       2       1       1       2       1
       1       2       1       1       2       1       1       2       1       1
       2       1       1       2       1       1       2       1       1       2
       1       1       2       1       1       2       1       1       2       1
       1       2       1       1       2       1       1       2       1       1
       2       1       1       2       1       1       2       1       1       2
       1       1       2       1       1       2       1       1       2       1
       1       2       1       1       2       1       1       2       1       1
       2       1       1       2       1       1       2       1       1       2
       1       1       2       1       1       2       1       1       2       1
       1       2       1       1       2       1       1       2       1       1
       2       1       1       2       1       1       2       1       1       2
       1       1       2       1       1       2       1       1       2       1
       1       2       1       1       2       1       1       2       1       1
       2       1       1       2       1       1       2       1       1       2
       1       1       2       1       1       2       1       1       2       1
       1       2       1       1       2       1       1       2       1       1
       2       1       1       2       1       1       2       1       1       2
       1       1       2       1       1       2       1       1       2       1
       1       2       1       1       2       1       1       2       1       1
       2       1       1       2       1       1       2       1       1       2
       1       1       2       1       1       2       1       1       2       1
       1       2       1       1       2       1       1       2       1       1
       2       1       1       2       1       1       2       1       1       2
       1       1       2       1       1       2       1       1       2       1
       1       2       1       1       2       1       1       2       1       1
       2       1       1       2       1       1       2       1       1       2
       1       1       2       1       1       2       1       1       2       1
       1       2       1       1       2       1       1       2       1       1
       2       1       1       2       1       1       2       1       1       2
       1       1       2       1       1       2       1       1       2       1
       1       2       1       1       2       1       1       2       1       1
       2       1       1       2       1       1       2       1       1       2
       1       1       2       1       1       2       1       1       2       1
       1       2       1       1       2       1       1       2       1       1
       2       1       1       2       1       1       2       1       1       2
       1       1       2       1       1       2       1       1       2       1
       1       2       1       1       2       1       1       2       1       1
       2       1       1       2       1       1       2       1       1       2
       1       1       2       1       1       2       1       1       2       1
       1       2       1       1       2       1       1       2       1       1
       2       1       1       2       1       1       2       1       1       2
       1       1       2       1       1       2       1       1       2       1
       1       2       1       1       2       1       1       2       1       1
       2       1       1       2       1       1       2       1       1       2
       1       1       2       1       1       2       1       1       2       1
       1       2       1       1       2       1       1       2       1       1
       2       1       1       2       1       1       2       1       1       2
       1       1       2       1       1       2       1       1       2       1
       1       2       1       1       2       1       1       2       1       1
       2       1       1       2       1       1       2       1       1       2
       1       1       2       1       1       2       1       1       2       1
       1       2       1       1       2       1       1       2       1       1
       2       1       1       2       1       1       2       1       1       2
       1       1       2       1       1       2       1       1       2       1
       1       2       1       1       2       1       1       2       1       1
       2       1       1       2       1       1       2       1       1       2
       1       1       2       1       1       2       1       1       2       1
       1       2       1       1       2       1       1       2       1       1
       2       1       1       2       1       1       2       1       1       2
       1       1       2       1       1       2       1       1       2       1
       1       2       1       1       2       1       1       2       1       1
       2       1       1       2       1       1       2       1       1       2
       1       1       2       1       1       2       1       1       2       1
       1       2       1       1       2       1       1       2       1       1
       2       1       1       2       1       1       2       1       1       2
       1       1       2       1       1       2       1       1       2       1
       1       2       1       1       2       1       1       2       1       1
       2       1       1       2       1       1       2       1       1       2
       1       1       2       1       1       2       1       1       2       1
       1       2       1       1       2       1       1       2       1       1
       2       1       1       2       1       1       2       1       1       2
       1       1       2       1       1       2       1       1       2       1
       1       2       1       1       2       1       1       2       1       1
       2       1       1       2       1       1       2       1       1       2
       1       1       2       1       1       2       1       1       2       1
       1       2       1       1       2       1       1       2       1       1
       2       1       1       2       1       1       2       1       1       2
       1       1       2       1       1       2       1       1       2       1
       1       2       1       1       2       1       1       2       1       1
       2       1       1       2       1       1       2       1       1       2
       1       1       2       1       1       2       1       1       2       1
       1       2       1       1       2       1       1       2       1       1
       2       1       1       2       1       1       2       1       1       2
       1       1       2       1       1       2       1       1       2       1
       1       2       1       1       2       1       1       2       1       1
       2       1       1       2       1       1       2       1       1       2
       1       1       2       1       1       2       1       1       2       1
       1       2       1       1       2       1       1       2       1       1
       2       1       1       2       1       1       2       1       1       2
       1       1       2       1       1       2       1       1       2       1
       1       2       1       1       2       1       1       2       1       1
       2       1       1       2       1       1       2       1       1       2
       1       1       2       1       1       2       1       1       2       1
       1       2       1       1       2       1       1       2       1       1
       2       1       1       2       1       1       2       1       1       2
       1       1       2       1       1       2       1       1       2       1
       1       2       1       1       2       1       1       2       1       1
       2       1       1       2       1       1       2       1       1       2
       1       1       2       1       1       2       1       1       2       1
       1       2       1       1       2       1       1       2       1       1
       2       1       1       2       1       1       2       1       1       2
       1       1       2       1       1       2       1       1       2       1
       1       2       1       1       2       1       1       2       1       1
       2       1       1       2       1       1       2       1       1       2
       1       1       2       1       1       2       1       1       2       1
       1       2       1       1       2       1       1       2       1       1
       2       1       1       2       1       1       2       1       1       2
       1       1       2       1       1       2       1       1       2       1
       1       2       1       1       2       1       1       2       1       1
       2       1       1       2       1       1       2       1       1       2
       1       1       2       1       1       2       1       1       2       1
       1       2       1       1       2       1       1       2       1       1
       2       1       1       2       1       1       2       1       1       2
       1       1       2       1       1       2       1       1       2       1
       1       2       1       1       2       1       1       2       1       1
       2       1       1       2       1       1       2       1       1       2
       1       1       2       1       1       2       1       1       2       1
       1       2       1       1       2       1       1       2       1       1
       2       1       1       2       1       1       2       1       1       2
       1       1       2       1       1       2       1       1       2       1
       1       2       1       1       2       1       1       2       1       1
       2       1       1       2       1       1       2       1       1       2
       1       1       2       1       1       2       1       1       2       1
       1       2       1       1       2       1       1       2       1       1
       2       1       1       2       1       1       2       1       1       2
       1       1       2       1       1       2       1       1       2       1
       1       2       1       1       2       1       1       2       1       1
       2       1       1       2       1       1       2       1       1       2
       1       1       2       1       1       2       1       1       2       1
       1       2       1       1       2       1       1       2       1       1
       2       1       1       2       1       1       2       1       1       2
       1       1       2       1       1       2       1       1       2       1
       1       2       1       1       2       1       1       2       1       1
       2       1       1       2       1       1       2       1       1       2
       1       1       2       1       1       2       1       1       2       1
       1       2       1       1       2       1       1       2       1       1
       2       1       1       2       1       1       2       1       1       2
       1       1       2       1       1       2       1       1       2       1
       1       2       1       1       2       1       1       2       1       1
       2       1       1       2       1       1       2       1       1       2
       1       1       2       1       1       2       1       1       2       1
       1       2       1       1       2       1       1       2       1       1
       2       1       1       2       1       1       2       1       1       2
       1       1       2       1       1       2       1       1       2       1
       1       2       1       1       2       1       1       2       1       1
       2       1       1       2       1       1       2       1       1       2
       1       1       2       1       1       2       1       1       2       1
       1       2       1       1       2       1       1       2       1       1
       2       1       1       2       1       1       2       1       1       2
       1       1       2       1       1       2       1       1       2       1
       1       2       1       1       2       1       1       2       1       1
       2       1       1       2       1       1       2       1       1       2
       1       1       2       1       1       2       1       1       2       1
       1       2       1       1       2       1       1       2       1       1
       2       1       1       2       1       1       2       1       1       2
       1       1       2       1       1       2       1       1       2       1
       1       2       1       1       2       1       1       2       1       1
       2       1       1       2       1       1       2       1       1       2
       1       1       2       1       1       2       1       1       2       1
       1       2       1       1       2       1       1       2       1       1
       2       1       1       2       1       1       2       1       1       2
       1       1       2       1       1       2       1       1       2       1
       1       2       1       1       2       1       1       2       1       1
       2       1       1       2       1       1       2       1       1       2
       1       1       2       1       1       2       1       1       2       1
       1       2       1       1       2       1       1       2       1       1
       2       1       1       2       1       1       2       1       1       2
       1       1       2       1       1       2       1       1       2       1
       1       2       1       1       2       1       1       2       1       1
       2       1       1       2       1       1       2       1       1       2
       1       1       2       1       1       2       1       1       2       1
       1       2       1       1       2       1       1       2       1       1
       2       1       1       2       1       1       2       1       1       2
       1       1       2       1       1       2       1       1       2       1
       1       2       1       1       2       1       1       2       1       1
       2       1       1       2       1       1       2       1       1       2
       1       1       2       1       1       2       1       1       2       1
       1       2       1       1       2       1       1       2       1       1
       2       1       1       2       1       1       2       1       1       2
       1       1       2       1       1       2       1       1       2       1
       1       2       1       1       2       1       1       2       1       1
       2       1       1       2       1       1       2       1       1       2
       1       1       2       1       1       2       1       1       2       1
       1       2       1       1       2       1       1       2       1       1
       2       1       1       2       1       1       2       1       1       2
       1       1       2       1       1       2       1       1       2       1
       1       2       1       1       2       1       1       2       1       1
       2       1       1       2       1       1       2       1       1       2
       1       1       2       1       1       2       1       1       2       1
       1       2       1       1       2       1       1       2       1       1
       2       1       1       2       1       1       2       1       1       2
       1       1       2       1       1       2       1       1       2       1
       1       2       1       1       2       1       1       2       1       1
       2       1       1       2       1       1       2       1       1       2
       1       1       2       1       1       2       1       1       2       1
       1       2       1       1       2       1       1       2       1       1
       2       1       1       2       1       1       2       1       1       2
       1       1       2       1       1       2       1       1       2       1
       1       2       1       1       2       1       1       2       1       1
       2       1       1       2       1       1       2       1       1       2
       1       1       2       1       1       2       1       1       2       1
       1       2       1       1       2       1       1       2       1       1
       2       1       1       2       1       1       2       1       1       2
       1       1       2       1       1       2       1       1       2       1
       1       2       1       1       2       1       1       2       1       1
       2       1       1       2       1       1       2       1       1       2
       1       1       2       1       1       2       1       1       2       1
       1       2       1       1       2       1       1       2       1       1
       2       1       1       2       1       1       2       1       1       2
       1       1       2       1       1       2       1       1       2       1
       1       2       1       1       2       1       1       2       1       1
       2       1       1       2       1       1       2       1       1       2
       1       1       2       1       1       2       1       1       2       1
       1       2       1       1       2       1       1       2       1       1
       2       1       1       2       1       1       2       1       1       2
       1       1       2       1       1       2       1       1       2       1
       1       2       1       1       2       1       1       2       1       1
       2       1       1       2       1       1       2       1       1       2
       1       1       2       1       1       2       1       1       2       1
       1       2       1       1       2       1       1       2       1       1
       2       1       1       2       1       1       2       1       1       2
       1       1       2       1       1       2       1       1       2       1
       1       2       1       1       2       1       1       2       1       1
       2       1       1       2       1       1       2       1       1       2
       1       1       2       1       1       2       1       1       2       1
       1       2       1       1       2       1       1       2       1       1
       2       1       1       2       1       1       2       1       1       2
       1       1       2       1       1       2       1       1       2       1
       1       2       1       1       2       1       1       2       1       1
       2       1       1       2       1       1       2       1       1       2
       1       1       2       1       1       2       1       1       2       1
       1       2       1       1       2       1       1       2       1       1
       2       1       1       2       1       1       2       1       1       2
       1       1       2       1       1       2       1       1       2       1
       1       2       1       1       2       1       1       2       1       1
       2       1       1       2       1       1       2       1       1       2
       1       1       2       1       1       2       1       1       2       1
       1       2       1       1       2       1       1       2       1       1
       2       1       1       2       1       1       2       1       1       2
       1       1       2       1       1       2       1       1       2       1
       1       2       1       1       2       1       1       2       1       1
       2       1       1       2       1       1       2       1       1       2
       1       1       2       1       1       2       1       1       2       1
       1       2       1       1       2       1       1       2       1       1
       2       1       1       2       1       1       2       1       1       2
       1       1       2       1       1       2       1       1       2       1
       1       2       1       1       2       1       1       2       1       1
       2       1       1       2       1       1       2       1       1       2
       1       1       2       1       1       2       1       1       2       1
       1       2       1       1       2       1       1       2       1       1
       2       1       1       2       1       1       2       1       1       2
       1       1       2       1       1       2       1       1       2       1
       1       2       1       1       2       1       1       2       1       1
       2       1       1       2       1       1       2       1       1       2
       1       1       2       1       1       2       1       1       2       1
       1       2       1       1       2       1       1       2       1       1
       2       1       1       2       1       1       2       1       1       2
       1       1       2       1       1       2       1       1       2       1
       1       2       1       1       2       1       1       2       1       1
       2       1       1       2       1       1       2       1       1       2
       1       1       2       1       1       2       1       1       2       1
       1       2       1       1       2       1       1       2       1       1
       2       1       1       2       1       1       2       1       1       2
       1       1       2       1       1       2       1       1       2       1
       1       2       1       1       2       1       1       2       1       1
       2       1       1       2       1       1       2       1       1       2
       1       1       2       1       1       2       1       1       2       1
       1       2       1       1       2       1       1       2       1       1
       2       1       1       2       1       1       2       1       1       2
       1       1       2       1       1       2       1       1       2       1
       1       2       1       1       2       1       1       2       1       1
       2       1       1       2       1       1       2       1       1       2
       1       1       2       1       1       2       1       1       2       1
       1       2       1       1       2       1       1       2       1       1
       2       1       1       2       1       1       2       1       1       2
       1       1       2       1       1       2       1       1       2       1
       1       2       1       1       2       1       1       2       1       1
       2       1       1       2       1       1       2       1       1       2
       1       1       2       1       1       2       1       1       2       1
       1       2       1       1       2       1       1       2       1       1
       2       1       1       2       1       1       2       1       1       2
       1       1       2       1       1       2       1       1       2       1
       1       2       1       1       2       1       1       2       1       1
       2       1       1       2       1       1       2       1       1       2
       1       1       2       1       1       2       1       1       2       1
       1       2       1       1       2       1       1       2       1       1
       2       1       1       2       1       1       2       1       1       2
       1       1       2       1       1       2       1       1       2       1
       1       2       1       1       2       1       1       2       1       1
       2       1       1       2       1       1       2       1       1       2
       1       1       2       1       1       2       1       1       2       1
       1       2       1       1       2       1       1       2       1       1
       2       1       1       2       1       1       2       1       1       2
       1       1       2       1       1       2       1       1       2       1
       1       2       1       1       2       1       1       2       1       1
       2       1       1       2       1       1       2       1       1       2
       1       1       2       1       1       2       1       1       2       1
       1       2       1       1       2       1       1       2       1       1
       2       1       1       2       1       1       2       1       1       2
       1       1       2       1       1       2       1       1       2       1
       1       2       1       1       2       1       1       2       1       1
       2       1       1       2       1       1       2       1       1       2
       1       1       2       1       1       2       1       1       2       1
       1       2       1       1       2       1       1       2       1       1
       2       1       1       2       1       1       2       1       1       2
       1       1       2       1       1       2       1       1       2       1
       1       2       1       1       2       1       1       2       1       1
       2       1       1       2       1       1       2       1       1       2
       1       1       2       1       1       2       1       1       2       1
       1       2       1       1       2       1       1       2       1       1
       2       1       1       2       1       1       2       1       1       2
       1       1       2       1       1       2       1       1       2       1
       1       2       1       1       2       1       1       2       1       1
       2       1       1       2       1       1       2       1       1       2
       1       1       2       1       1       2       1       1       2       1
       1       2       1       1       2       1       1       2       1       1
       2       1       1       2       1       1       2       1       1       2
       1       1       2       1       1       2       1       1       2       1
       1       2       1       1       2       1       1       2       1       1
       2       1       1       2       1       1       2       1       1       2
       1       1       2       1       1       2       1       1       2       1
       1       2       1       1       2       1       1       2       1       1
       2       1       1       2       1       1       2       1       1       2
       1       1       2       1       1       2       1       1       2       1
       1       2       1       1       2       1       1       2       1       1
       2       1       1       2       1       1       2       1       1       2
       1       1       2       1       1       2       1       1       2       1
       1       2       1       1       2       1       1       2       1       1
       2       1       1       2       1       1       2       1       1       2
       1       1       2       1       1       2       1       1       2       1
       1       2       1       1       2       1       1       2       1       1
       2       1       1       2       1       1       2       1       1       2
       1       1       2       1       1       2       1       1       2       1
       1       2       1       1       2       1       1       2       1       1
       2       1       1       2       1       1       2       1       1       2
       1       1       2       1       1       2       1       1       2       1
       1       2       1       1       2       1       1       2       1       1
       2       1       1       2       1       1       2       1       1       2
       1       1       2       1       1       2       1       1       2       1
       1       2       1       1       2       1       1       2       1       1
       2       1       1       2       1       1       2       1       1       2
       1       1       2       1       1       2       1       1       2       1
       1       2       1       1       2       1       1       2       1       1
       2       1       1       2       1       1       2       1       1       2
       1       1       2       1       1       2       1       1       2       1
       1       2       1       1       2       1       1       2       1       1
       2       1       1       2       1       1       2       1       1       2
       1       1       2       1       1       2       1       1       2       1
       1       2       1       1       2       1       1       2       1       1
       2       1       1       2       1       1       2       1       1       2
       1       1       2       1       1       2       1       1       2       1
       1       2       1       1       2       1       1       2       1       1
       2       1       1       2       1       1       2       1       1       2
       1       1       2       1       1       2       1       1       2       1
       1       2       1       1       2       1       1       2       1       1
       2       1       1       2       1       1       2       1       1       2
       1       1       2       1       1       2       1       1       2       1
       1       2       1       1       2       1       1       2       1       1
       2       1       1       2       1       1       2       1       1       2
       1       1       2       1       1       2       1       1       2       1
       1       2       1       1       2       1       1       2       1       1
       2       1       1       2       1       1       2       1       1       2
       1       1       2       1       1       2       1       1       2       1
       1       2       1       1       2       1       1       2       1       1
       2       1       1       2       1       1       2       1       1       2
       1       1       2       1       1       2       1       1       2       1
       1       2       1       1       2       1       1       2       1       1
       2       1       1       2       1       1       2       1       1       2
       1       1       2       1       1       2       1       1       2       1
       1       2       1       1       2       1       1       2       1       1
       2       1       1       2       1       1       2       1       1       2
       1       1       2       1       1       2       1       1       2       1
       1       2       1       1       2       1       1       2       1       1
       2       1       1       2       1       1       2       1       1       2
       1       1       2       1       1       2       1       1       2       1
       1       2       1       1       2       1       1       2       1       1
       2       1       1       2       1       1       2       1       1       2
       1       1       2       1       1       2       1       1       2       1
       1       2       1       1       2       1       1       2       1       1
       2       1       1       2       1       1       2       1       1       2
       1       1       2       1       1       2       1       1       2       1
       1       2       1       1       2       1       1       2       1       1
       2       1       1       2       1       1       2       1       1       2
       1       1       2       1       1       2       1       1       2       1
       1       2       1       1       2       1       1       2       1       1
       2       1       1       2       1       1       2       1       1       2
       1       1       2       1       1       2       1       1       2       1
       1       2       1       1       2       1       1       2       1       1
       2       1       1       2       1       1       2       1       1       2
       1       1       2       1       1       2       1       1       2       1
       1       2       1       1       2       1       1       2       1       1
       2       1       1       2       1       1       2       1       1       2
       1       1       2       1       1       2       1       1       2       1
       1       2       1       1       2       1       1       2       1       1
       2       1       1       2       1       1       2       1       1       2
       1       1       2       1       1       2       1       1       2       1
       1       2       1       1       2       1       1       2       1       1
       2       1       1       2       1       1       2       1       1       2
       1       1       2       1       1       2       1       1       2       1
       1       2       1       1       2       1       1       2       1       1
       2       1       1       2       1       1       2       1       1       2
       1       1       2       1       1       2       1       1       2       1
       1       2       1       1       2       1       1       2       1       1
       2       1       1       2       1       1       2       1       1       2
       1       1       2       1       1       2       1       1       2       1
       1       2       1       1       2       1       1       2       1       1
       2       1       1       2       1       1       2       1       1       2
       1       1       2       1       1       2       1       1       2       1
       1       2       1       1       2       1       1       2       1       1
       2       1       1       2       1       1       2       1       1       2
       1       1       2       1       1       2       1       1       2       1
       1       2       1       1       2       1       1       2       1       1
       2       1       1       2       1       1       2       1       1       2
       1       1       2       1       1       2       1       1       2       1
       1       2       1       1       2       1       1       2       1       1
       2       1       1       2       1       1       2       1       1       2
       1       1       2       1       1       2       1       1       2       1
       1       2       1       1       2       1       1       2       1       1
       2       1       1       2       1       1       2       1       1       2
       1       1       2       1       1       2       1       1       2       1
       1       2       1       1       2       1       1       2       1       1
       2       1       1       2       1       1       2       1       1       2
       1       1       2       1       1       2       1       1       2       1
       1       2       1       1       2       1       1       2       1       1
       2       1       1       2       1       1       2       1       1       2
       1       1       2       1       1       2       1       1       2       1
       1       2       1       1       2       1       1       2       1       1
       2       1       1       2       1       1       2       1       1       2
       1       1       2       1       1       2       1       1       2       1
       1       2       1       1       2       1       1       2       1       1
       2       1       1       2       1       1       2       1       1       2
       1       1       2       1       1       2       1       1       2       1
       1       2       1       1       2       1       1       2       1       1
       2       1       1       2       1       1       2       1       1       2
       1       1       2       1       1       2       1       1       2       1
       1       2       1       1       2       1       1       2       1       1
       2       1       1       2       1       1       2       1       1       2
       1       1       2       1       1       2       1       1       2       1
       1       2       1       1       2       1       1       2       1       1
       2       1       1       2       1       1       2       1       1       2
       1       1       2       1       1       2       1       1       2       1
       1       2       1       1       2       1       1       2       1       1
       2       1       1       2       1       1       2       1       1       2
       1       1       2       1       1       2       1       1       2       1
       1       2       1       1       2       1       1       2       1       1
       2       1       1       2       1       1       2       1       1       2
       1       1       2       1       1       2       1       1       2       1
       1       2       1       1       2       1       1       2       1       1
       2       1       1       2       1       1       2       1       1       2
       1       1       2       1       1       2       1       1       2       1
       1       2       1       1       2       1       1       2       1       1
       2       1       1       2       1       1       2       1       1       2
       1       1       2       1       1       2       1       1       2       1
       1       2       1       1       2       1       1       2       1       1
       2       1       1       2       1       1       2       1       1       2
       1       1       2       1       1       2       1       1       2       1
       1       2       1       1       2       1       1       2       1       1
       2       1       1       2       1       1       2       1       1       2
       1       1       2       1       1       2       1       1       2       1
       1       2       1       1       2       1       1       2       1       1
       2       1       1       2       1       1       2       1       1       2
       1       1       2       1       1       2       1       1       2       1
       1       2       1       1       2       1       1       2       1       1
       2       1       1       2       1       1       2       1       1       2
       1       1       2       1       1       2       1       1       2       1
       1       2       1       1       2       1       1       2       1       1
       2       1       1       2       1       1       2       1       1       2
       1       1       2       1       1       2       1       1       2       1
       1       2       1       1       2       1       1       2       1       1
       2       1       1       2       1       1       2       1       1       2
       1       1       2       1       1       2       1       1       2       1
       1       2       1       1       2       1       1       2       1       1
       2       1       1       2       1       1       2       1       1       2
       1       1       2       1       1       2       1       1       2       1
       1       2       1       1       2       1       1       2       1       1
       2       1       1       2       1       1       2       1       1       2
       1       1       2       1       1       2       1       1       2       1
       1       2       1       1       2       1       1       2       1       1
       2       1       1       2       1       1       2       1       1       2
       1       1       2       1       1       2       1       1       2       1
       1       2       1       1       2       1       1       2       1       1
       2       1       1       2       1       1       2       1       1       2
       1       1       2       1       1       2       1       1       2       1
       1       2       1       1       2       1       1       2       1       1
       2       1       1       2       1       1       2       1       1       2
       1       1       2       1       1       2       1       1       2       1
       1       2       1       1       2       1       1       2       1       1
       2       1       1       2       1       1       2       1       1       2
       1       1       2       1       1       2       1       1       2       1
       1       2       1       1       2       1       1       2       1       1
       2       1       1       2       1       1       2       1       1       2
       1       1       2       1       1       2       1       1       2       1
       1       2       1       1       2       1       1       2       1       1
       2       1       1       2       1       1       2       1       1       2
       1       1       2       1       1       2       1       1       2       1
       1       2       1       1       2       1       1       2       1       1
       2       1       1       2       1       1       2       1       1       2
       1       1       2       1       1       2       1       1       2       1
       1       2       1       1       2       1       1       2       1       1
       2       1       1       2       1       1       2       1       1       2
       1       1       2       1       1       2       1       1       2       1
       1       2       1       1       2       1       1       2       1       1
       2       1       1       2       1       1       2       1       1       2
       1       1       2       1       1       2       1       1       2       1
       1       2       1       1       2       1       1       2       1       1
       2       1       1       2       1       1       2       1       1       2
       1       1       2       1       1       2       1       1       2       1
       1       2       1       1       2       1       1       2       1       1
       2       1       1       2       1       1       2       1       1       2
       1       1       2       1       1       2       1       1       2       1
       1       2       1       1       2       1       1       2       1       1
       2       1       1       2       1       1       2       1       1       2
       1       1       2       1       1       2       1       1       2       1
       1       2       1       1       2       1       1       2       1       1
       2       1       1       2       1       1       2       1       1       2
       1       1       2       1       1       2       1       1       2       1
       1       2       1       1       2       1       1       2       1       1
       2       1       1       2       1       1       2       1       1       2
       1       1       2       1       1       2       1       1       2       1
       1       2       1       1       2       1       1       2       1       1
       2       1       1       2       1       1       2       1       1       2
       1       1       2       1       1       2       1       1       2       1
       1       2       1       1       2       1       1       2       1       1
       2       1       1       2       1       1       2       1       1       2
       1       1       2       1       1       2       1       1       2       1
       1       2       1       1       2       1       1       2       1       1
       2       1       1       2       1       1       2       1       1       2
       1       1       2       1       1       2       1       1       2       1
       1       2       1       1       2       1       1       2       1       1
       2       1       1       2       1       1       2       1       1       2
       1       1       2       1       1       2       1       1       2       1
       1       2       1       1       2       1       1       2       1       1
       2       1       1       2       1       1       2       1       1       2
       1       1       2       1       1       2       1       1       2       1
       1       2       1       1       2       1       1       2       1       1
       2       1       1       2       1       1       2       1       1       2
       1       1       2       1       1       2       1       1       2       1
       1       2       1       1       2       1       1       2       1       1
       2       1       1       2       1       1       2       1       1       2
       1       1       2       1       1       2       1       1       2       1
       1       2       1       1       2       1       1       2       1       1
       2       1       1       2       1       1       2       1       1       2
       1       1       2       1       1       2       1       1       2       1
       1       2       1       1       2       1       1       2       1       1
       2       1       1       2       1       1       2       1       1       2
       1       1       2       1       1       2       1       1       2       1
       1       2       1       1       2       1       1       2       1       1
       2       1       1       2       1       1       2       1       1       2
       1       1       2       1       1       2       1       1       2       1
       1       2       1       1       2       1       1       2       1       1
       2       1       1       2       1       1       2       1       1       2
       1       1       2       1       1       2       1       1       2       1
       1       2       1       1       2       1       1       2       1       1
       2       1       1       2       1       1       2       1       1       2
       1       1       2       1       1       2       1       1       2       1
       1       2       1       1       2       1       1       2       1       1
       2       1       1       2       1       1       2       1       1       2
       1       1       2       1       1       2       1       1       2       1
       1       2       1       1       2       1       1       2       1       1
       2       1       1       2       1       1       2       1       1       2
       1       1       2       1       1       2       1       1       2       1
       1       2       1       1       2       1       1       2       1       1
       2       1       1       2       1       1       2       1       1       2
       1       1       2       1       1       2       1       1       2       1
       1       2       1       1       2       1       1       2       1       1
       2       1       1       2       1       1       2       1       1       2
       1       1       2       1       1       2       1       1       2       1
       1       2       1       1       2       1       1       2       1       1
       2       1       1       2       1       1       2       1       1       2
       1       1       2       1       1       2       1       1       2       1
       1       2       1       1       2       1       1       2       1       1
       2       1       1       2       1       1       2       1       1       2
       1       1       2       1       1       2       1       1       2       1
       1       2       1       1       2       1       1       2       1       1
       2       1       1       2       1       1       2       1       1       2
       1       1       2       1       1       2       1       1       2       1
       1       2       1       1       2       1       1       2       1       1
       2       1       1       2       1       1       2       1       1       2
       1       1       2       1       1       2       1       1       2       1
       1       2       1       1       2       1       1       2       1       1
       2       1       1       2       1       1       2       1       1       2
       1       1       2       1       1       2       1       1       2       1
       1       2       1       1       2       1       1       2       1       1
       2       1       1       2       1       1       2       1       1       2
       1       1       2       1       1       2       1       1       2       1
       1       2       1       1       2       1       1       2       1       1
       2       1       1       2       1       1       2       1       1       2
       1       1       2       1       1       2       1       1       2       1
       1       2       1       1       2       1       1       2       1       1
       2       1       1       2       1       1       2       1       1       2
       1       1       2       1       1       2       1       1       2       1
       1       2       1       1       2       1       1       2       1       1
       2       1       1       2       1       1       2       1       1       2
       1       1       2       1       1       2       1       1       2       1
       1       2       1       1       2       1       1       2       1       1
       2       1       1       2       1       1       2       1       1       2
       1       1       2       1       1       2       1       1       2       1
       1       2       1       1       2       1       1       2       1       1
       2       1       1       2       1       1       2       1       1       2
       1       1       2       1       1       2       1       1       2       1
       1       2       1       1       2       1       1       2       1       1
       2       1       1       2       1       1       2       1       1       2
       1       1       2       1       1       2       1       1       2       1
       1       2       1       1       2       1       1       2       1       1
       2       1       1       2       1       1       2       1       1       2
       1       1       2       1       1       2       1       1       2       1
       1       2       1       1       2       1       1       2       1       1
       2       1       1       2       1       1       2       1       1       2
       1       1       2       1       1       2       1       1       2       1
       1       2       1       1       2       1       1       2       1       1
       2       1       1       2       1       1       2       1       1       2
       1       1       2       1       1       2       1       1       2       1
       1       2       1       1       2       1       1       2       1       1
       2       1       1       2       1       1       2       1       1       2
       1       1       2       1       1       2       1       1       2       1
       1       2       1       1       2       1       1       2       1       1
       2       1       1       2       1       1       2       1       1       2
       1       1       2       1       1       2       1       1       2       1
       1       2       1       1       2       1       1       2       1       1
       2       1       1       2       1       1       2       1       1       2
       1       1       2       1       1       2       1       1       2       1
       1       2       1       1       2       1       1       2       1       1
       2       1       1       2       1       1       2       1       1       2
       1       1       2       1       1       2       1       1       2       1
       1       2       1       1       2       1       1       2       1       1
       2       1       1       2       1       1       2       1       1       2
       1       1       2       1       1       2       1       1       2       1
       1       2       1       1       2       1       1       2       1       1
       2       1       1       2       1       1       2       1       1       2
       1       1       2       1       1       2       1       1       2       1
       1       2       1       1       2       1       1       2       1       1
       2       1       1       2       1       1       2       1       1       2
       1       1       2       1       1       2       1       1       2       1
       1       2       1       1       2       1       1       2       1       1
       2       1       1       2       1       1       2       1       1       2
       1       1       2       1       1       2       1       1       2       1
       1       2       1       1       2       1       1       2       1       1
       2       1       1       2       1       1       2       1       1       2
       1       1       2       1       1       2       1       1       2       1
       1       2       1       1       2       1       1       2       1       1
       2       1       1       2       1       1       2       1       1       2
       1       1       2       1       1       2       1       1       2       1
       1       2       1       1       2       1       1       2       1       1
       2       1       1       2       1       1       2       1       1       2
       1       1       2       1       1       2       1       1       2       1
       1       2       1       1       2       1       1       2       1       1
       2       1       1       2       1       1       2       1       1       2
       1       1       2       1       1       2       1       1       2       1
       1       2       1       1       2       1       1       2       1       1
       2       1       1       2       1       1       2       1       1       2
       1       1       2       1       1       2       1       1       2       1
       1       2       1       1       2       1       1       2       1       1
       2       1       1       2       1       1       2       1       1       2
       1       1       2       1       1       2       1       1       2       1
       1       2       1       1       2       1       1       2       1       1
       2       1       1       2       1       1       2       1       1       2
       1       1       2       1       1       2       1       1       2       1
       1       2       1       1       2       1       1       2       1       1
       2       1       1       2       1       1       2       1       1       2
       1       1       2       1       1       2       1       1       2       1
       1       2       1       1       2       1       1       2       1       1
       2       1       1       2       1       1       2       1       1       2
       1       1       2       1       1       2       1       1       2       1
       1       2       1       1       2       1       1       2       1       1
       2       1       1       2       1       1       2       1       1       2
       1       1       2       1       1       2       1       1       2       1
       1       2       1       1       2       1       1       2       1       1
       2       1       1       2       1       1       2       1       1       2
       1       1       2       1       1       2       1       1       2       1
       1       2       1       1       2       1       1       2       1       1
       2       1       1       2       1       1       2       1       1       2
       1       1       2       1       1       2       1       1       2       1
       1       2       1       1       2       1       1       2       1       1
       2       1       1       2       1       1       2       1       1       2
       1       1       2       1       1       2       1       1       2       1
       1       2       1       1       2       1       1       2       1       1
       2       1       1       2       1       1       2       1       1       2
       1       1       2       1       1       2       1       1       2       1
       1       2       1       1       2       1       1       2       1       1
       2       1       1       2       1       1       2       1       1       2
       1       1       2       1       1       2       1       1       2       1
       1       2       1       1       2       1       1       2       1       1
       2       1       1       2       1       1       2       1       1       2
       1       1       2       1       1       2       1       1       2       1
       1       2       1       1       2       1       1       2       1       1
       2       1       1       2       1       1       2       1       1       2
       1       1       2       1       1       2       1       1       2       1
       1       2       1       1       2       1       1       2       1       1
       2       1       1       2       1       1       2       1       1       2
       1       1       2       1       1       2       1       1       2       1
       1       2       1       1       2       1       1       2       1       1
       2       1       1       2       1       1       2       1       1       2
       1       1       2       1       1       2       1       1       2       1
       1       2       1       1       2       1       1       2       1       1
       2       1       1       2       1       1       2       1       1       2
       1       1       2       1       1       2       1       1       2       1
       1       2       1       1       2       1       1       2       1       1
       2       1       1       2       1       1       2       1       1       2
       1       1       2       1       1       2       1       1       2       1
       1       2       1       1       2       1       1       2       1       1
       2       1       1       2       1       1       2       1       1       2
       1       1       2       1       1       2       1       1       2       1
       1       2       1       1       2       1       1       2       1       1
       2       1       1       2       1       1       2       1       1       2
       1       1       2       1       1       2       1       1       2       1
       1       2       1       1       2       1       1       2       1       1
       2       1       1       2       1       1       2       1       1       2
       1       1       2       1       1       2       1       1       2       1
       1       2       1       1       2       1       1       2       1       1
       2       1       1       2       1       1       2       1       1       2
       1       1       2       1       1       2       1       1       2       1
       1       2       1       1       2       1       1       2       1       1
       2       1       1       2       1       1       2       1       1       2
       1       1       2       1       1       2       1       1       2       1
       1       2       1       1       2       1       1       2       1       1
       2       1       1       2       1       1       2       1       1       2
       1       1       2       1       1       2       1       1       2       1
       1       2       1       1       2       1       1       2       1       1
       2       1       1       2       1       1       2       1       1       2
       1       1       2       1       1       2       1       1       2       1
       1       2       1       1       2       1       1       2       1       1
       2       1       1       2       1       1       2       1       1       2
       1       1       2       1       1       2       1       1       2       1
       1       2       1       1       2       1       1       2       1       1
       2       1       1       2       1       1       2       1       1       2
       1       1       2       1       1       2       1       1       2       1
       1       2       1       1       2       1       1       2       1       1
       2       1       1       2       1       1       2       1       1       2
       1       1       2       1       1       2       1       1       2       1
       1       2       1       1       2       1       1       2       1       1
       2       1       1       2       1       1       2       1       1       2
       1       1       2       1       1       2       1       1       2       1
       1       2       1       1       2       1       1       2       1       1
       2       1       1       2       1       1       2       1       1       2
       1       1       2       1       1       2       1       1       2       1
       1       2       1       1       2       1       1       2       1       1
       2       1       1       2       1       1       2       1       1       2
       1       1       2       1       1       2       1       1       2       1
       1       2       1       1       2       1       1       2       1       1
       2       1       1       2       1       1       2       1       1       2
       1       1       2       1       1       2       1       1       2       1
       1       2       1       1       2       1       1       2       1       1
       2       1       1       2       1       1       2       1       1       2
       1       1       2       1       1       2       1       1       2       1
       1       2       1       1       2       1       1       2       1       1
       2       1       1       2       1       1       2       1       1       2
       1       1       2       1       1       2       1       1       2       1
       1       2       1       1       2       1       1       2       1       1
       2       1       1       2       1       1       2       1       1       2
       1       1       2       1       1       2       1       1       2       1
       1       2       1       1       2       1       1       2       1       1
       2       1       1       2       1       1       2       1       1       2
       1       1       2       1       1       2       1       1       2       1
       1       2       1       1       2       1       1       2       1       1
       2       1       1       2       1       1       2       1       1       2
       1       1       2       1       1       2       1       1       2       1
       1       2       1       1       2       1       1       2       1       1
       2       1       1       2       1       1       2       1       1       2
       1       1       2       1       1       2       1       1       2       1
       1       2       1       1       2       1       1       2       1       1
       2       1       1       2       1       1       2       1       1       2
       1       1       2       1       1       2       1       1       2       1
       1       2       1       1       2       1       1       2       1       1
       2       1       1       2       1       1       2       1       1       2
       1       1       2       1       1       2       1       1       2       1
       1       2       1       1       2       1       1       2       1       1
       2       1       1       2       1       1       2       1       1       2
       1       1       2       1       1       2       1       1       2       1
       1       2       1       1       2       1       1       2       1       1
       2       1       1       2       1       1       2       1       1       2
       1       1       2       1       1       2       1       1       2       1
       1       2       1       1       2       1       1       2       1       1
       2       1       1       2       1       1       2       1       1       2
       1       1       2       1       1       2       1       1       2       1
       1       2       1       1       2       1       1       2       1       1
       2       1       1       2       1       1       2       1       1       2
       1       1       2       1       1       2       1       1       2       1
       1       2       1       1       2       1       1       2       1       1
       2       1       1       2       1       1       2       1       1       2
       1       1       2       1       1       2       1       1       2       1
       1       2       1       1       2       1       1       2       1       1
       2       1       1       2       1       1       2       1       1       2
       1       1       2       1       1       2       1       1       2       1
       1       2       1       1       2       1       1       2       1       1
       2       1       1       2       1       1       2       1       1       2
       1       1       2       1       1       2       1       1       2       1
       1       2       1       1       2       1       1       2       1       1
       2       1       1       2       1       1       2       1       1       2
       1       1       2       1       1       2       1       1       2       1
       1       2       1       1       2       1       1       2       1       1
       2       1       1       2       1       1       2       1       1       2
       1       1       2       1       1       2       1       1       2       1
       1       2       1       1       2       1       1       2       1       1
       2       1       1       2       1       1       2       1       1       2
       1       1       2       1       1       2       1       1       2       1
       1       2       1       1       2       1       1       2       1       1
       2       1       1       2       1       1       2       1       1       2
       1       1       2       1       1       2       1       1       2       1
       1       2       1       1       2       1       1       2       1       1
       2       1       1       2       1       1       2       1       1       2
       1       1       2       1       1       2       1       1       2       1
       1       2       1       1       2       1       1       2       1       1
       2       1       1       2       1       1       2       1       1       2
       1       1       2       1       1       2       1       1       2       1
       1       2       1       1       2       1       1       2       1       1
       2       1       1       2       1       1       2       1       1       2
       1       1       2       1       1       2       1       1       2       1
       1       2       1       1       2       1       1       2       1       1
       2       1       1       2       1       1       2       1       1       2
       1       1       2       1       1       2       1       1       2       1
       1       2       1       1       2       1       1       2       1       1
       2       1       1       2       1       1       2       1       1       2
       1       1       2       1       1       2       1       1       2       1
       1       2       1       1       2       1       1       2       1       1
       2       1       1       2       1       1       2       1       1       2
       1       1       2       1       1       2       1       1       2       1
       1       2       1       1       2       1       1       2       1       1
       2       1       1       2       1       1       2       1       1       2
       1       1       2       1       1       2       1       1       2       1
       1       2       1       1       2       1       1       2       1       1
       2       1       1       2       1       1       2       1       1       2
       1       1       2       1       1       2       1       1       2       1
       1       2       1       1       2       1       1       2       1       1
       2       1       1       2       1       1       2       1       1       2
       1       1       2       1       1       2       1       1       2       1
       1       2       1       1       2       1       1       2       1       1
       2       1       1       2       1       1       2       1       1       2
       1       1       2       1       1       2       1       1       2       1
       1       2       1       1       2       1       1       2       1       1
       2       1       1       2       1       1       2       1       1       2
       1       1       2       1       1       2       1       1       2       1
       1       2       1       1       2       1       1       2       1       1
       2       1       1       2       1       1       2       1       1       2
       1       1       2       1       1       2       1       1       2       1
       1       2       1       1       2       1       1       2       1       1
       2       1       1       2       1       1       2       1       1       2
       1       1       2       1       1       2       1       1       2       1
       1       2       1       1       2       1       1       2       1       1
       2       1       1       2       1       1       2       1       1       2
       1       1       2       1       1       2       1       1       2       1
       1       2       1       1       2       1       1       2       1       1
       2       1       1       2       1       1       2       1       1       2
       1       1       2       1       1       2       1       1       2       1
       1       2       1       1       2       1       1       2       1       1
       2       1       1       2       1       1       2       1       1       2
       1       1       2       1       1       2       1       1       2       1
       1       2       1       1       2       1       1       2       1       1
       2       1       1       2       1       1       2       1       1       2
       1       1       2       1       1       2       1       1       2       1
       1       2       1       1       2       1       1       2       1       1
       2       1       1       2       1       1       2       1       1       2
       1       1       2       1       1       2       1       1       2       1
       1       2       1       1       2       1       1       2       1       1
       2       1       1       2       1       1       2       1       1       2
       1       1       2       1       1       2       1       1       2       1
       1       2       1       1       2       1       1       2       1       1
       2       1       1       2       1       1       2       1       1       2
       1       1       2       1       1       2       1       1       2       1
       1       2       1       1       2       1       1       2       1       1
       2       1       1       2       1       1       2       1       1       2
       1       1       2       1       1       2       1       1       2       1
       1       2       1       1       2       1       1       2       1       1
       2       1       1       2       1       1       2       1       1       2
       1       1       2       1       1       2       1       1       2       1
       1       2       1       1       2       1       1       2       1       1
       2       1       1       2       1       1       2       1       1       2
       1       1       2       1       1       2       1       1       2       1
       1       2       1       1       2       1       1       2       1       1
       2       1       1       2       1       1       2       1       1       2
       1       1       2       1       1       2       1       1       2       1
       1       2       1       1       2       1       1       2       1       1
       2       1       1       2       1       1       2       1       1       2
       1       1       2       1       1       2       1       1       2       1
       1       2       1       1       2       1       1       2       1       1
       2       1       1       2       1       1       2       1       1       2
       1       1       2       1       1       2       1       1       2       1
       1       2       1       1       2       1       1       2       1       1
       2       1       1       2       1       1       2       1       1       2
       1       1       2       1       1       2       1       1       2       1
       1       2       1       1       2       1       1       2       1       1
       2       1       1       2       1       1       2       1       1       2
       1       1       2       1       1       2       1       1       2       1
       1       2       1       1       2       1       1       2       1       1
       2       1       1       2       1       1       2       1       1       2
       1       1       2       1       1       2       1       1       2       1
       1       2       1       1       2       1       1       2       1       1
       2       1       1       2       1       1       2       1       1       2
       1       1       2       1       1       2       1       1       2       1
       1       2       1       1       2       1       1       2       1       1
       2       1       1       2       1       1       2       1       1       2
       1       1       2       1       1       2       1       1       2       1
       1       2       1       1       2       1       1       2       1       1
       2       1       1       2       1       1       2       1       1       2
       1       1       2       1       1       2       1       1       2       1
       1       2       1       1       2       1       1       2       1       1
       2       1       1       2       1       1       2       1       1       2
       1       1       2       1       1       2       1       1       2       1
       1       2       1       1       2       1       1       2       1       1
       2       1       1       2       1       1       2       1       1       2
       1       1       2       1       1       2       1       1       2       1
       1       2       1       1       2       1       1       2       1       1
       2       1       1       2       1       1       2       1       1       2
       1       1       2       1       1       2       1       1       2       1
       1       2       1       1       2       1       1       2       1       1
       2       1       1       2       1       1       2       1       1       2
       1       1       2       1       1       2       1       1       2       1
       1       2       1       1       2       1       1       2       1       1
       2       1       1       2       1       1       2       1       1       2
       1       1       2       1       1       2       1       1       2       1
       1       2       1       1       2       1       1       2       1       1
       2       1       1       2       1       1       2       1       1       2
       1       1       2       1       1       2       1       1       2       1
       1       2       1       1       2       1       1       2       1       1
       2       1       1       2       1       1       2       1       1       2
       1       1       2       1       1       2       1       1       2       1
       1       2       1       1       2       1       1       2       1       1
       2       1       1       2       1       1       2       1       1       2
       1       1       2       1       1       2       1       1       2       1
       1       2       1       1       2       1       1       2       1       1
       2       1       1       2       1       1       2       1       1       2
       1       1       2       1       1       2       1       1       2       1
       1       2       1       1       2       1       1       2       1       1
       2       1       1       2       1       1       2       1       1       2
       1       1       2       1       1       2       1       1       2       1
       1       2       1       1       2       1       1       2       1       1
       2       1       1       2       1       1       2       1       1       2
       1       1       2       1       1       2       1       1       2       1
       1       2       1       1       2       1       1       2       1       1
       2       1       1       2       1       1       2       1       1       2
       1       1       2       1       1       2       1       1       2       1
       1       2       1       1       2       1       1       2       1       1
       2       1       1       2       1       1       2       1       1       2
       1       1       2       1       1       2       1       1       2       1
       1       2       1       1       2       1       1       2       1       1
       2       1       1       2       1       1       2       1       1       2
       1       1       2       1       1       2       1       1       2       1
       1       2       1       1       2       1       1       2       1       1
       2       1       1       2       1       1       2       1       1       2
       1       1       2       1       1       2       1       1       2       1
       1       2       1       1       2       1       1       2       1       1
       2       1       1       2       1       1       2       1       1       2
       1       1       2       1       1       2       1       1       2       1
       1       2       1       1       2       1       1       2       1       1
       2       1       1       2       1       1       2       1       1       2
       1       1       2       1       1       2       1       1       2       1
       1       2       1       1       2       1       1       2       1       1
       2       1       1       2       1       1       2       1       1       2
       1       1       2       1       1       2       1       1       2       1
       1       2       1       1       2       1       1       2       1       1
       2       1       1       2       1       1       2       1       1       2
       1       1       2       1       1       2       1       1       2       1
       1       2       1       1       2       1       1       2       1       1
       2       1       1       2       1       1       2       1       1       2
       1       1       2       1       1       2       1       1       2       1
       1       2       1       1       2       1       1       2       1       1
       2       1       1       2       1       1       2       1       1       2
       1       1       2       1       1       2       1       1       2       1
       1       2       1       1       2       1       1       2       1       1
       2       1       1       2       1       1       2       1       1       2
       1       1       2       1       1       2       1       1       2       1
       1       2       1       1       2       1       1       2       1       1
       2       1       1       2       1       1       2       1       1       2
       1       1       2       1       1       2       1       1       2       1
       1       2       1       1       2       1       1       2       1       1
       2       1       1       2       1       1       2       1       1       2
       1       1       2       1       1       2       1       1       2       1
       1       2       1       1       2       1       1       2       1       1
       2       1       1       2       1       1       2       1       1       2
       1       1       2       1       1       2       1       1       2       1
       1       2       1       1       2       1       1       2       1       1
       2       1       1       2       1       1       2       1       1       2
       1       1       2       1       1       2       1       1       2       1
       1       2       1       1       2       1       1       2       1       1
       2       1       1       2       1       1       2       1       1       2
       1       1       2       1       1       2       1       1       2       1
       1       2       1       1       2       1       1       2       1       1
       2       1       1       2       1       1       2       1       1       2
       1       1       2       1       1       2       1       1       2       1
       1       2       1       1       2       1       1       2       1       1
       2       1       1       2       1       1       2       1       1       2
       1       1       2       1       1       2       1       1       2       1
       1       2       1       1       2       1       1       2       1       1
       2       1       1       2       1       1       2       1       1       2
       1       1       2       1       1       2       1       1       2       1
       1       2       1       1       2       1       1       2       1       1
       2       1       1       2       1       1       2       1       1       2
       1       1       2       1       1       2       1       1       2       1
       1       2       1       1       2       1       1       2       1       1
       2       1       1       2       1       1       2       1       1       2
       1       1       2       1       1       2       1       1       2       1
       1       2       1       1       2       1       1       2       1       1
       2       1       1       2       1       1       2       1       1       2
       1       1       2       1       1       2       1       1       2       1
       1       2       1       1       2       1       1       2       1       1
       2       1       1       2       1       1       2       1       1       2
       1       1       2       1       1       2       1       1       2       1
       1       2       1       1       2       1       1       2       1       1
       2       1       1       2       1       1       2       1       1       2
       1       1       2       1       1       2       1       1       2       1
       1       2       1       1       2       1       1       2       1       1
       2       1       1       2       1       1       2       1       1       2
       1       1       2       1       1       2       1       1       2       1
       1       2       1       1       2       1       1       2       1       1
       2       1       1       2       1       1       2       1       1       2
       1       1       2       1       1       2       1       1       2       1
       1       2       1       1       2       1       1       2       1       1
       2       1       1       2       1       1       2       1       1       2
       1       1       2       1       1       2       1       1       2       1
       1       2       1       1       2       1       1       2       1       1
       2       1       1       2       1       1       2       1       1       2
       1       1       2       1       1       2       1       1       2       1
       1       2       1       1       2       1       1       2       1       1
       2       1       1       2       1       1       2       1       1       2
       1       1       2       1       1       2       1       1       2       1
       1       2       1       1       2       1       1       2       1       1
       2       1       1       2       1       1       2       1       1       2
       1       1       2       1       1       2       1       1       2       1
       1       2       1       1       2       1       1       2       1       1
       2       1       1       2       1       1       2       1       1       2
       1       1       2       1       1       2       1       1       2       1
       1       2       1       1       2       1       1       2       1       1
       2       1       1       2       1       1       2       1       1       2
       1       1       2       1       1       2       1       1       2       1
       1       2       1       1       2       1       1       2       1       1
       2       1       1       2       1       1       2       1       1       2
       1       1       2       1       1       2       1       1       2       1
       1       2       1       1       2       1       1       2       1       1
       2       1       1       2       1       1       2       1       1       2
       1       1       2       1       1       2       1       1       2       1
       1       2       1       1       2       1       1       2       1       1
       2       1       1       2       1       1       2       1       1       2
       1       1       2       1       1       2       1       1       2       1
       1       2       1       1       2       1       1       2       1       1
       2       1       1       2       1       1       2       1       1       2
       1       1       2       1       1       2       1       1       2       1
       1       2       1       1       2       1       1       2       1       1
       2       1       1       2       1       1       2       1       1       2
       1       1       2       1       1       2       1       1       2       1
       1       2       1       1       2       1       1       2       1       1
       2       1       1       2       1       1       2       1       1       2
       1       1       2       1       1       2       1       1       2       1
       1       2       1       1       2       1       1       2       1       1
       2       1       1       2       1       1       2       1       1       2
       1       1       2       1       1       2       1       1       2       1
       1       2       1       1       2       1       1       2       1       1
       2       1       1       2       1       1       2       1       1       2
       1       1       2       1       1       2       1       1       2       1
       1       2       1       1       2       1       1       2       1       1
       2       1       1       2       1       1       2       1       1       2
       1       1       2       1       1       2       1       1       2       1
       1       2       1       1       2       1       1       2       1       1
       2       1       1       2       1       1       2       1       1       2
       1       1       2       1       1       2       1       1       2       1
       1       2       1       1       2       1       1       2       1       1
       2       1       1       2       1       1       2       1       1       2
       1       1       2       1       1       2       1       1       2       1
       1       2       1       1       2       1       1       2       1       1
       2       1       1       2       1       1       2       1       1       2
       1       1       2       1       1       2       1       1       2       1
       1       2       1       1       2       1       1       2       1       1
       2       1       1       2       1       1       2       1       1       2
       1       1       2       1       1       2       1       1       2       1
       1       2       1       1       2       1       1       2       1       1
       2       1       1       2       1       1       2       1       1       2
       1       1       2       1       1       2       1       1       2       1
       1       2       1       1       2       1       1       2       1       1
       2       1       1       2       1       1       2       1       1       2
       1       1       2       1       1       2       1       1       2       1
       1       2       1       1       2       1       1       2       1       1
       2       1       1       2       1       1       2       1       1       2
       1       1       2       1       1       2       1       1       2       1
       1       2       1       1       2       1       1       2       1       1
       2       1       1       2       1       1       2       1       1       2
       1       1       2       1       1       2       1       1       2       1
       1       2       1       1       2       1       1       2       1       1
       2       1       1       2       1       1       2       1       1       2
       1       1       2       1       1       2       1       1       2       1
       1       2       1       1       2       1       1       2       1       1
       2       1       1       2       1       1       2       1       1       2
       1       1       2       1       1       2       1       1       2       1
       1       2       1       1       2       1       1       2       1       1
       2       1       1       2       1       1       2       1       1       2
       1       1       2       1       1       2       1       1       2       1
       1       2       1       1       2       1       1       2       1       1
       2       1       1       2       1       1       2       1       1       2
       1       1       2       1       1       2       1       1       2       1
       1       2       1       1       2       1       1       2       1       1
       2       1       1       2       1       1       2       1       1       2
       1       1       2       1       1       2       1       1       2       1
       1       2       1       1       2       1       1       2       1       1
       2       1       1       2       1       1       2       1       1       2
       1       1       2       1       1       2       1       1       2       1
       1       2       1       1       2       1       1       2       1       1
       2       1       1       2       1       1       2       1       1       2
       1       1       2       1       1       2       1       1       2       1
       1       2       1       1       2       1       1       2       1       1
       2       1       1       2       1       1       2       1       1       2
       1       1       2       1       1       2       1       1       2       1
       1       2       1       1       2       1       1       2       1       1
       2       1       1       2       1       1       2       1       1       2
       1       1       2       1       1       2       1       1       2       1
       1       2       1       1       2       1       1       2       1       1
       2       1       1       2       1       1       2       1       1       2
       1       1       2       1       1       2       1       1       2       1
       1       2       1       1       2       1       1       2       1       1
       2       1       1       2       1       1       2       1       1       2
       1       1       2       1       1       2       1       1       2       1
       1       2       1       1       2       1       1       2       1       1
       2       1       1       2       1       1       2       1       1       2
       1       1       2       1       1       2       1       1       2       1
       1       2       1       1       2       1       1       2       1       1
       2       1       1       2       1       1       2       1       1       2
       1       1       2       1       1       2       1       1       2       1
       1       2       1       1       2       1       1       2       1       1
       2       1       1       2       1       1       2       1       1       2
       1       1       2       1       1       2       1       1       2       1
       1       2       1       1       2       1       1       2       1       1
       2       1       1       2       1       1       2       1       1       2
       1       1       2       1       1       2       1       1       2       1
       1       2       1       1       2       1       1       2       1       1
       2       1       1       2       1       1       2       1       1       2
       1       1       2       1       1       2       1       1       2       1
       1       2       1       1       2       1       1       2       1       1
       2       1       1       2       1       1       2       1       1       2
       1       1       2       1       1       2       1       1       2       1
       1       2       1       1       2       1       1       2       1       1
       2       1       1       2       1       1       2       1       1       2
       1       1       2       1       1       2       1       1       2       1
       1       2       1       1       2       1       1       2       1       1
       2       1       1       2       1       1       2       1       1       2
       1       1       2       1       1       2       1       1       2       1
       1       2       1       1       2       1       1       2       1       1
       2       1       1       2       1       1       2       1       1       2
       1       1       2       1       1       2       1       1       2       1
       1       2       1       1       2       1       1       2       1       1
       2       1       1       2       1       1       2       1       1       2
       1       1       2       1       1       2       1       1       2       1
       1       2       1       1       2       1       1       2       1       1
       2       1       1       2       1       1       2       1       1       2
       1       1       2       1       1       2       1       1       2       1
       1       2       1       1       2       1       1       2       1       1
       2       1       1       2       1       1       2       1       1       2
       1       1       2       1       1       2       1       1       2       1
       1       2       1       1       2       1       1       2       1       1
       2       1       1       2       1       1       2       1       1       2
       1       1       2       1       1       2       1       1       2       1
       1       2       1       1       2       1       1       2       1       1
       2       1       1       2       1       1       2       1       1       2
       1       1       2       1       1       2       1       1       2       1
       1       2       1       1       2       1       1       2       1       1
       2       1       1       2       1       1       2       1       1       2
       1       1       2       1       1       2       1       1       2       1
       1       2       1       1       2       1       1       2       1       1
       2       1       1       2       1       1       2       1       1       2
       1       1       2       1       1       2       1       1       2       1
       1       2       1       1       2       1       1       2       1       1
       2       1       1       2       1       1       2       1       1       2
       1       1       2       1       1       2       1       1       2       1
       1       2       1       1       2       1       1       2       1       1
       2       1       1       2       1       1       2       1       1       2
       1       1       2       1       1       2       1       1       2       1
       1       2       1       1       2       1       1       2       1       1
       2       1       1       2       1       1       2       1       1       2
       1       1       2       1       1       2       1       1       2       1
       1       2       1       1       2       1       1       2       1       1
       2       1       1       2       1       1       2       1       1       2
       1       1       2       1       1       2       1       1       2       1
       1       2       1       1       2       1       1       2       1       1
       2       1       1       2       1       1       2       1       1       2
       1       1       2       1       1       2       1       1       2       1
       1       2       1       1       2       1       1       2       1       1
       2       1       1       2       1       1       2       1       1       2
       1       1       2       1       1       2       1       1       2       1
       1       2       1       1       2       1       1       2       1       1
       2       1       1       2       1       1       2       1       1       2
       1       1       2       1       1       2       1       1       2       1
       1       2       1       1       2       1       1       2       1       1
       2       1       1       2       1       1       2       1       1       2
       1       1       2       1       1       2       1       1       2       1
       1       2       1       1       2       1       1       2       1       1
       2       1       1       2       1       1       2       1       1       2
       1       1       2       1       1       2       1       1       2       1
       1       2       1       1       2       1       1       2       1       1
       2       1       1       2       1       1       2       1       1       2
       1       1       2       1       1       2       1       1       2       1
       1       2       1       1       2       1       1       2       1       1
       2       1       1       2       1       1       2       1       1       2
       1       1       2       1       1       2       1       1       2       1
       1       2       1       1       2       1       1       2       1       1
       2       1       1       2       1       1       2       1       1       2
       1       1       2       1       1       2       1       1       2       1
       1       2       1       1       2       1       1       2       1       1
       2       1       1       2       1       1       2       1       1       2
       1       1       2       1       1       2       1       1       2       1
       1       2       1       1       2       1       1       2       1       1
       2       1       1       2       1       1       2       1       1       2
       1       1       2       1       1       2       1       1       2       1
       1       2       1       1       2       1       1       2       1       1
       2       1       1       2       1       1       2       1       1       2
       1       1       2       1       1       2       1       1       2       1
       1       2       1       1       2       1       1       2       1       1
       2       1       1       2       1       1       2       1       1       2
       1       1       2       1       1       2       1       1       2       1
       1       2       1       1       2       1       1       2       1       1
       2       1       1       2       1       1       2       1       1       2
       1       1       2       1       1       2       1       1       2       1
       1       2       1       1       2       1       1       2       1       1
       2       1       1       2       1       1       2       1       1       2
       1       1       2       1       1       2       1       1       2       1
       1       2       1       1       2       1       1       2       1       1
       2       1       1       2       1       1       2       1       1       2
       1       1       2       1       1       2       1       1       2       1
       1       2       1       1       2       1       1       2       1       1
       2       1       1       2       1       1       2       1       1       2
       1       1       2       1       1       2       1       1       2       1
       1       2       1       1       2       1       1       2       1       1
       2       1       1       2       1       1       2       1       1       2
       1       1       2       1       1       2       1       1       2       1
       1       2       1       1       2       1       1       2       1       1
       2       1       1       2       1       1       2       1       1       2
       1       1       2       1       1       2       1       1       2       1
       1       2       1       1       2       1       1       2       1       1
       2       1       1       2       1       1       2       1       1       2
       1       1       2       1       1       2       1       1       2       1
       1       2       1       1       2       1       1       2       1       1
       2       1       1       2       1       1       2       1       1       2
       1       1       2       1       1       2       1       1       2       1
       1       2       1       1       2       1       1       2       1       1
       2       1       1       2       1       1       2       1       1       2
       1       1       2       1       1       2       1       1       2       1
       1       2       1       1       2       1       1       2       1       1
       2       1       1       2       1       1       2       1       1       2
       1       1       2       1       1       2       1       1       2       1
       1       2       1       1       2       1       1       2       1       1
       2       1       1       2       1       1       2       1       1       2
       1       1       2       1       1       2       1       1       2       1
       1       2       1       1       2       1       1       2       1       1
       2       1       1       2       1       1       2       1       1       2
       1       1       2       1       1       2       1       1       2       1
       1       2       1       1       2       1       1       2       1       1
       2       1       1       2       1       1       2       1       1       2
       1       1       2       1       1       2       1       1       2       1
       1       2       1       1       2       1       1       2       1       1
       2       1       1       2       1       1       2       1       1       2
       1       1       2       1       1       2       1       1       2       1
       1       2       1       1       2       1       1       2       1       1
       2       1       1       2       1       1       2       1       1       2
       1       1       2       1       1       2       1       1       2       1
       1       2       1       1       2       1       1       2       1       1
       2       1       1       2       1       1       2       1       1       2
       1       1       2       1       1       2       1       1       2       1
       1       2       1       1       2       1       1       2       1       1
       2       1       1       2       1       1       2       1       1       2
       1       1       2       1       1       2       1       1       2       1
       1       2       1       1       2       1       1       2       1       1
       2       1       1       2       1       1       2       1       1       2
       1       1       2       1       1       2       1       1       2       1
       1       2       1       1       2       1       1       2       1       1
       2       1       1       2       1       1       2       1       1       2
       1       1       2       1       1       2       1       1       2       1
       1       2       1       1       2       1       1       2       1       1
       2       1       1       2       1       1       2       1       1       2
       1       1       2       1       1       2       1       1       2       1
       1       2       1       1       2       1       1       2       1       1
       2       1       1       2       1       1       2       1       1       2
       1       1       2       1       1       2       1       1       2       1
       1       2       1       1       2       1       1       2       1       1
       2       1       1       2       1       1       2       1       1       2
       1       1       2       1       1       2       1       1       2       1
       1       2       1       1       2       1       1       2       1       1
       2       1       1       2       1       1       2       1       1       2
       1       1       2       1       1       2       1       1       2       1
       1       2       1       1       2       1       1       2       1       1
       2       1       1       2       1       1       2       1       1       2
       1       1       2       1       1       2       1       1       2       1
       1       2       1       1       2       1       1       2       1       1
       2       1       1       2       1       1       2       1       1       2
       1       1       2       1       1       2       1       1       2       1
       1       2       1       1       2       1       1       2       1       1
       2       1       1       2       1       1       2       1       1       2
       1       1       2       1       1       2       1       1       2       1
       1       2       1       1       2       1       1       2       1       1
       2       1       1       2       1       1       2       1       1       2
       1       1       2       1       1       2       1       1       2       1
       1       2       1       1       2       1       1       2       1       1
       2       1       1       2       1       1       2       1       1       2
       1       1       2       1       1       2       1       1       2       1
       1       2       1       1       2       1       1       2       1       1
       2       1       1       2       1       1       2       1       1       2
       1       1       2       1       1       2       1       1       2       1
       1       2       1       1       2       1       1       2       1       1
       2       1       1       2       1       1       2       1       1       2
       1       1       2       1       1       2       1       1       2       1
       1       2       1       1       2       1       1       2       1       1
       2       1       1       2       1       1       2       1       1       2
       1       1       2       1       1       2       1       1       2       1
       1       2       1       1       2       1       1       2       1       1
       2       1       1       2       1       1       2       1       1       2
       1       1       2       1       1       2       1       1       2       1
       1       2       1       1       2       1       1       2       1       1
       2       1       1       2       1       1       2       1       1       2
       1       1       2       1       1       2       1       1       2       1
       1       2       1       1       2       1       1       2       1       1
       2       1       1       2       1       1       2       1       1       2
       1       1       2       1       1       2       1       1       2       1
       1       2       1       1       2       1       1       2       1       1
       2       1       1       2       1       1       2       1       1       2
       1       1       2       1       1       2       1       1       2       1
       1       2       1       1       2       1       1       2       1       1
       2       1       1       2       1       1       2       1       1       2
       1       1       2       1       1       2       1       1       2       1
       1       2       1       1       2       1       1       2       1       1
       2       1       1       2       1       1       2       1       1       2
       1       1       2       1       1       2       1       1       2       1
       1       2       1       1       2       1       1       2       1       1
       2       1       1       2       1       1       2       1       1       2
       1       1       2       1       1       2       1       1       2       1
       1       2       1       1       2       1       1       2       1       1
       2       1       1       2       1       1       2       1       1       2
       1       1       2       1       1       2       1       1       2       1
       1       2       1       1       2       1       1       2       1       1
       2       1       1       2       1       1       2       1       1       2
       1       1       2       1       1       2       1       1       2       1
       1       2       1       1       2       1       1       2       1       1
       2       1       1       2       1       1       2       1       1       2
       1       1       2       1       1       2       1       1       2       1
       1       2       1       1       2       1       1       2       1       1
       2       1       1       2       1       1       2       1       1       2
       1       1       2       1       1       2       1       1       2       1
       1       2       1       1       2       1       1       2       1       1
       2       1       1       2       1       1       2       1       1       2
       1       1       2       1       1       2       1       1       2       1
       1       2       1       1       2       1       1       2       1       1
       2       1       1       2       1       1       2       1       1       2
       1       1       2       1       1       2       1       1       2       1
       1       2       1       1       2       1       1       2       1       1
       2       1       1       2       1       1       2       1       1       2
       1       1       2       1       1       2       1       1       2       1
       1       2       1       1       2       1       1       2       1       1
       2       1       1       2       1       1       2       1       1       2
       1       1       2       1       1       2       1       1       2       1
       1       2       1       1       2       1       1       2       1       1
       2       1       1       2       1       1       2       1       1       2
       1       1       2       1       1       2       1       1       2       1
       1       2       1       1       2       1       1       2       1       1
       2       1       1       2       1       1       2       1       1       2
       1       1       2       1       1       2       1       1       2       1
       1       2       1       1       2       1       1       2       1       1
       2       1       1       2       1       1       2       1       1       2
       1       1       2       1       1       2       1       1       2       1
       1       2       1       1       2       1       1       2       1       1
       2       1       1       2       1       1       2       1       1       2
       1       1       2       1       1       2       1       1       2       1
       1       2       1       1       2       1       1       2       1       1
       2       1       1       2       1       1       2       1       1       2
       1       1       2       1       1       2       1       1       2       1
       1       2       1       1       2       1       1       2       1       1
       2       1       1       2       1       1       2       1       1       2
       1       1       2       1       1       2       1       1       2       1
       1       2       1       1       2       1       1       2       1       1
       2       1       1       2       1       1       2       1       1       2
       1       1       2       1       1       2       1       1       2       1
       1       2       1       1       2       1       1       2       1       1
       2       1       1       2       1       1       2       1       1       2
       1       1       2       1       1       2       1       1       2       1
       1       2       1       1       2       1       1       2       1       1
       2       1       1       2       1       1       2       1       1       2
       1       1       2       1       1       2       1       1       2       1
       1       2       1       1       2       1       1       2       1       1
       2       1       1       2       1       1       2       1       1       2
       1       1       2       1       1       2       1       1       2       1
       1       2       1       1       2       1       1       2       1       1
       2       1       1       2       1       1       2       1       1       2
       1       1       2       1       1       2       1       1       2       1
       1       2       1       1       2       1       1       2       1       1
       2       1       1       2       1       1       2       1       1       2
       1       1       2       1       1       2       1       1       2       1
       1       2       1       1       2       1       1       2       1       1
       2       1       1       2       1       1       2       1       1       2
       1       1       2       1       1       2       1       1       2       1
       1       2       1       1       2       1       1       2       1       1
       2       1       1       2       1       1       2       1       1       2
       1       1       2       1       1       2       1       1       2       1
       1       2       1       1       2       1       1       2       1       1
       2       1       1       2       1       1       2       1       1       2
       1       1       2       1       1       2       1       1       2       1
       1       2       1       1       2       1       1       2       1       1
       2       1       1       2       1       1       2       1       1       2
       1       1       2       1       1       2       1       1       2       1
       1       2       1       1       2       1       1       2       1       1
       2       1       1       2       1       1       2       1       1       2
       1       1       2       1       1       2       1       1       2       1
       1       2       1       1       2       1       1       2       1       1
       2       1       1       2       1       1       2       1       1       2
       1       1       2       1       1       2       1       1       2       1
       1       2       1       1       2       1       1       2       1       1
       2       1       1       2       1       1       2       1       1       2
       1       1       2       1       1       2       1       1       2       1
       1       2       1       1       2       1       1       2       1       1
       2       1       1       2       1       1       2       1       1       2
       1       1       2       1       1       2       1       1       2       1
       1       2       1       1       2       1       1       2       1       1
       2       1       1       2       1       1       2       1       1       2
       1       1       2       1       1       2       1       1       2       1
       1       2       1       1       2       1       1       2       1       1
       2       1       1       2       1       1       2       1       1       2
       1       1       2       1       1       2       1       1       2       1
       1       2       1       1       2       1       1       2       1       1
       2       1       1       2       1       1       2       1       1       2
       1       1       2       1       1       2       1       1       2       1
       1       2       1       1       2       1       1       2       1       1
       2       1       1       2       1       1       2       1       1       2
       1       1       2       1       1       2       1       1       2       1
       1       2       1       1       2       1       1       2       1       1
       2       1       1       2       1       1       2       1       1       2
       1       1       2       1       1       2       1       1       2       1
       1       2       1       1       2       1       1       2       1       1
       2       1       1       2       1       1       2       1       1       2
       1       1       2       1       1       2       1       1       2       1
       1       2       1       1       2       1       1       2       1       1
       2       1       1       2       1       1       2       1       1       2
       1       1       2       1       1       2       1       1       2       1
       1       2       1       1       2       1       1       2       1       1
       2       1       1       2       1       1       2       1       1       2
       1       1       2       1       1       2       1       1       2       1
       1       2       1       1       2       1       1       2       1       1
       2       1       1       2       1       1       2       1       1       2
       1       1       2       1       1       2       1       1       2       1
       1       2       1       1       2       1       1       2       1       1
       2       1       1       2       1       1       2       1       1       2
       1       1       2       1       1       2       1       1       2       1
       1       2       1       1       2       1       1       2       1       1
       2       1       1       2       1       1       2       1       1       2
       1       1       2       1       1       2       1       1       2       1
       1       2       1       1       2       1       1       2       1       1
       2       1       1       2       1       1       2       1       1       2
       1       1       2       1       1       2       1       1       2       1
       1       2       1       1       2       1       1       2       1       1
       2       1       1       2       1       1       2       1       1       2
       1       1       2       1       1       2       1       1       2       1
       1       2       1       1       2       1       1       2       1       1
       2       1       1       2       1       1       2       1       1       2
       1       1       2       1       1       2       1       1       2       1
       1       2       1       1       2       1       1       2       1       1
       2       1       1       2       1       1       2       1       1       2
       1       1       2       1       1       2       1       1       2       1
       1       2       1       1       2       1       1       2       1       1
       2       1       1       2       1       1       2       1       1       2
       1       1       2       1       1       2       1       1       2       1
       1       2       1       1       2       1       1       2       1       1
       2       1       1       2       1       1       2       1       1       2
       1       1       2       1       1       2       1       1       2       1
       1       2       1       1       2       1       1       2       1       1
       2       1       1       2       1       1       2       1       1       2
       1       1       2       1       1       2       1       1       2       1
       1       2       1       1       2       1       1       2       1       1
       2       1       1       2       1       1       2       1       1       2
       1       1       2       1       1       2       1       1       2       1
       1       2       1       1       2       1       1       2       1       1
       2       1       1       2       1       1       2       1       1       2
       1       1       2       1       1       2       1       1       2       1
       1       2       1       1       2       1       1       2       1       1
       2       1       1       2       1       1       2       1       1       2
       1       1       2       1       1       2       1       1       2       1
       1       2       1       1       2       1       1       2       1       1
       2       1       1       2       1       1       2       1       1       2
       1       1       2       1       1       2       1       1       2       1
       1       2       1       1       2       1       1       2       1       1
       2       1       1       2       1       1       2       1       1       2
       1       1       2       1       1       2       1       1       2       1
       1       2       1       1       2       1       1       2       1       1
       2       1       1       2       1       1       2       1       1       2
       1       1       2       1       1       2       1       1       2       1
       1       2       1       1       2       1       1       2       1       1
       2       1       1       2       1       1       2       1       1       2
       1       1       2       1       1       2       1       1       2       1
       1       2       1       1       2       1       1       2       1       1
       2       1       1       2       1       1       2       1       1       2
       1       1       2       1       1       2       1       1       2       1
       1       2       1       1       2       1       1       2       1       1
       2       1       1       2       1       1       2       1       1       2
       1       1       2       1       1       2       1       1       2       1
       1       2       1       1       2       1       1       2       1       1
       2       1       1       2       1       1       2       1       1       2
       1       1       2       1       1       2       1       1       2       1
       1       2       1       1       2       1       1       2       1       1
       2       1       1       2       1       1       2       1       1       2
       1       1       2       1       1       2       1       1       2       1
       1       2       1       1       2       1       1       2       1       1
       2       1       1       2       1       1       2       1       1       2
       1       1       2       1       1       2       1       1       2       1
       1       2       1       1       2       1       1       2       1       1
       2       1       1       2       1       1       2       1       1       2
       1       1       2       1       1       2       1       1       2       1
       1       2       1       1       2       1       1       2       1       1
       2       1       1       2       1       1       2       1       1       2
       1       1       2       1       1       2       1       1       2       1
       1       2       1       1       2       1       1       2       1       1
       2       1       1       2       1       1       2       1       1       2
       1       1       2       1       1       2       1       1       2       1
       1       2       1       1       2       1       1       2       1       1
       2       1       1       2       1       1       2       1       1       2
       1       1       2       1       1       2       1       1       2       1
       1       2       1       1       2       1       1       2       1       1
       2       1       1       2       1       1       2       1       1       2
       1       1       2       1       1       2       1       1       2       1
       1       2       1       1       2       1       1       2       1       1
       2       1       1       2       1       1       2       1       1       2
       1       1       2       1       1       2       1       1       2       1
       1       2       1       1       2       1       1       2       1       1
       2       1       1       2       1       1       2       1       1       2
       1       1       2       1       1       2       1       1       2       1
       1       2       1       1       2       1       1       2       1       1
       2       1       1       2       1       1       2       1       1       2
       1       1       2       1       1       2       1       1       2       1
       1       2       1       1       2       1       1       2       1       1
       2       1       1       2       1       1       2       1       1       2
       1       1       2       1       1       2       1       1       2       1
       1       2       1       1       2       1       1       2       1       1
       2       1       1       2       1       1       2       1       1       2
       1       1       2       1       1       2       1       1       2       1
       1       2       1       1       2       1       1       2       1       1
       2       1       1       2       1       1       2       1       1       2
       1       1       2       1       1       2       1       1       2       1
       1       2       1       1       2       1       1       2       1       1
       2       1       1       2       1       1       2       1       1       2
       1       1       2       1       1       2       1       1       2       1
       1       2       1       1       2       1       1       2       1       1
       2       1       1       2       1       1       2       1       1       2
       1       1       2       1       1       2       1       1       2       1
       1       2       1       1       2       1       1       2       1       1
       2       1       1       2       1       1       2       1       1       2
       1       1       2       1       1       2       1       1       2       1
       1       2       1       1       2       1       1       2       1       1
       2       1       1       2       1       1       2       1       1       2
       1       1       2       1       1       2       1       1       2       1
       1       2       1       1       2       1       1       2       1       1
       2       1       1       2       1       1       2       1       1       2
       1       1       2       1       1       2       1       1       2       1
       1       2       1       1       2       1       1       2       1       1
       2       1       1       2       1       1       2       1       1       2
       1       1       2       1       1       2       1       1       2       1
       1       2       1       1       2       1       1       2       1       1
       2       1       1       2       1       1       2       1       1       2
       1       1       2       1       1       2       1       1       2       1
       1       2       1       1       2       1       1       2       1       1
       2       1       1       2       1       1       2       1       1       2
       1       1       2       1       1       2       1       1       2       1
       1       2       1       1       2       1       1       2       1       1
       2       1       1       2       1       1       2       1       1       2
       1       1       2       1       1       2       1       1       2       1
       1       2       1       1       2       1       1       2       1       1
       2       1       1       2       1       1       2       1       1       2
       1       1       2       1       1       2       1       1       2       1
       1       2       1       1       2       1       1       2       1       1
       2       1       1       2       1       1       2       1       1       2
       1       1       2       1       1       2       1       1       2       1
       1       2       1       1       2       1       1       2       1       1
       2       1       1       2       1       1       2       1       1       2
       1       1       2       1       1       2       1       1       2       1
       1       2       1       1       2       1       1       2       1       1
       2       1       1       2       1       1       2       1       1       2
       1       1       2       1       1       2       1       1       2       1
       1       2       1       1       2       1       1       2       1       1
       2       1       1       2       1       1       2       1       1       2
       1       1       2       1       1       2       1       1       2       1
       1       2       1       1       2       1       1       2       1       1
       2       1       1       2       1       1       2       1       1       2
       1       1       2       1       1       2       1       1       2       1
       1       2       1       1       2       1       1       2       1       1
       2       1       1       2       1       1       2       1       1       2
       1       1       2       1       1       2       1       1       2       1
       1       2       1       1       2       1       1       2       1       1
       2       1       1       2       1       1       2       1       1       2
       1       1       2       1       1       2       1       1       2       1
       1       2       1       1       2       1       1       2       1       1
       2       1       1       2       1       1       2       1       1       2
       1       1       2       1       1       2       1       1       2       1
       1       2       1       1       2       1       1       2       1       1
       2       1       1       2       1       1       2       1       1       2
       1       1       2       1       1       2       1       1       2       1
       1       2       1       1       2       1       1       2       1       1
       2       1       1       2       1       1       2       1       1       2
       1       1       2       1       1       2       1       1       2       1
       1       2       1       1       2       1       1       2       1       1
       2       1       1       2       1       1       2       1       1       2
       1       1       2       1       1       2       1       1       2       1
       1       2       1       1       2       1       1       2       1       1
       2       1       1       2       1       1       2       1       1       2
       1       1       2       1       1       2       1       1       2       1
       1       2       1       1       2       1       1       2       1       1
       2       1       1       2       1       1       2       1       1       2
       1       1       2       1       1       2       1       1       2       1
       1       2       1       1       2       1       1       2       1       1
       2       1       1       2       1       1       2       1       1       2
       1       1       2       1       1       2       1       1       2       1
       1       2       1       1       2       1       1       2       1       1
       2       1       1       2       1       1       2       1       1       2
       1       1       2       1       1       2       1       1       2       1
       1       2       1       1       2       1       1       2       1       1
       2       1       1       2       1       1       2       1       1       2
       1       1       2       1       1       2       1       1       2       1
       1       2       1       1       2       1       1       2       1       1
       2       1       1       2       1       1       2       1       1       2
       1       1       2       1       1       2       1       1       2       1
       1       2       1       1       2       1       1       2       1       1
       2       1       1       2       1       1       2       1       1       2
       1       1       2       1       1       2       1       1       2       1
       1       2       1       1       2       1       1       2       1       1
       2       1       1       2       1       1       2       1       1       2
       1       1       2       1       1       2       1       1       2       1
       1       2       1       1       2       1       1       2       1       1
       2       1       1       2       1       1       2       1       1       2
       1       1       2       1       1       2       1       1       2       1
       1       2       1       1       2       1       1       2       1       1
       2       1       1       2       1       1       2       1       1       2
       1       1       2       1       1       2       1       1       2       1
       1       2       1       1       2       1       1       2       1       1
       2       1       1       2       1       1       2       1       1       2
       1       1       2       1       1       2       1       1       2       1
       1       2       1       1       2       1       1       2       1       1
       2       1       1       2       1       1       2       1       1       2
       1       1       2       1       1       2       1       1       2       1
       1       2       1       1       2       1       1       2       1       1
       2       1       1       2       1       1       2       1       1       2
       1       1       2       1       1       2       1       1       2       1
       1       2       1       1       2       1       1       2       1       1
       2       1       1       2       1       1       2       1       1       2
       1       1       2       1       1       2       1       1       2       1
       1       2       1       1       2       1       1       2       1       1
       2       1       1       2       1       1       2       1       1       2
       1       1       2       1       1       2       1       1       2       1
       1       2       1       1       2       1       1       2       1       1
       2       1       1       2       1       1       2       1       1       2
       1       1       2       1       1       2       1       1       2       1
       1       2       1       1       2       1       1       2       1       1
       2       1       1       2       1       1       2       1       1       2
       1       1       2       1       1       2       1       1       2       1
       1       2       1       1       2       1       1       2       1       1
       2       1       1       2       1       1       2       1       1       2
       1       1       2       1       1       2       1       1       2       1
       1       2       1       1       2       1       1       2       1       1
       2       1       1       2       1       1       2       1       1       2
       1       1       2       1       1       2       1       1       2       1
       1       2       1       1       2       1       1       2       1       1
       2       1       1       2       1       1       2       1       1       2
       1       1       2       1       1       2       1       1       2       1
       1       2       1       1       2       1       1       2       1       1
       2       1       1       2       1       1       2       1       1       2
       1       1       2       1       1       2       1       1       2       1
       1       2       1       1       2       1       1       2       1       1
       2       1       1       2       1       1       2       1       1       2
       1       1       2       1       1       2       1       1       2       1
       1       2       1       1       2       1       1       2       1       1
       2       1       1       2       1       1       2       1       1       2
       1       1       2       1       1       2       1       1       2       1
       1       2       1       1       2       1       1       2       1       1
       2       1       1       2       1       1       2       1       1       2
       1       1       2       1       1       2       1       1       2       1
       1       2       1       1       2       1       1       2       1       1
       2       1       1       2       1       1       2       1       1       2
       1       1       2       1       1       2       1       1       2       1
       1       2       1       1       2       1       1       2       1       1
       2       1       1       2       1       1       2       1       1       2
       1       1       2       1       1       2       1       1       2       1
       1       2       1       1       2       1       1       2       1       1
       2       1       1       2       1       1       2       1       1       2
       1       1       2       1       1       2       1       1       2       1
       1       2       1       1       2       1       1       2       1       1
       2       1       1       2       1       1       2       1       1       2
       1       1       2       1       1       2       1       1       2       1
       1       2       1       1       2       1       1       2       1       1
       2       1       1       2       1       1       2       1       1       2
       1       1       2       1       1       2       1       1       2       1
       1       2       1       1       2       1       1       2       1       1
       2       1       1       2       1       1       2       1       1       2
       1       1       2       1       1       2       1       1       2       1
       1       2       1       1       2       1       1       2       1       1
       2       1       1       2       1       1       2       1       1       2
       1       1       2       1       1       2       1       1       2       1
       1       2       1       1       2       1       1       2       1       1
       2       1       1       2       1       1       2       1       1       2
       1       1       2       1       1       2       1       1       2       1
       1       2       1       1       2       1       1       2       1       1
       2       1       1       2       1       1       2       1       1       2
       1       1       2       1       1       2       1       1       2       1
       1       2       1       1       2       1       1       2       1       1
       2       1       1       2       1       1       2       1       1       2
       1       1       2       1       1       2       1       1       2       1
       1       2       1       1       2       1       1       2       1       1
       2       1       1       2       1       1       2       1       1       2
       1       1       2       1       1       2       1       1       2       1
       1       2       1       1       2       1       1       2       1       1
       2       1       1       2       1       1       2       1       1       2
       1       1       2       1       1       2       1       1       2       1
       1       2       1       1       2       1       1       2       1       1
       2       1       1       2       1       1       2       1       1       2
       1       1       2       1       1       2       1       1       2       1
       1       2       1       1       2       1       1       2       1       1
       2       1       1       2       1       1       2       1       1       2
       1       1       2       1       1       2       1       1       2       1
       1       2       1       1       2       1       1       2       1       1
       2       1       1       2       1       1       2       1       1       2
       1       1       2       1       1       2       1       1       2       1
       1       2       1       1       2       1       1       2       1       1
       2       1       1       2       1       1       2       1       1       2
       1       1       2       1       1       2       1       1       2       1
       1       2       1       1       2       1       1       2       1       1
       2       1       1       2       1       1       2       1       1       2
       1       1       2       1       1       2       1       1       2       1
       1       2       1       1       2       1       1       2       1       1
       2       1       1       2       1       1       2       1       1       2
       1       1       2       1       1       2       1       1       2       1
       1       2       1       1       2       1       1       2       1       1
       2       1       1       2       1       1       2       1       1       2
       1       1       2       1       1       2       1       1       2       1
       1       2       1       1       2       1       1       2       1       1
       2       1       1       2       1       1       2       1       1       2
       1       1       2       1       1       2       1       1       2       1
       1       2       1       1       2       1       1       2       1       1
       2       1       1       2       1       1       2       1       1       2
       1       1       2       1       1       2       1       1       2       1
       1       2       1       1       2       1       1       2       1       1
       2       1       1       2       1       1       2       1       1       2
       1       1       2       1       1       2       1       1       2       1
       1       2       1       1       2       1       1       2       1       1
       2       1       1       2       1       1       2       1       1       2
       1       1       2       1       1       2       1       1       2       1
       1       2       1       1       2       1       1       2       1       1
       2       1       1       2       1       1       2       1       1       2
       1       1       2       1       1       2       1       1       2       1
       1       2       1       1       2       1       1       2       1       1
       2       1       1       2       1       1       2       1       1       2
       1       1       2       1       1       2       1       1       2       1
       1       2       1       1       2       1       1       2       1       1
       2       1       1       2       1       1       2       1       1       2
       1       1       2       1       1       2       1       1       2       1
       1       2       1       1       2       1       1       2       1       1
       2       1       1       2       1       1       2       1       1       2
       1       1       2       1       1       2       1       1       2       1
       1       2       1       1       2       1       1       2       1       1
       2       1       1       2       1       1       2       1       1       2
       1       1       2       1       1       2       1       1       2       1
       1       2       1       1       2       1       1       2       1       1
       2       1       1       2       1       1       2       1       1       2
       1       1       2       1       1       2       1       1       2       1
       1       2       1       1       2       1       1       2       1       1
       2       1       1       2       1       1       2       1       1       2
       1       1       2       1       1       2       1       1       2       1
       1       2       1       1       2       1       1       2       1       1
       2       1       1       2       1       1       2       1       1       2
       1       1       2       1       1       2       1       1       2       1
       1       2       1       1       2       1       1       2       1       1
       2       1       1       2       1       1       2       1       1       2
       1       1       2       1       1       2       1       1       2       1
       1       2       1       1       2       1       1       2       1       1
       2       1       1       2       1       1       2       1       1       2
       1       1       2       1       1       2       1       1       2       1
       1       2       1       1       2       1       1       2       1       1
       2       1       1       2       1       1       2       1       1       2
       1       1       2       1       1       2       1       1       2       1
       1       2       1       1       2       1       1       2       1       1
       2       1       1       2       1       1       2       1       1       2
       1       1       2       1       1       2       1       1       2       1
       1       2       1       1       2       1       1       2       1       1
       2       1       1       2       1       1       2       1       1       2
       1       1       2       1       1       2       1       1       2       1
       1       2       1       1       2       1       1       2       1       1
       2       1       1       2       1       1       2       1       1       2
       1       1       2       1       1       2       1       1       2       1
       1       2       1       1       2       1       1       2       1       1
       2       1       1       2       1       1       2       1       1       2
       1       1       2       1       1       2       1       1       2       1
       1       2       1       1       2       1       1       2       1       1
       2       1       1       2       1       1       2       1       1       2
       1       1       2       1       1       2       1       1       2       1
       1       2       1       1       2       1       1       2       1       1
       2       1       1       2       1       1       2       1       1       2
       1       1       2       1       1       2       1       1       2       1
       1       2       1       1       2       1       1       2       1       1
       2       1       1       2       1       1       2       1       1       2
       1       1       2       1       1       2       1       1       2       1
       1       2       1       1       2       1       1       2       1       1
       2       1       1       2       1       1       2       1       1       2
       1       1       2       1       1       2       1       1       2       1
       1       2       1       1       2       1       1       2       1       1
       2       1       1       2       1       1       2       1       1       2
       1       1       2       1       1       2       1       1       2       1
       1       2       1       1       2       1       1       2       1       1
       2       1       1       2       1       1       2       1       1       2
       1       1       2       1       1       2       1       1       2       1
       1       2       1       1       2       1       1       2       1       1
       2       1       1       2       1       1       2       1       1       2
       1       1       2       1       1       2       1       1       2       1
       1       2       1       1       2       1       1       2       1       1
       2       1       1       2       1       1       2       1       1       2
       1       1       2       1       1       2       1       1       2       1
       1       2       1       1       2       1       1       2       1       1
       2       1       1       2       1       1       2       1       1       2
       1       1       2       1       1       2       1       1       2       1
       1       2       1       1       2       1       1       2       1       1
       2       1       1       2       1       1       2       1       1       2
       1       1       2       1       1       2       1       1       2       1
       1       2       1       1       2       1       1       2       1       1
       2       1       1       2       1       1       2       1       1       2
       1       1       2       1       1       2       1       1       2       1
       1       2       1       1       2       1       1       2       1       1
       2       1       1       2       1       1       2       1       1       2
       1       1       2       1       1       2       1       1       2       1
       1       2       1       1       2       1       1       2       1       1
       2       1       1       2       1       1       2       1       1       2
       1       1       2       1       1       2       1       1       2       1
       1       2       1       1       2       1       1       2       1       1
       2       1       1       2       1       1       2       1       1       2
       1       1       2       1       1       2       1       1       2       1
       1       2       1       1       2       1       1       2       1       1
       2       1       1       2       1       1       2       1       1       2
       1       1       2       1       1       2       1       1       2       1
       1       2       1       1       2       1       1       2       1       1
       2       1       1       2       1       1       2       1       1       2
       1       1       2       1       1       2       1       1       2       1
       1       2       1       1       2       1       1       2       1       1
       2       1       1       2       1       1       2       1       1       2
       1       1       2       1       1       2       1       1       2       1
       1       2       1       1       2       1       1       2       1       1
       2       1       1       2       1       1       2       1       1       2
       1       1       2       1       1       2       1       1       2       1
       1       2       1       1       2       1       1       2       1       1
       2       1       1       2       1       1       2       1       1       2
       1       1       2       1       1       2       1       1       2       1
       1       2       1       1       2       1       1       2       1       1
       2       1       1       2       1       1       2       1       1       2
       1       1       2       1       1       2       1       1       2       1
       1       2       1       1       2       1       1       2       1       1
       2       1       1       2       1       1       2       1       1       2
       1       1       2       1       1       2       1       1       2       1
       1       2       1       1       2       1       1       2       1       1
       2       1       1       2       1       1       2       1       1       2
       1       1       2       1       1       2       1       1       2       1
       1       2       1       1       2       1       1       2       1       1
       2       1       1       2       1       1       2       1       1       2
       1       1       2       1       1       2       1       1       2       1
       1       2       1       1       2       1       1       2       1       1
       2       1       1       2       1       1       2       1       1       2
       1       1       2       1       1       2       1       1       2       1
       1       2       1       1       2       1       1       2       1       1
       2       1       1       2       1       1       2       1       1       2
       1       1       2       1       1       2       1       1       2       1
       1       2       1       1       2       1       1       2       1       1
       2       1       1       2       1       1       2       1       1       2
       1       1       2       1       1       2       1       1       2       1
       1       2       1       1       2       1       1       2       1       1
       2       1       1       2       1       1       2       1       1       2
       1       1       2       1       1       2       1       1       2       1
       1       2       1       1       2       1       1       2       1       1
       2       1       1       2       1       1       2       1       1       2
       1       1       2       1       1       2       1       1       2       1
       1       2       1       1       2       1       1       2       1       1
       2       1       1       2       1       1       2       1       1       2
       1       1       2       1       1       2       1       1       2       1
       1       2       1       1       2       1       1       2       1       1
       2       1       1       2       1       1       2       1       1       2
       1       1       2       1       1       2       1       1       2       1
       1       2       1       1       2       1       1       2       1       1
       2       1       1       2       1       1       2       1       1       2
       1       1       2       1       1       2       1       1       2       1
       1       2       1       1       2       1       1       2       1       1
       2       1       1       2       1       1       2       1       1       2
       1       1       2       1       1       2       1       1       2       1
       1       2       1       1       2       1       1       2       1       1
       2       1       1       2       1       1       2       1       1       2
       1       1       2       1       1       2       1       1       2       1
       1       2       1       1       2       1       1       2       1       1
       2       1       1       2       1       1       2       1       1       2
       1       1       2       1       1       2       1       1       2       1
       1       2       1       1       2       1       1       2       1       1
       2       1       1       2       1       1       2       1       1       2
       1       1       2       1       1       2       1       1       2       1
       1       2       1       1       2       1       1       2       1       1
       2       1       1       2       1       1       2       1       1       2
       1       1       2       1       1       2       1       1       2       1
       1       2       1       1       2       1       1       2       1       1
       2       1       1       2       1       1       2       1       1       2
       1       1       2       1       1       2       1       1       2       1
       1       2       1       1       2       1       1       2       1       1
       2       1       1       2       1       1       2       1       1       2
       1       1       2       1       1       2       1       1       2       1
       1       2       1       1       2       1       1       2       1       1
       2       1       1       2       1       1       2       1       1       2
       1       1       2       1       1       2       1       1       2       1
       1       2       1       1       2       1       1       2       1       1
       2       1       1       2       1       1       2       1       1       2
       1       1       2       1       1       2       1       1       2       1
       1       2       1       1       2       1       1       2       1       1
       2       1       1       2       1       1       2       1       1       2
       1       1       2       1       1       2       1       1       2       1
       1       2       1       1       2       1       1       2       1       1
       2       1       1       2       1       1       2       1       1       2
       1       1       2       1       1       2       1       1       2       1
       1       2       1       1       2       1       1       2       1       1
       2       1       1       2       1       1       2       1       1       2
       1       1       2       1       1       2       1       1       2       1
       1       2       1       1       2       1       1       2       1       1
       2       1       1       2       1       1       2       1       1       2
       1       1       2       1       1       2       1       1       2       1
       1       2       1       1       2       1       1       2       1       1
       2       1       1       2       1       1       2       1       1       2
       1       1       2       1       1       2       1       1       2       1
       1       2       1       1       2       1       1       2       1       1
       2       1       1       2       1       1       2       1       1       2
       1       1       2       1       1       2       1       1       2       1
       1       2       1       1       2       1       1       2       1       1
       2       1       1       2       1       1       2       1       1       2
       1       1       2       1       1       2       1       1       2       1
       1       2       1       1       2       1       1       2       1       1
       2       1       1       2       1       1       2       1       1       2
       1       1       2       1       1       2       1       1       2       1
       1       2       1       1       2       1       1       2       1       1
       2       1       1       2       1       1       2       1       1       2
       1       1       2       1       1       2       1       1       2       1
       1       2       1       1       2       1       1       2       1       1
       2       1       1       2       1       1       2       1       1       2
       1       1       2       1       1       2       1       1       2       1
       1       2       1       1       2       1       1       2       1       1
       2       1       1       2       1       1       2       1       1       2
       1       1       2       1       1       2       1       1       2       1
       1       2       1       1       2       1       1       2       1       1
       2       1       1       2       1       1       2       1       1       2
       1       1       2       1       1       2       1       1       2       1
       1       2       1       1       2       1       1       2       1       1
       2       1       1       2       1       1       2       1       1       2
       1       1       2       1       1       2       1       1       2       1
       1       2       1       1       2       1       1       2       1       1
       2       1       1       2       1       1       2       1       1       2
       1       1       2       1       1       2       1       1       2       1
       1       2       1       1       2       1       1       2       1       1
       2       1       1       2       1       1       2       1       1       2
       1       1       2       1       1       2       1       1       2       1
       1       2       1       1       2       1       1       2       1       1
       2       1       1       2       1       1       2       1       1       2
       1       1       2       1       1       2       1       1       2       1
       1       2       1       1       2       1       1       2       1       1
       2       1       1       2       1       1       2       1       1       2
       1       1       2       1       1       2       1       1       2       1
       1       2       1       1       2       1       1       2       1       1
       2       1       1       2       1       1       2       1       1       2
       1       1       2       1       1       2       1       1       2       1
       1       2       1       1       2       1       1       2       1       1
       2       1       1       2       1       1       2       1       1       2
       1       1       2       1       1       2       1       1       2       1
       1       2       1       1       2       1       1       2       1       1
       2       1       1       2       1       1       2       1       1       2
       1       1       2       1       1       2       1       1       2       1
       1       2       1       1       2       1       1       2       1       1
       2       1       1       2       1       1       2       1       1       2
       1       1       2       1       1       2       1       1       2       1
       1       2       1       1       2       1       1       2       1       1
       2       1       1       2       1       1       2       1       1       2
       1       1       2       1       1       2       1       1       2       1
       1       2       1       1       2       1       1       2       1       1
       2       1       1       2       1       1       2       1       1       2
       1       1       2       1       1       2       1       1       2       1
       1       2       1       1       2       1       1       2       1       1
       2       1       1       2       1       1       2       1       1       2
       1       1       2       1       1       2       1       1       2       1
       1       2       1       1       2       1       1       2       1       1
       2       1       1       2       1       1       2       1       1       2
       1       1       2       1       1       2       1       1       2       1
       1       2       1       1       2       1       1       2       1       1
       2       1       1       2       1       1       2       1       1       2
       1       1       2       1       1       2       1       1       2       1
       1       2       1       1       2       1       1       2       1       1
       2       1       1       2       1       1       2       1       1       2
       1       1       2       1       1       2       1       1       2       1
       1       2       1       1       2       1       1       2       1       1
       2       1       1       2       1       1       2       1       1       2
       1       1       2       1       1       2       1       1       2       1
       1       2       1       1       2       1       1       2       1       1
       2       1       1       2       1       1       2       1       1       2
       1       1       2       1       1       2       1       1       2       1
       1       2       1       1       2       1       1       2       1       1
       2       1       1       2       1       1       2       1       1       2
       1       1       2       1       1       2       1       1       2       1
       1       2       1       1       2       1       1       2       1       1
       2       1       1       2       1       1       2       1       1       2
       1       1       2       1       1       2       1       1       2       1
       1       2       1       1       2       1       1       2       1       1
       2       1       1       2       1       1       2       1       1       2
       1       1       2       1       1       2       1       1       2       1
       1       2       1       1       2       1       1       2       1       1
       2       1       1       2       1       1       2       1       1       2
       1       1       2       1       1       2       1       1       2       1
       1       2       1       1       2       1       1       2       1       1
       2       1       1       2       1       1       2       1       1       2
       1       1       2       1       1       2       1       1       2       1
       1       2       1       1       2       1       1       2       1       1
       2       1       1       2       1       1       2       1       1       2
       1       1       2       1       1       2       1       1       2       1
       1       2       1       1       2       1       1       2       1       1
       2       1       1       2       1       1       2       1       1       2
       1       1       2       1       1       2       1       1       2       1
       1       2       1       1       2       1       1       2       1       1
       2       1       1       2       1       1       2       1       1       2
       1       1       2       1       1       2       1       1       2       1
       1       2       1       1       2       1       1       2       1       1
       2       1       1       2       1       1       2       1       1       2
       1       1       2       1       1       2       1       1       2       1
       1       2       1       1       2       1       1       2       1       1
       2       1       1       2       1       1       2       1       1       2
       1       1       2       1       1       2       1       1       2       1
       1       2       1       1       2       1       1       2       1       1
       2       1       1       2       1       1       2       1       1       2
       1       1       2       1       1       2       1       1       2       1
       1       2       1       1       2       1       1       2       1       1
       2       1       1       2       1       1       2       1       1       2
       1       1       2       1       1       2       1       1       2       1
       1       2       1       1       2       1       1       2       1       1
       2       1       1       2       1       1       2       1       1       2
       1       1       2       1       1       2       1       1       2       1
       1       2       1       1       2       1       1       2       1       1
       2       1       1       2       1       1       2       1       1       2
       1       1       2       1       1       2       1       1       2       1
       1       2       1       1       2       1       1       2       1       1
       2       1       1       2       1       1       2       1       1       2
       1       1       2       1       1       2       1       1       2       1
       1       2       1       1       2       1       1       2       1       1
       2       1       1       2       1       1       2       1       1       2
       1       1       2       1       1       2       1       1       2       1
       1       2       1       1       2       1       1       2       1       1
       2       1       1       2       1       1       2       1       1       2
       1       1       2       1       1       2       1       1       2       1
       1       2       1       1       2       1       1       2       1       1
       2       1       1       2       1       1       2       1       1       2
       1       1       2       1       1       2       1       1       2       1
       1       2       1       1       2       1       1       2       1       1
       2       1       1       2       1       1       2       1       1       2
       1       1       2       1       1       2       1       1       2       1
       1       2       1       1       2       1       1       2       1       1
       2       1       1       2       1       1       2       1       1       2
       1       1       2       1       1       2       1       1       2       1
       1       2       1       1       2       1       1       2       1       1
       2       1       1       2       1       1       2       1       1       2
       1       1       2       1       1       2       1       1       2       1
       1       2       1       1       2       1       1       2       1       1
       2       1       1       2       1       1       2       1       1       2
       1       1       2       1       1       2       1       1       2       1
       1       2       1       1       2       1       1       2       1       1
       2       1       1       2       1       1       2       1       1       2
       1       1       2       1       1       2       1       1       2       1
       1       2       1       1       2       1       1       2       1       1
       2       1       1       2       1       1       2       1       1       2
       1       1       2       1       1       2       1       1       2       1
       1       2       1       1       2       1       1       2       1       1
       2       1       1       2       1       1       2       1       1       2
       1       1       2       1       1       2       1       1       2       1
       1       2       1       1       2       1       1       2       1       1
       2       1       1       2       1       1       2       1       1       2
       1       1       2       1       1       2       1       1       2       1
       1       2       1       1       2       1       1       2       1       1
       2       1       1       2       1       1       2       1       1       2
       1       1       2       1       1       2       1       1       2       1
       1       2       1       1       2       1       1       2       1       1
       2       1       1       2       1       1       2       1       1       2
       1       1       2       1       1       2       1       1       2       1
       1       2       1       1       2       1       1       2       1       1
       2       1       1       2       1       1       2       1       1       2
       1       1       2       1       1       2       1       1       2       1
       1       2       1       1       2       1       1       2       1       1
       2       1       1       2       1       1       2       1       1       2
       1       1       2       1       1       2       1       1       2       1
       1       2       1       1       2       1       1       2       1       1
       2       1       1       2       1       1       2       1       1       2
       1       1       2       1       1       2       1       1       2       1
       1       2       1       1       2       1       1       2       1       1
       2       1       1       2       1       1       2       1       1       2
       1       1       2       1       1       2       1       1       2       1
       1       2       1       1       2       1       1       2       1       1
       2       1       1       2       1       1       2       1       1       2
       1       1       2       1       1       2       1       1       2       1
       1       2       1       1       2       1       1       2       1       1
       2       1       1       2       1       1       2       1       1       2
       1       1       2       1       1       2       1       1       2       1
       1       2       1       1       2       1       1       2       1       1
       2       1       1       2       1       1       2       1       1       2
       1       1       2       1       1       2       1       1       2       1
       1       2       1       1       2       1       1       2       1       1
       2       1       1       2       1       1       2       1       1       2
       1       1       2       1       1       2       1       1       2       1
       1       2       1       1       2       1       1       2       1       1
       2       1       1       2       1       1       2       1       1       2
       1       1       2       1       1       2       1       1       2       1
       1       2       1       1       2       1       1       2       1       1
       2       1       1       2       1       1       2       1       1       2
       1       1       2       1       1       2       1       1       2       1
       1       2       1       1       2       1       1       2       1       1
       2       1       1       2       1       1       2       1       1       2
       1       1       2       1       1       2       1       1       2       1
       1       2       1       1       2       1       1       2       1       1
       2       1       1       2       1       1       2       1       1       2
       1       1       2       1       1       2       1       1       2       1
       1       2       1       1       2       1       1       2       1       1
       2       1       1       2       1       1       2       1       1       2
       1       1       2       1       1       2       1       1       2       1
       1       2       1       1       2       1       1       2       1       1
       2       1       1       2       1       1       2       1       1       2
       1       1       2       1       1       2       1       1       2       1
       1       2       1       1       2       1       1       2       1       1
       2       1       1       2       1       1       2       1       1       2
       1       1       2       1       1       2       1       1       2       1
       1       2       1       1       2       1       1       2       1       1
       2       1       1       2       1       1       2       1       1       2
       1       1       2       1       1       2       1       1       2       1
       1       2       1       1       2       1       1       2       1       1
       2       1       1       2       1       1       2       1       1       2
       1       1       2       1       1       2       1       1       2       1
       1       2       1       1       2       1       1       2       1       1
       2       1       1       2       1       1       2       1       1       2
       1       1       2       1       1       2       1       1       2       1
       1       2       1       1       2       1       1       2       1       1
       2       1       1       2       1       1       2       1       1       2
       1       1       2       1       1       2       1       1       2       1
       1       2       1       1       2       1       1       2       1       1
       2       1       1       2       1       1       2       1       1       2
       1       1       2       1       1       2       1       1       2       1
       1       2       1       1       2       1       1       2       1       1
       2       1       1       2       1       1       2       1       1       2
       1       1       2       1       1       2       1       1       2       1
       1       2       1       1       2       1       1       2       1       1
       2       1       1       2       1       1       2       1       1       2
       1       1       2       1       1       2       1       1       2       1
       1       2       1       1       2       1       1       2       1       1
       2       1       1       2       1       1       2       1       1       2
       1       1       2       1       1       2       1       1       2       1
       1       2       1       1       2       1       1       2       1       1
       2       1       1       2       1       1       2       1       1       2
       1       1       2       1       1       2       1       1       2       1
       1       2       1       1       2       1       1       2       1       1
       2       1       1       2       1       1       2       1       1       2
       1       1       2       1       1       2       1       1       2       1
       1       2       1       1       2       1       1       2       1       1
       2       1       1       2       1       1       2       1       1       2
       1       1       2       1       1       2       1       1       2       1
       1       2       1       1       2       1       1       2       1       1
       2       1       1       2       1       1       2       1       1       2
       1       1       2       1       1       2       1       1       2       1
       1       2       1       1       2       1       1       2       1       1
       2       1       1       2       1       1       2       1       1       2
       1       1       2       1       1       2       1       1       2       1
       1       2       1       1       2       1       1       2       1       1
       2       1       1       2       1       1       2       1       1       2
       1       1       2       1       1       2       1       1       2       1
       1       2       1       1       2       1       1       2       1       1
       2       1       1       2       1       1       2       1       1       2
       1       1       2       1       1       2       1       1       2       1
       1       2       1       1       2       1       1       2       1       1
       2       1       1       2       1       1       2       1       1       2
       1       1       2       1       1       2       1       1       2       1
       1       2       1       1       2       1       1       2       1       1
       2       1       1       2       1       1       2       1       1       2
       1       1       2       1       1       2       1       1       2       1
       1       2       1       1       2       1       1       2       1       1
       2       1       1       2       1       1       2       1       1       2
       1       1       2       1       1       2       1       1       2       1
       1       2       1       1       2       1       1       2       1       1
       2       1       1       2       1       1       2       1       1       2
       1       1       2       1       1       2       1       1       2       1
       1       2       1       1       2       1       1       2       1       1
       2       1       1       2       1       1       2       1       1       2
       1       1       2       1       1       2       1       1       2       1
       1       2       1       1       2       1       1       2       1       1
       2       1       1       2       1       1       2       1       1       2
       1       1       2       1       1       2       1       1       2       1
       1       2       1       1       2       1       1       2       1       1
       2       1       1       2       1       1       2       1       1       2
       1       1       2       1       1       2       1       1       2       1
       1       2       1       1       2       1       1       2       1       1
       2       1       1       2       1       1       2       1       1       2
       1       1       2       1       1       2       1       1       2       1
       1       2       1       1       2       1       1       2       1       1
       2       1       1       2       1       1       2       1       1       2
       1       1       2       1       1       2       1       1       2       1
       1       2       1       1       2       1       1       2       1       1
       2       1       1       2       1       1       2       1       1       2
       1       1       2       1       1       2       1       1       2       1
       1       2       1       1       2       1       1       2       1       1
       2       1       1       2       1       1       2       1       1       2
       1       1       2       1       1       2       1       1       2       1
       1       2       1       1       2       1       1       2       1       1
       2       1       1       2       1       1
%FLAG NONBONDED_PARM_INDEX                                                      
%FORMAT(10I8)                                                                   
       1       2       4       7      11      16      22      29      37      46
      56      67      79      92       2       3       5       8      12      17
      23      30      38      47      57      68      80      93       4       5
       6       9      13      18      24      31      39      48      58      69
      81      94       7       8       9      10      14      19      25      32
      40      49      59      70      82      95      11      12      13      14
      15      20      26      33      41      50      60      71      83      96
      16      17      18      19      20      21      27      34      42      51
      61      72      84      97      22      23      24      25      26      27
      28      35      43      52      62      73      85      98      29      30
      31      32      33      34      35      36      44      53      63      74
      86      99      37      38      39      40      41      42      43      44
      45      54      64      75      87     100      46      47      48      49
      50      51      52      53      54      55      65      76      88     101
      56      57      58      59      60      61      62      63      64      65
      66      77      89     102      67      68      69      70      71      72
      73      74      75      76      77      78      90     103      79      80
      81      82      83      84      85      86      87      88      89      90
      91     104      92      93      94      95      96      97      98      99
     100     101     102     103     104     105
%FLAG RESIDUE_LABEL                                                             
%FORMAT(20a4)                                                                   
ACE GLN CYX CYX THR SER ILE CYX SER LEU TYR GLN LEU GL4 ASN TYR CYX NME ACE HIP 
LEU CYX GLY SER HIP LEU VAL GL4 ALA LEU TYR LEU VAL CYX GLY GL4 ARG GLY PHE PHE 
TYR THR NME ACE GLN CYX CYX THR SER ILE CYX SER LEU TYR GLN LEU GL4 ASN TYR CYX 
NME ACE HIP LEU CYX GLY SER HIP LEU VAL GL4 ALA LEU TYR LEU VAL CYX GLY GL4 ARG 
GLY PHE PHE TYR THR NME ACE GLN CYX CYX THR SER ILE CYX SER LEU TYR GLN LEU GL4 
ASN TYR CYX NME ACE HIP LEU CYX GLY SER HIP LEU VAL GL4 ALA LEU TYR LEU VAL CYX 
GLY GL4 ARG GLY PHE PHE TYR THR NME ACE GLN CYX CYX THR SER ILE CYX SER LEU TYR 
GLN LEU GL4 ASN TYR CYX NME ACE HIP LEU CYX GLY SER HIP LEU VAL GL4 ALA LEU TYR 
LEU VAL CYX GLY GL4 ARG GLY PHE PHE TYR THR NME WAT WAT WAT WAT WAT WAT WAT WAT 
WAT WAT WAT WAT WAT WAT WAT WAT WAT WAT WAT WAT WAT WAT WAT WAT WAT WAT WAT WAT 
WAT WAT WAT WAT WAT WAT WAT WAT WAT WAT WAT WAT WAT WAT WAT WAT WAT WAT WAT WAT 
WAT WAT WAT WAT WAT WAT WAT WAT WAT WAT WAT WAT WAT WAT WAT WAT WAT WAT WAT WAT 
WAT WAT WAT WAT WAT WAT WAT WAT WAT WAT WAT WAT WAT WAT WAT WAT WAT WAT WAT WAT 
WAT WAT WAT WAT WAT WAT WAT WAT WAT WAT WAT WAT WAT WAT WAT WAT WAT WAT WAT WAT 
WAT WAT WAT WAT WAT WAT WAT WAT WAT WAT WAT WAT WAT WAT WAT WAT WAT WAT WAT WAT 
WAT WAT WAT WAT WAT WAT WAT WAT WAT WAT WAT WAT WAT WAT WAT WAT WAT WAT WAT WAT 
WAT WAT WAT WAT WAT WAT WAT WAT WAT WAT WAT WAT WAT WAT WAT WAT WAT WAT WAT WAT 
WAT WAT WAT WAT WAT WAT WAT WAT WAT WAT WAT WAT WAT WAT WAT WAT WAT WAT WAT WAT 
WAT WAT WAT WAT WAT WAT WAT WAT WAT WAT WAT WAT WAT WAT WAT WAT WAT WAT WAT WAT 
WAT WAT WAT WAT WAT WAT WAT WAT WAT WAT WAT WAT WAT WAT WAT WAT WAT WAT WAT WAT 
WAT WAT WAT WAT WAT WAT WAT WAT WAT WAT WAT WAT WAT WAT WAT WAT WAT WAT WAT WAT 
WAT WAT WAT WAT WAT WAT WAT WAT WAT WAT WAT WAT WAT WAT WAT WAT WAT WAT WAT WAT 
WAT WAT WAT WAT WAT WAT WAT WAT WAT WAT WAT WAT WAT WAT WAT WAT WAT WAT WAT WAT 
WAT WAT WAT WAT WAT WAT WAT WAT WAT WAT WAT WAT WAT WAT WAT WAT WAT WAT WAT WAT 
WAT WAT WAT WAT WAT WAT WAT WAT WAT WAT WAT WAT WAT WAT WAT WAT WAT WAT WAT WAT 
WAT WAT WAT WAT WAT WAT WAT WAT WAT WAT WAT WAT WAT WAT WAT WAT WAT WAT WAT WAT 
WAT WAT WAT WAT WAT WAT WAT WAT WAT WAT WAT WAT WAT WAT WAT WAT WAT WAT WAT WAT 
WAT WAT WAT WAT WAT WAT WAT WAT WAT WAT WAT WAT WAT WAT WAT WAT WAT WAT WAT WAT 
WAT WAT WAT WAT WAT WAT WAT WAT WAT WAT WAT WAT WAT WAT WAT WAT WAT WAT WAT WAT 
WAT WAT WAT WAT WAT WAT WAT WAT WAT WAT WAT WAT WAT WAT WAT WAT WAT WAT WAT WAT 
WAT WAT WAT WAT WAT WAT WAT WAT WAT WAT WAT WAT WAT WAT WAT WAT WAT WAT WAT WAT 
WAT WAT WAT WAT WAT WAT WAT WAT WAT WAT WAT WAT WAT WAT WAT WAT WAT WAT WAT WAT 
WAT WAT WAT WAT WAT WAT WAT WAT WAT WAT WAT WAT WAT WAT WAT WAT WAT WAT WAT WAT 
WAT WAT WAT WAT WAT WAT WAT WAT WAT WAT WAT WAT WAT WAT WAT WAT WAT WAT WAT WAT 
WAT WAT WAT WAT WAT WAT WAT WAT WAT WAT WAT WAT WAT WAT WAT WAT WAT WAT WAT WAT 
WAT WAT WAT WAT WAT WAT WAT WAT WAT WAT WAT WAT WAT WAT WAT WAT WAT WAT WAT WAT 
WAT WAT WAT WAT WAT WAT WAT WAT WAT WAT WAT WAT WAT WAT WAT WAT WAT WAT WAT WAT 
WAT WAT WAT WAT WAT WAT WAT WAT WAT WAT WAT WAT WAT WAT WAT WAT WAT WAT WAT WAT 
WAT WAT WAT WAT WAT WAT WAT WAT WAT WAT WAT WAT WAT WAT WAT WAT WAT WAT WAT WAT 
WAT WAT WAT WAT WAT WAT WAT WAT WAT WAT WAT WAT WAT WAT WAT WAT WAT WAT WAT WAT 
WAT WAT WAT WAT WAT WAT WAT WAT WAT WAT WAT WAT WAT WAT WAT WAT WAT WAT WAT WAT 
WAT WAT WAT WAT WAT WAT WAT WAT WAT WAT WAT WAT WAT WAT WAT WAT WAT WAT WAT WAT 
WAT WAT WAT WAT WAT WAT WAT WAT WAT WAT WAT WAT WAT WAT WAT WAT WAT WAT WAT WAT 
WAT WAT WAT WAT WAT WAT WAT WAT WAT WAT WAT WAT WAT WAT WAT WAT WAT WAT WAT WAT 
WAT WAT WAT WAT WAT WAT WAT WAT WAT WAT WAT WAT WAT WAT WAT WAT WAT WAT WAT WAT 
WAT WAT WAT WAT WAT WAT WAT WAT WAT WAT WAT WAT WAT WAT WAT WAT WAT WAT WAT WAT 
WAT WAT WAT WAT WAT WAT WAT WAT WAT WAT WAT WAT WAT WAT WAT WAT WAT WAT WAT WAT 
WAT WAT WAT WAT WAT WAT WAT WAT WAT WAT WAT WAT WAT WAT WAT WAT WAT WAT WAT WAT 
WAT WAT WAT WAT WAT WAT WAT WAT WAT WAT WAT WAT WAT WAT WAT WAT WAT WAT WAT WAT 
WAT WAT WAT WAT WAT WAT WAT WAT WAT WAT WAT WAT WAT WAT WAT WAT WAT WAT WAT WAT 
WAT WAT WAT WAT WAT WAT WAT WAT WAT WAT WAT WAT WAT WAT WAT WAT WAT WAT WAT WAT 
WAT WAT WAT WAT WAT WAT WAT WAT WAT WAT WAT WAT WAT WAT WAT WAT WAT WAT WAT WAT 
WAT WAT WAT WAT WAT WAT WAT WAT WAT WAT WAT WAT WAT WAT WAT WAT WAT WAT WAT WAT 
WAT WAT WAT WAT WAT WAT WAT WAT WAT WAT WAT WAT WAT WAT WAT WAT WAT WAT WAT WAT 
WAT WAT WAT WAT WAT WAT WAT WAT WAT WAT WAT WAT WAT WAT WAT WAT WAT WAT WAT WAT 
WAT WAT WAT WAT WAT WAT WAT WAT WAT WAT WAT WAT WAT WAT WAT WAT WAT WAT WAT WAT 
WAT WAT WAT WAT WAT WAT WAT WAT WAT WAT WAT WAT WAT WAT WAT WAT WAT WAT WAT WAT 
WAT WAT WAT WAT WAT WAT WAT WAT WAT WAT WAT WAT WAT WAT WAT WAT WAT WAT WAT WAT 
WAT WAT WAT WAT WAT WAT WAT WAT WAT WAT WAT WAT WAT WAT WAT WAT WAT WAT WAT WAT 
WAT WAT WAT WAT WAT WAT WAT WAT WAT WAT WAT WAT WAT WAT WAT WAT WAT WAT WAT WAT 
WAT WAT WAT WAT WAT WAT WAT WAT WAT WAT WAT WAT WAT WAT WAT WAT WAT WAT WAT WAT 
WAT WAT WAT WAT WAT WAT WAT WAT WAT WAT WAT WAT WAT WAT WAT WAT WAT WAT WAT WAT 
WAT WAT WAT WAT WAT WAT WAT WAT WAT WAT WAT WAT WAT WAT WAT WAT WAT WAT WAT WAT 
WAT WAT WAT WAT WAT WAT WAT WAT WAT WAT WAT WAT WAT WAT WAT WAT WAT WAT WAT WAT 
WAT WAT WAT WAT WAT WAT WAT WAT WAT WAT WAT WAT WAT WAT WAT WAT WAT WAT WAT WAT 
WAT WAT WAT WAT WAT WAT WAT WAT WAT WAT WAT WAT WAT WAT WAT WAT WAT WAT WAT WAT 
WAT WAT WAT WAT WAT WAT WAT WAT WAT WAT WAT WAT WAT WAT WAT WAT WAT WAT WAT WAT 
WAT WAT WAT WAT WAT WAT WAT WAT WAT WAT WAT WAT WAT WAT WAT WAT WAT WAT WAT WAT 
WAT WAT WAT WAT WAT WAT WAT WAT WAT WAT WAT WAT WAT WAT WAT WAT WAT WAT WAT WAT 
WAT WAT WAT WAT WAT WAT WAT WAT WAT WAT WAT WAT WAT WAT WAT WAT WAT WAT WAT WAT 
WAT WAT WAT WAT WAT WAT WAT WAT WAT WAT WAT WAT WAT WAT WAT WAT WAT WAT WAT WAT 
WAT WAT WAT WAT WAT WAT WAT WAT WAT WAT WAT WAT WAT WAT WAT WAT WAT WAT WAT WAT 
WAT WAT WAT WAT WAT WAT WAT WAT WAT WAT WAT WAT WAT WAT WAT WAT WAT WAT WAT WAT 
WAT WAT WAT WAT WAT WAT WAT WAT WAT WAT WAT WAT WAT WAT WAT WAT WAT WAT WAT WAT 
WAT WAT WAT WAT WAT WAT WAT WAT WAT WAT WAT WAT WAT WAT WAT WAT WAT WAT WAT WAT 
WAT WAT WAT WAT WAT WAT WAT WAT WAT WAT WAT WAT WAT WAT WAT WAT WAT WAT WAT WAT 
WAT WAT WAT WAT WAT WAT WAT WAT WAT WAT WAT WAT WAT WAT WAT WAT WAT WAT WAT WAT 
WAT WAT WAT WAT WAT WAT WAT WAT WAT WAT WAT WAT WAT WAT WAT WAT WAT WAT WAT WAT 
WAT WAT WAT WAT WAT WAT WAT WAT WAT WAT WAT WAT WAT WAT WAT WAT WAT WAT WAT WAT 
WAT WAT WAT WAT WAT WAT WAT WAT WAT WAT WAT WAT WAT WAT WAT WAT WAT WAT WAT WAT 
WAT WAT WAT WAT WAT WAT WAT WAT WAT WAT WAT WAT WAT WAT WAT WAT WAT WAT WAT WAT 
WAT WAT WAT WAT WAT WAT WAT WAT WAT WAT WAT WAT WAT WAT WAT WAT WAT WAT WAT WAT 
WAT WAT WAT WAT WAT WAT WAT WAT WAT WAT WAT WAT WAT WAT WAT WAT WAT WAT WAT WAT 
WAT WAT WAT WAT WAT WAT WAT WAT WAT WAT WAT WAT WAT WAT WAT WAT WAT WAT WAT WAT 
WAT WAT WAT WAT WAT WAT WAT WAT WAT WAT WAT WAT WAT WAT WAT WAT WAT WAT WAT WAT 
WAT WAT WAT WAT WAT WAT WAT WAT WAT WAT WAT WAT WAT WAT WAT WAT WAT WAT WAT WAT 
WAT WAT WAT WAT WAT WAT WAT WAT WAT WAT WAT WAT WAT WAT WAT WAT WAT WAT WAT WAT 
WAT WAT WAT WAT WAT WAT WAT WAT WAT WAT WAT WAT WAT WAT WAT WAT WAT WAT WAT WAT 
WAT WAT WAT WAT WAT WAT WAT WAT WAT WAT WAT WAT WAT WAT WAT WAT WAT WAT WAT WAT 
WAT WAT WAT WAT WAT WAT WAT WAT WAT WAT WAT WAT WAT WAT WAT WAT WAT WAT WAT WAT 
WAT WAT WAT WAT WAT WAT WAT WAT WAT WAT WAT WAT WAT WAT WAT WAT WAT WAT WAT WAT 
WAT WAT WAT WAT WAT WAT WAT WAT WAT WAT WAT WAT WAT WAT WAT WAT WAT WAT WAT WAT 
WAT WAT WAT WAT WAT WAT WAT WAT WAT WAT WAT WAT WAT WAT WAT WAT WAT WAT WAT WAT 
WAT WAT WAT WAT WAT WAT WAT WAT WAT WAT WAT WAT WAT WAT WAT WAT WAT WAT WAT WAT 
WAT WAT WAT WAT WAT WAT WAT WAT WAT WAT WAT WAT WAT WAT WAT WAT WAT WAT WAT WAT 
WAT WAT WAT WAT WAT WAT WAT WAT WAT WAT WAT WAT WAT WAT WAT WAT WAT WAT WAT WAT 
WAT WAT WAT WAT WAT WAT WAT WAT WAT WAT WAT WAT WAT WAT WAT WAT WAT WAT WAT WAT 
WAT WAT WAT WAT WAT WAT WAT WAT WAT WAT WAT WAT WAT WAT WAT WAT WAT WAT WAT WAT 
WAT WAT WAT WAT WAT WAT WAT WAT WAT WAT WAT WAT WAT WAT WAT WAT WAT WAT WAT WAT 
WAT WAT WAT WAT WAT WAT WAT WAT WAT WAT WAT WAT WAT WAT WAT WAT WAT WAT WAT WAT 
WAT WAT WAT WAT WAT WAT WAT WAT WAT WAT WAT WAT WAT WAT WAT WAT WAT WAT WAT WAT 
WAT WAT WAT WAT WAT WAT WAT WAT WAT WAT WAT WAT WAT WAT WAT WAT WAT WAT WAT WAT 
WAT WAT WAT WAT WAT WAT WAT WAT WAT WAT WAT WAT WAT WAT WAT WAT WAT WAT WAT WAT 
WAT WAT WAT WAT WAT WAT WAT WAT WAT WAT WAT WAT WAT WAT WAT WAT WAT WAT WAT WAT 
WAT WAT WAT WAT WAT WAT WAT WAT WAT WAT WAT WAT WAT WAT WAT WAT WAT WAT WAT WAT 
WAT WAT WAT WAT WAT WAT WAT WAT WAT WAT WAT WAT WAT WAT WAT WAT WAT WAT WAT WAT 
WAT WAT WAT WAT WAT WAT WAT WAT WAT WAT WAT WAT WAT WAT WAT WAT WAT WAT WAT WAT 
WAT WAT WAT WAT WAT WAT WAT WAT WAT WAT WAT WAT WAT WAT WAT WAT WAT WAT WAT WAT 
WAT WAT WAT WAT WAT WAT WAT WAT WAT WAT WAT WAT WAT WAT WAT WAT WAT WAT WAT WAT 
WAT WAT WAT WAT WAT WAT WAT WAT WAT WAT WAT WAT WAT WAT WAT WAT WAT WAT WAT WAT 
WAT WAT WAT WAT WAT WAT WAT WAT WAT WAT WAT WAT WAT WAT WAT WAT WAT WAT WAT WAT 
WAT WAT WAT WAT WAT WAT WAT WAT WAT WAT WAT WAT WAT WAT WAT WAT WAT WAT WAT WAT 
WAT WAT WAT WAT WAT WAT WAT WAT WAT WAT WAT WAT WAT WAT WAT WAT WAT WAT WAT WAT 
WAT WAT WAT WAT WAT WAT WAT WAT WAT WAT WAT WAT WAT WAT WAT WAT WAT WAT WAT WAT 
WAT WAT WAT WAT WAT WAT WAT WAT WAT WAT WAT WAT WAT WAT WAT WAT WAT WAT WAT WAT 
WAT WAT WAT WAT WAT WAT WAT WAT WAT WAT WAT WAT WAT WAT WAT WAT WAT WAT WAT WAT 
WAT WAT WAT WAT WAT WAT WAT WAT WAT WAT WAT WAT WAT WAT WAT WAT WAT WAT WAT WAT 
WAT WAT WAT WAT WAT WAT WAT WAT WAT WAT WAT WAT WAT WAT WAT WAT WAT WAT WAT WAT 
WAT WAT WAT WAT WAT WAT WAT WAT WAT WAT WAT WAT WAT WAT WAT WAT WAT WAT WAT WAT 
WAT WAT WAT WAT WAT WAT WAT WAT WAT WAT WAT WAT WAT WAT WAT WAT WAT WAT WAT WAT 
WAT WAT WAT WAT WAT WAT WAT WAT WAT WAT WAT WAT WAT WAT WAT WAT WAT WAT WAT WAT 
WAT WAT WAT WAT WAT WAT WAT WAT WAT WAT WAT WAT WAT WAT WAT WAT WAT WAT WAT WAT 
WAT WAT WAT WAT WAT WAT WAT WAT WAT WAT WAT WAT WAT WAT WAT WAT WAT WAT WAT WAT 
WAT WAT WAT WAT WAT WAT WAT WAT WAT WAT WAT WAT WAT WAT WAT WAT WAT WAT WAT WAT 
WAT WAT WAT WAT WAT WAT WAT WAT WAT WAT WAT WAT WAT WAT WAT WAT WAT WAT WAT WAT 
WAT WAT WAT WAT WAT WAT WAT WAT WAT WAT WAT WAT WAT WAT WAT WAT WAT WAT WAT WAT 
WAT WAT WAT WAT WAT WAT WAT WAT WAT WAT WAT WAT WAT WAT WAT WAT WAT WAT WAT WAT 
WAT WAT WAT WAT WAT WAT WAT WAT WAT WAT WAT WAT WAT WAT WAT WAT WAT WAT WAT WAT 
WAT WAT WAT WAT WAT WAT WAT WAT WAT WAT WAT WAT WAT WAT WAT WAT WAT WAT WAT WAT 
WAT WAT WAT WAT WAT WAT WAT WAT WAT WAT WAT WAT WAT WAT WAT WAT WAT WAT WAT WAT 
WAT WAT WAT WAT WAT WAT WAT WAT WAT WAT WAT WAT WAT WAT WAT WAT WAT WAT WAT WAT 
WAT WAT WAT WAT WAT WAT WAT WAT WAT WAT WAT WAT WAT WAT WAT WAT WAT WAT WAT WAT 
WAT WAT WAT WAT WAT WAT WAT WAT WAT WAT WAT WAT WAT WAT WAT WAT WAT WAT WAT WAT 
WAT WAT WAT WAT WAT WAT WAT WAT WAT WAT WAT WAT WAT WAT WAT WAT WAT WAT WAT WAT 
WAT WAT WAT WAT WAT WAT WAT WAT WAT WAT WAT WAT WAT WAT WAT WAT WAT WAT WAT WAT 
WAT WAT WAT WAT WAT WAT WAT WAT WAT WAT WAT WAT WAT WAT WAT WAT WAT WAT WAT WAT 
WAT WAT WAT WAT WAT WAT WAT WAT WAT WAT WAT WAT WAT WAT WAT WAT WAT WAT WAT WAT 
WAT WAT WAT WAT WAT WAT WAT WAT WAT WAT WAT WAT WAT WAT WAT WAT WAT WAT WAT WAT 
WAT WAT WAT WAT WAT WAT WAT WAT WAT WAT WAT WAT WAT WAT WAT WAT WAT WAT WAT WAT 
WAT WAT WAT WAT WAT WAT WAT WAT WAT WAT WAT WAT WAT WAT WAT WAT WAT WAT WAT WAT 
WAT WAT WAT WAT WAT WAT WAT WAT WAT WAT WAT WAT WAT WAT WAT WAT WAT WAT WAT WAT 
WAT WAT WAT WAT WAT WAT WAT WAT WAT WAT WAT WAT WAT WAT WAT WAT WAT WAT WAT WAT 
WAT WAT WAT WAT WAT WAT WAT WAT WAT WAT WAT WAT WAT WAT WAT WAT WAT WAT WAT WAT 
WAT WAT WAT WAT WAT WAT WAT WAT WAT WAT WAT WAT WAT WAT WAT WAT WAT WAT WAT WAT 
WAT WAT WAT WAT WAT WAT WAT WAT WAT WAT WAT WAT WAT WAT WAT WAT WAT WAT WAT WAT 
WAT WAT WAT WAT WAT WAT WAT WAT WAT WAT WAT WAT WAT WAT WAT WAT WAT WAT WAT WAT 
WAT WAT WAT WAT WAT WAT WAT WAT WAT WAT WAT WAT WAT WAT WAT WAT WAT WAT WAT WAT 
WAT WAT WAT WAT WAT WAT WAT WAT WAT WAT WAT WAT WAT WAT WAT WAT WAT WAT WAT WAT 
WAT WAT WAT WAT WAT WAT WAT WAT WAT WAT WAT WAT WAT WAT WAT WAT WAT WAT WAT WAT 
WAT WAT WAT WAT WAT WAT WAT WAT WAT WAT WAT WAT WAT WAT WAT WAT WAT WAT WAT WAT 
WAT WAT WAT WAT WAT WAT WAT WAT WAT WAT WAT WAT WAT WAT WAT WAT WAT WAT WAT WAT 
WAT WAT WAT WAT WAT WAT WAT WAT WAT WAT WAT WAT WAT WAT WAT WAT WAT WAT WAT WAT 
WAT WAT WAT WAT WAT WAT WAT WAT WAT WAT WAT WAT WAT WAT WAT WAT WAT WAT WAT WAT 
WAT WAT WAT WAT WAT WAT WAT WAT WAT WAT WAT WAT WAT WAT WAT WAT WAT WAT WAT WAT 
WAT WAT WAT WAT WAT WAT WAT WAT WAT WAT WAT WAT WAT WAT WAT WAT WAT WAT WAT WAT 
WAT WAT WAT WAT WAT WAT WAT WAT WAT WAT WAT WAT WAT WAT WAT WAT WAT WAT WAT WAT 
WAT WAT WAT WAT WAT WAT WAT WAT WAT WAT WAT WAT WAT WAT WAT WAT WAT WAT WAT WAT 
WAT WAT WAT WAT WAT WAT WAT WAT WAT WAT WAT WAT WAT WAT WAT WAT WAT WAT WAT WAT 
WAT WAT WAT WAT WAT WAT WAT WAT WAT WAT WAT WAT WAT WAT WAT WAT WAT WAT WAT WAT 
WAT WAT WAT WAT WAT WAT WAT WAT WAT WAT WAT WAT WAT WAT WAT WAT WAT WAT WAT WAT 
WAT WAT WAT WAT WAT WAT WAT WAT WAT WAT WAT WAT WAT WAT WAT WAT WAT WAT WAT WAT 
WAT WAT WAT WAT WAT WAT WAT WAT WAT WAT WAT WAT WAT WAT WAT WAT WAT WAT WAT WAT 
WAT WAT WAT WAT WAT WAT WAT WAT WAT WAT WAT WAT WAT WAT WAT WAT WAT WAT WAT WAT 
WAT WAT WAT WAT WAT WAT WAT WAT WAT WAT WAT WAT WAT WAT WAT WAT WAT WAT WAT WAT 
WAT WAT WAT WAT WAT WAT WAT WAT WAT WAT WAT WAT WAT WAT WAT WAT WAT WAT WAT WAT 
WAT WAT WAT WAT WAT WAT WAT WAT WAT WAT WAT WAT WAT WAT WAT WAT WAT WAT WAT WAT 
WAT WAT WAT WAT WAT WAT WAT WAT WAT WAT WAT WAT WAT WAT WAT WAT WAT WAT WAT WAT 
WAT WAT WAT WAT WAT WAT WAT WAT WAT WAT WAT WAT WAT WAT WAT WAT WAT WAT WAT WAT 
WAT WAT WAT WAT WAT WAT WAT WAT WAT WAT WAT WAT WAT WAT WAT WAT WAT WAT WAT WAT 
WAT WAT WAT WAT WAT WAT WAT WAT WAT WAT WAT WAT WAT WAT WAT WAT WAT WAT WAT WAT 
WAT WAT WAT WAT WAT WAT WAT WAT WAT WAT WAT WAT WAT WAT WAT WAT WAT WAT WAT WAT 
WAT WAT WAT WAT WAT WAT WAT WAT WAT WAT WAT WAT WAT WAT WAT WAT WAT WAT WAT WAT 
WAT WAT WAT WAT WAT WAT WAT WAT WAT WAT WAT WAT WAT WAT WAT WAT WAT WAT WAT WAT 
WAT WAT WAT WAT WAT WAT WAT WAT WAT WAT WAT WAT WAT WAT WAT WAT WAT WAT WAT WAT 
WAT WAT WAT WAT WAT WAT WAT WAT WAT WAT WAT WAT WAT WAT WAT WAT WAT WAT WAT WAT 
WAT WAT WAT WAT WAT WAT WAT WAT WAT WAT WAT WAT WAT WAT WAT WAT WAT WAT WAT WAT 
WAT WAT WAT WAT WAT WAT WAT WAT WAT WAT WAT WAT WAT WAT WAT WAT WAT WAT WAT WAT 
WAT WAT WAT WAT WAT WAT WAT WAT WAT WAT WAT WAT WAT WAT WAT WAT WAT WAT WAT WAT 
WAT WAT WAT WAT WAT WAT WAT WAT WAT WAT WAT WAT WAT WAT WAT WAT WAT WAT WAT WAT 
WAT WAT WAT WAT WAT WAT WAT WAT WAT WAT WAT WAT WAT WAT WAT WAT WAT WAT WAT WAT 
WAT WAT WAT WAT WAT WAT WAT WAT WAT WAT WAT WAT WAT WAT WAT WAT WAT WAT WAT WAT 
WAT WAT WAT WAT WAT WAT WAT WAT WAT WAT WAT WAT WAT WAT WAT WAT WAT WAT WAT WAT 
WAT WAT WAT WAT WAT WAT WAT WAT WAT WAT WAT WAT WAT WAT WAT WAT WAT WAT WAT WAT 
WAT WAT WAT WAT WAT WAT WAT WAT WAT WAT WAT WAT WAT WAT WAT WAT WAT WAT WAT WAT 
WAT WAT WAT WAT WAT WAT WAT WAT WAT WAT WAT WAT WAT WAT WAT WAT WAT WAT WAT WAT 
WAT WAT WAT WAT WAT WAT WAT WAT WAT WAT WAT WAT WAT WAT WAT WAT WAT WAT WAT WAT 
WAT WAT WAT WAT WAT WAT WAT WAT WAT WAT WAT WAT WAT WAT WAT WAT WAT WAT WAT WAT 
WAT WAT WAT WAT WAT WAT WAT WAT WAT WAT WAT WAT WAT WAT WAT WAT WAT WAT WAT WAT 
WAT WAT WAT WAT WAT WAT WAT WAT WAT WAT WAT WAT WAT WAT WAT WAT WAT WAT WAT WAT 
WAT WAT WAT WAT WAT WAT WAT WAT WAT WAT WAT WAT WAT WAT WAT WAT WAT WAT WAT WAT 
WAT WAT WAT WAT WAT WAT WAT WAT WAT WAT WAT WAT WAT WAT WAT WAT WAT WAT WAT WAT 
WAT WAT WAT WAT WAT WAT WAT WAT WAT WAT WAT WAT WAT WAT WAT WAT WAT WAT WAT WAT 
WAT WAT WAT WAT WAT WAT WAT WAT WAT WAT WAT WAT WAT WAT WAT WAT WAT WAT WAT WAT 
WAT WAT WAT WAT WAT WAT WAT WAT WAT WAT WAT WAT WAT WAT WAT WAT WAT WAT WAT WAT 
WAT WAT WAT WAT WAT WAT WAT WAT WAT WAT WAT WAT WAT WAT WAT WAT WAT WAT WAT WAT 
WAT WAT WAT WAT WAT WAT WAT WAT WAT WAT WAT WAT WAT WAT WAT WAT WAT WAT WAT WAT 
WAT WAT WAT WAT WAT WAT WAT WAT WAT WAT WAT WAT WAT WAT WAT WAT WAT WAT WAT WAT 
WAT WAT WAT WAT WAT WAT WAT WAT WAT WAT WAT WAT WAT WAT WAT WAT WAT WAT WAT WAT 
WAT WAT WAT WAT WAT WAT WAT WAT WAT WAT WAT WAT WAT WAT WAT WAT WAT WAT WAT WAT 
WAT WAT WAT WAT WAT WAT WAT WAT WAT WAT WAT WAT WAT WAT WAT WAT WAT WAT WAT WAT 
WAT WAT WAT WAT WAT WAT WAT WAT WAT WAT WAT WAT WAT WAT WAT WAT WAT WAT WAT WAT 
WAT WAT WAT WAT WAT WAT WAT WAT WAT WAT WAT WAT WAT WAT WAT WAT WAT WAT WAT WAT 
WAT WAT WAT WAT WAT WAT WAT WAT WAT WAT WAT WAT WAT WAT WAT WAT WAT WAT WAT WAT 
WAT WAT WAT WAT WAT WAT WAT WAT WAT WAT WAT WAT WAT WAT WAT WAT WAT WAT WAT WAT 
WAT WAT WAT WAT WAT WAT WAT WAT WAT WAT WAT WAT WAT WAT WAT WAT WAT WAT WAT WAT 
WAT WAT WAT WAT WAT WAT WAT WAT WAT WAT WAT WAT WAT WAT WAT WAT WAT WAT WAT WAT 
WAT WAT WAT WAT WAT WAT WAT WAT WAT WAT WAT WAT WAT WAT WAT WAT WAT WAT WAT WAT 
WAT WAT WAT WAT WAT WAT WAT WAT WAT WAT WAT WAT WAT WAT WAT WAT WAT WAT WAT WAT 
WAT WAT WAT WAT WAT WAT WAT WAT WAT WAT WAT WAT WAT WAT WAT WAT WAT WAT WAT WAT 
WAT WAT WAT WAT WAT WAT WAT WAT WAT WAT WAT WAT WAT WAT WAT WAT WAT WAT WAT WAT 
WAT WAT WAT WAT WAT WAT WAT WAT WAT WAT WAT WAT WAT WAT WAT WAT WAT WAT WAT WAT 
WAT WAT WAT WAT WAT WAT WAT WAT WAT WAT WAT WAT WAT WAT WAT WAT WAT WAT WAT WAT 
WAT WAT WAT WAT WAT WAT WAT WAT WAT WAT WAT WAT WAT WAT WAT WAT WAT WAT WAT WAT 
WAT WAT WAT WAT WAT WAT WAT WAT WAT WAT WAT WAT WAT WAT WAT WAT WAT WAT WAT WAT 
WAT WAT WAT WAT WAT WAT WAT WAT WAT WAT WAT WAT WAT WAT WAT WAT WAT WAT WAT WAT 
WAT WAT WAT WAT WAT WAT WAT WAT WAT WAT WAT WAT WAT WAT WAT WAT WAT WAT WAT WAT 
WAT WAT WAT WAT WAT WAT WAT WAT WAT WAT WAT WAT WAT WAT WAT WAT WAT WAT WAT WAT 
WAT WAT WAT WAT WAT WAT WAT WAT WAT WAT WAT WAT WAT WAT WAT WAT WAT WAT WAT WAT 
WAT WAT WAT WAT WAT WAT WAT WAT WAT WAT WAT WAT WAT WAT WAT WAT WAT WAT WAT WAT 
WAT WAT WAT WAT WAT WAT WAT WAT WAT WAT WAT WAT WAT WAT WAT WAT WAT WAT WAT WAT 
WAT WAT WAT WAT WAT WAT WAT WAT WAT WAT WAT WAT WAT WAT WAT WAT WAT WAT WAT WAT 
WAT WAT WAT WAT WAT WAT WAT WAT WAT WAT WAT WAT WAT WAT WAT WAT WAT WAT WAT WAT 
WAT WAT WAT WAT WAT WAT WAT WAT WAT WAT WAT WAT WAT WAT WAT WAT WAT WAT WAT WAT 
WAT WAT WAT WAT WAT WAT WAT WAT WAT WAT WAT WAT WAT WAT WAT WAT WAT WAT WAT WAT 
WAT WAT WAT WAT WAT WAT WAT WAT WAT WAT WAT WAT WAT WAT WAT WAT WAT WAT WAT WAT 
WAT WAT WAT WAT WAT WAT WAT WAT WAT WAT WAT WAT WAT WAT WAT WAT WAT WAT WAT WAT 
WAT WAT WAT WAT WAT WAT WAT WAT WAT WAT WAT WAT WAT WAT WAT WAT WAT WAT WAT WAT 
WAT WAT WAT WAT WAT WAT WAT WAT WAT WAT WAT WAT WAT WAT WAT WAT WAT WAT WAT WAT 
WAT WAT WAT WAT WAT WAT WAT WAT WAT WAT WAT WAT WAT WAT WAT WAT WAT WAT WAT WAT 
WAT WAT WAT WAT WAT WAT WAT WAT WAT WAT WAT WAT WAT WAT WAT WAT WAT WAT WAT WAT 
WAT WAT WAT WAT WAT WAT WAT WAT WAT WAT WAT WAT WAT WAT WAT WAT WAT WAT WAT WAT 
WAT WAT WAT WAT WAT WAT WAT WAT WAT WAT WAT WAT WAT WAT WAT WAT WAT WAT WAT WAT 
WAT WAT WAT WAT WAT WAT WAT WAT WAT WAT WAT WAT WAT WAT WAT WAT WAT WAT WAT WAT 
WAT WAT WAT WAT WAT WAT WAT WAT WAT WAT WAT WAT WAT WAT WAT WAT WAT WAT WAT WAT 
WAT WAT WAT WAT WAT WAT WAT WAT WAT WAT WAT WAT WAT WAT WAT WAT WAT WAT WAT WAT 
WAT WAT WAT WAT WAT WAT WAT WAT WAT WAT WAT WAT WAT WAT WAT WAT WAT WAT WAT WAT 
WAT WAT WAT WAT WAT WAT WAT WAT WAT WAT WAT WAT WAT WAT WAT WAT WAT WAT WAT WAT 
WAT WAT WAT WAT WAT WAT WAT WAT WAT WAT WAT WAT WAT WAT WAT WAT WAT WAT WAT WAT 
WAT WAT WAT WAT WAT WAT WAT WAT WAT WAT WAT WAT WAT WAT WAT WAT WAT WAT WAT WAT 
WAT WAT WAT WAT WAT WAT WAT WAT WAT WAT WAT WAT WAT WAT WAT WAT WAT WAT WAT WAT 
WAT WAT WAT WAT WAT WAT WAT WAT WAT WAT WAT WAT WAT WAT WAT WAT WAT WAT WAT WAT 
WAT WAT WAT WAT WAT WAT WAT WAT WAT WAT WAT WAT WAT WAT WAT WAT WAT WAT WAT WAT 
WAT WAT WAT WAT WAT WAT WAT WAT WAT WAT WAT WAT WAT WAT WAT WAT WAT WAT WAT WAT 
WAT WAT WAT WAT WAT WAT WAT WAT WAT WAT WAT WAT WAT WAT WAT WAT WAT WAT WAT WAT 
WAT WAT WAT WAT WAT WAT WAT WAT WAT WAT WAT WAT WAT WAT WAT WAT WAT WAT WAT WAT 
WAT WAT WAT WAT WAT WAT WAT WAT WAT WAT WAT WAT WAT WAT WAT WAT WAT WAT WAT WAT 
WAT WAT WAT WAT WAT WAT WAT WAT WAT WAT WAT WAT WAT WAT WAT WAT WAT WAT WAT WAT 
WAT WAT WAT WAT WAT WAT WAT WAT WAT WAT WAT WAT WAT WAT WAT WAT WAT WAT WAT WAT 
WAT WAT WAT WAT WAT WAT WAT WAT WAT WAT WAT WAT WAT WAT WAT WAT WAT WAT WAT WAT 
WAT WAT WAT WAT WAT WAT WAT WAT WAT WAT WAT WAT WAT WAT WAT WAT WAT WAT WAT WAT 
WAT WAT WAT WAT WAT WAT WAT WAT WAT WAT WAT WAT WAT WAT WAT WAT WAT WAT WAT WAT 
WAT WAT WAT WAT WAT WAT WAT WAT WAT WAT WAT WAT WAT WAT WAT WAT WAT WAT WAT WAT 
WAT WAT WAT WAT WAT WAT WAT WAT WAT WAT WAT WAT WAT WAT WAT WAT WAT WAT WAT WAT 
WAT WAT WAT WAT WAT WAT WAT WAT WAT WAT WAT WAT WAT WAT WAT WAT WAT WAT WAT WAT 
WAT WAT WAT WAT WAT WAT WAT WAT WAT WAT WAT WAT WAT WAT WAT WAT WAT WAT WAT WAT 
WAT WAT WAT WAT WAT WAT WAT WAT WAT WAT WAT WAT WAT WAT WAT WAT WAT WAT WAT WAT 
WAT WAT WAT WAT WAT WAT WAT WAT WAT WAT WAT WAT WAT WAT WAT WAT WAT WAT WAT WAT 
WAT WAT WAT WAT WAT WAT WAT WAT WAT WAT WAT WAT WAT WAT WAT WAT WAT WAT WAT WAT 
WAT WAT WAT WAT WAT WAT WAT WAT WAT WAT WAT WAT WAT WAT WAT WAT WAT WAT WAT WAT 
WAT WAT WAT WAT WAT WAT WAT WAT WAT WAT WAT WAT WAT WAT WAT WAT WAT WAT WAT WAT 
WAT WAT WAT WAT WAT WAT WAT WAT WAT WAT WAT WAT WAT WAT WAT WAT WAT WAT WAT WAT 
WAT WAT WAT WAT WAT WAT WAT WAT WAT WAT WAT WAT WAT WAT WAT WAT WAT WAT WAT WAT 
WAT WAT WAT WAT WAT WAT WAT WAT WAT WAT WAT WAT WAT WAT WAT WAT WAT WAT WAT WAT 
WAT WAT WAT WAT WAT WAT WAT WAT WAT WAT WAT WAT WAT WAT WAT WAT WAT WAT WAT WAT 
WAT WAT WAT WAT WAT WAT WAT WAT WAT WAT WAT WAT WAT WAT WAT WAT WAT WAT WAT WAT 
WAT WAT WAT WAT WAT WAT WAT WAT WAT WAT WAT WAT WAT WAT WAT WAT WAT WAT WAT WAT 
WAT WAT WAT WAT WAT WAT WAT WAT WAT WAT WAT WAT WAT WAT WAT WAT WAT WAT WAT WAT 
WAT WAT WAT WAT WAT WAT WAT WAT WAT WAT WAT WAT WAT WAT WAT WAT WAT WAT WAT WAT 
WAT WAT WAT WAT WAT WAT WAT WAT WAT WAT WAT WAT WAT WAT WAT WAT WAT WAT WAT WAT 
WAT WAT WAT WAT WAT WAT WAT WAT WAT WAT WAT WAT WAT WAT WAT WAT WAT WAT WAT WAT 
WAT WAT WAT WAT WAT WAT WAT WAT WAT WAT WAT WAT WAT WAT WAT WAT WAT WAT WAT WAT 
WAT WAT WAT WAT WAT WAT WAT WAT WAT WAT WAT WAT WAT WAT WAT WAT WAT WAT WAT WAT 
WAT WAT WAT WAT WAT WAT WAT WAT WAT WAT WAT WAT WAT WAT WAT WAT WAT WAT WAT WAT 
WAT WAT WAT WAT WAT WAT WAT WAT WAT WAT WAT WAT WAT WAT WAT WAT WAT WAT WAT WAT 
WAT WAT WAT WAT WAT WAT WAT WAT WAT WAT WAT WAT WAT WAT WAT WAT WAT WAT WAT WAT 
WAT WAT WAT WAT WAT WAT WAT WAT WAT WAT WAT WAT WAT WAT WAT WAT WAT WAT WAT WAT 
WAT WAT WAT WAT WAT WAT WAT WAT WAT WAT WAT WAT WAT WAT WAT WAT WAT WAT WAT WAT 
WAT WAT WAT WAT WAT WAT WAT WAT WAT WAT WAT WAT WAT WAT WAT WAT WAT WAT WAT WAT 
WAT WAT WAT WAT WAT WAT WAT WAT WAT WAT WAT WAT WAT WAT WAT WAT WAT WAT WAT WAT 
WAT WAT WAT WAT WAT WAT WAT WAT WAT WAT WAT WAT WAT WAT WAT WAT WAT WAT WAT WAT 
WAT WAT WAT WAT WAT WAT WAT WAT WAT WAT WAT WAT WAT WAT WAT WAT WAT WAT WAT WAT 
WAT WAT WAT WAT WAT WAT WAT WAT WAT WAT WAT WAT WAT WAT WAT WAT WAT WAT WAT WAT 
WAT WAT WAT WAT WAT WAT WAT WAT WAT WAT WAT WAT WAT WAT WAT WAT WAT WAT WAT WAT 
WAT WAT WAT WAT WAT WAT WAT WAT WAT WAT WAT WAT WAT WAT WAT WAT WAT WAT WAT WAT 
WAT WAT WAT WAT WAT WAT WAT WAT WAT WAT WAT WAT WAT WAT WAT WAT WAT WAT WAT WAT 
WAT WAT WAT WAT WAT WAT WAT WAT WAT WAT WAT WAT WAT WAT WAT WAT WAT WAT WAT WAT 
WAT WAT WAT WAT WAT WAT WAT WAT WAT WAT WAT WAT WAT WAT WAT WAT WAT WAT WAT WAT 
WAT WAT WAT WAT WAT WAT WAT WAT WAT WAT WAT WAT WAT WAT WAT WAT WAT WAT WAT WAT 
WAT WAT WAT WAT WAT WAT WAT WAT WAT WAT WAT WAT WAT WAT WAT WAT WAT WAT WAT WAT 
WAT WAT WAT WAT WAT WAT WAT WAT WAT WAT WAT WAT WAT WAT WAT WAT WAT WAT WAT WAT 
WAT WAT WAT WAT WAT WAT WAT WAT WAT WAT WAT WAT WAT WAT WAT WAT WAT WAT WAT WAT 
WAT WAT WAT WAT WAT WAT WAT WAT WAT WAT WAT WAT WAT WAT WAT WAT WAT WAT WAT WAT 
WAT WAT WAT WAT WAT WAT WAT WAT WAT WAT WAT WAT WAT WAT WAT WAT WAT WAT WAT WAT 
WAT WAT WAT WAT WAT WAT WAT WAT WAT WAT WAT WAT WAT WAT WAT WAT WAT WAT WAT WAT 
WAT WAT WAT WAT WAT WAT WAT WAT WAT WAT WAT WAT WAT WAT WAT WAT WAT WAT WAT WAT 
WAT WAT WAT WAT WAT WAT WAT WAT WAT WAT WAT WAT WAT WAT WAT WAT WAT WAT WAT WAT 
WAT WAT WAT WAT WAT WAT WAT WAT WAT WAT WAT WAT WAT WAT WAT WAT WAT WAT WAT WAT 
WAT WAT WAT WAT WAT WAT WAT WAT WAT WAT WAT WAT WAT WAT WAT WAT WAT WAT WAT WAT 
WAT WAT WAT WAT WAT WAT WAT WAT WAT WAT WAT WAT WAT WAT WAT WAT WAT WAT WAT WAT 
WAT WAT WAT WAT WAT WAT WAT WAT WAT WAT WAT WAT WAT WAT WAT WAT WAT WAT WAT WAT 
WAT WAT WAT WAT WAT WAT WAT WAT WAT WAT WAT WAT WAT WAT WAT WAT WAT WAT WAT WAT 
WAT WAT WAT WAT WAT WAT WAT WAT WAT WAT WAT WAT WAT WAT WAT WAT WAT WAT WAT WAT 
WAT WAT WAT WAT WAT WAT WAT WAT WAT WAT WAT WAT WAT WAT WAT WAT WAT WAT WAT WAT 
WAT WAT WAT WAT WAT WAT WAT WAT WAT WAT WAT WAT WAT WAT WAT WAT WAT WAT WAT WAT 
WAT WAT WAT WAT WAT WAT WAT WAT WAT WAT WAT WAT WAT WAT WAT WAT WAT WAT WAT WAT 
WAT WAT WAT WAT WAT WAT WAT WAT WAT WAT WAT WAT WAT WAT WAT WAT WAT WAT WAT WAT 
WAT WAT WAT WAT WAT WAT WAT WAT WAT WAT WAT WAT WAT WAT WAT WAT WAT WAT WAT WAT 
WAT WAT WAT WAT WAT WAT WAT WAT WAT WAT WAT WAT WAT WAT WAT WAT WAT WAT WAT WAT 
WAT WAT WAT WAT WAT WAT WAT WAT WAT WAT WAT WAT WAT WAT WAT WAT WAT WAT WAT WAT 
WAT WAT WAT WAT WAT WAT WAT WAT WAT WAT WAT WAT WAT WAT WAT WAT WAT WAT WAT WAT 
WAT WAT WAT WAT WAT WAT WAT WAT WAT WAT WAT WAT WAT WAT WAT WAT WAT WAT WAT WAT 
WAT WAT WAT WAT WAT WAT WAT WAT WAT WAT WAT WAT WAT WAT WAT WAT WAT WAT WAT WAT 
WAT WAT WAT WAT WAT WAT WAT WAT WAT WAT WAT WAT WAT WAT WAT WAT WAT WAT WAT WAT 
WAT WAT WAT WAT WAT WAT WAT WAT WAT WAT WAT WAT WAT WAT WAT WAT WAT WAT WAT WAT 
WAT WAT WAT WAT WAT WAT WAT WAT WAT WAT WAT WAT WAT WAT WAT WAT WAT WAT WAT WAT 
WAT WAT WAT WAT WAT WAT WAT WAT WAT WAT WAT WAT WAT WAT WAT WAT WAT WAT WAT WAT 
WAT WAT WAT WAT WAT WAT WAT WAT WAT WAT WAT WAT WAT WAT WAT WAT WAT WAT WAT WAT 
WAT WAT WAT WAT WAT WAT WAT WAT WAT WAT WAT WAT WAT WAT WAT WAT WAT WAT WAT WAT 
WAT WAT WAT WAT WAT WAT WAT WAT WAT WAT WAT WAT WAT WAT WAT WAT WAT WAT WAT WAT 
WAT WAT WAT WAT WAT WAT WAT WAT WAT WAT WAT WAT WAT WAT WAT WAT WAT WAT WAT WAT 
WAT WAT WAT WAT WAT WAT WAT WAT WAT WAT WAT WAT WAT WAT WAT WAT WAT WAT WAT WAT 
WAT WAT WAT WAT WAT WAT WAT WAT WAT WAT WAT WAT WAT WAT WAT WAT WAT WAT WAT WAT 
WAT WAT WAT WAT WAT WAT WAT WAT WAT WAT WAT WAT WAT WAT WAT WAT WAT WAT WAT WAT 
WAT WAT WAT WAT WAT WAT WAT WAT WAT WAT WAT WAT WAT WAT WAT WAT WAT WAT WAT WAT 
WAT WAT WAT WAT WAT WAT WAT WAT WAT WAT WAT WAT WAT WAT WAT WAT WAT WAT WAT WAT 
WAT WAT WAT WAT WAT WAT WAT WAT WAT WAT WAT WAT WAT WAT WAT WAT WAT WAT WAT WAT 
WAT WAT WAT WAT WAT WAT WAT WAT WAT WAT WAT WAT WAT WAT WAT WAT WAT WAT WAT WAT 
WAT WAT WAT WAT WAT WAT WAT WAT WAT WAT WAT WAT WAT WAT WAT WAT WAT WAT WAT WAT 
WAT WAT WAT WAT WAT WAT WAT WAT WAT WAT WAT WAT WAT WAT WAT WAT WAT WAT WAT WAT 
WAT WAT WAT WAT WAT WAT WAT WAT WAT WAT WAT WAT WAT WAT WAT WAT WAT WAT WAT WAT 
WAT WAT WAT WAT WAT WAT WAT WAT WAT WAT WAT WAT WAT WAT WAT WAT WAT WAT WAT WAT 
WAT WAT WAT WAT WAT WAT WAT WAT WAT WAT WAT WAT WAT WAT WAT WAT WAT WAT WAT WAT 
WAT WAT WAT WAT WAT WAT WAT WAT WAT WAT WAT WAT WAT WAT WAT WAT WAT WAT WAT WAT 
WAT WAT WAT WAT WAT WAT WAT WAT WAT WAT WAT WAT WAT WAT WAT WAT WAT WAT WAT WAT 
WAT WAT WAT WAT WAT WAT WAT WAT WAT WAT WAT WAT WAT WAT WAT WAT WAT WAT WAT WAT 
WAT WAT WAT WAT WAT WAT WAT WAT WAT WAT WAT WAT WAT WAT WAT WAT WAT WAT WAT WAT 
WAT WAT WAT WAT WAT WAT WAT WAT WAT WAT WAT WAT WAT WAT WAT WAT WAT WAT WAT WAT 
WAT WAT WAT WAT WAT WAT WAT WAT WAT WAT WAT WAT WAT WAT WAT WAT WAT WAT WAT WAT 
WAT WAT WAT WAT WAT WAT WAT WAT WAT WAT WAT WAT WAT WAT WAT WAT WAT WAT WAT WAT 
WAT WAT WAT WAT WAT WAT WAT WAT WAT WAT WAT WAT WAT WAT WAT WAT WAT WAT WAT WAT 
WAT WAT WAT WAT WAT WAT WAT WAT WAT WAT WAT WAT WAT WAT WAT WAT WAT WAT WAT WAT 
WAT WAT WAT WAT WAT WAT WAT WAT WAT WAT WAT WAT WAT WAT WAT WAT WAT WAT WAT WAT 
WAT WAT WAT WAT WAT WAT WAT WAT WAT WAT WAT WAT WAT WAT WAT WAT WAT WAT WAT WAT 
WAT WAT WAT WAT WAT WAT WAT WAT WAT WAT WAT WAT WAT WAT WAT WAT WAT WAT WAT WAT 
WAT WAT WAT WAT WAT WAT WAT WAT WAT WAT WAT WAT WAT WAT WAT WAT WAT WAT WAT WAT 
WAT WAT WAT WAT WAT WAT WAT WAT WAT WAT WAT WAT WAT WAT WAT WAT WAT WAT WAT WAT 
WAT WAT WAT WAT WAT WAT WAT WAT WAT WAT WAT WAT WAT WAT WAT WAT WAT WAT WAT WAT 
WAT WAT WAT WAT WAT WAT WAT WAT WAT WAT WAT WAT WAT WAT WAT WAT WAT WAT WAT WAT 
WAT WAT WAT WAT WAT WAT WAT WAT WAT WAT WAT WAT WAT WAT WAT WAT WAT WAT WAT WAT 
WAT WAT WAT WAT WAT WAT WAT WAT WAT WAT WAT WAT WAT WAT WAT WAT WAT WAT WAT WAT 
WAT WAT WAT WAT WAT WAT WAT WAT WAT WAT WAT WAT WAT WAT WAT WAT WAT WAT WAT WAT 
WAT WAT WAT WAT WAT WAT WAT WAT WAT WAT WAT WAT WAT WAT WAT WAT WAT WAT WAT WAT 
WAT WAT WAT WAT WAT WAT WAT WAT WAT WAT WAT WAT WAT WAT WAT WAT WAT WAT WAT WAT 
WAT WAT WAT WAT WAT WAT WAT WAT WAT WAT WAT WAT WAT WAT WAT WAT WAT WAT WAT WAT 
WAT WAT WAT WAT WAT WAT WAT WAT WAT WAT WAT WAT WAT WAT WAT WAT WAT WAT WAT WAT 
WAT WAT WAT WAT WAT WAT WAT WAT WAT WAT WAT WAT WAT WAT WAT WAT WAT WAT WAT WAT 
WAT WAT WAT WAT WAT WAT WAT WAT WAT WAT WAT WAT WAT WAT WAT WAT WAT WAT WAT WAT 
WAT WAT WAT WAT WAT WAT WAT WAT WAT WAT WAT WAT WAT WAT WAT WAT WAT WAT WAT WAT 
WAT WAT WAT WAT WAT WAT WAT WAT WAT WAT WAT WAT WAT WAT WAT WAT WAT WAT WAT WAT 
WAT WAT WAT WAT WAT WAT WAT WAT WAT WAT WAT WAT WAT WAT WAT WAT WAT WAT WAT WAT 
WAT WAT WAT WAT WAT WAT WAT WAT WAT WAT WAT WAT WAT WAT WAT WAT WAT WAT WAT WAT 
WAT WAT WAT WAT WAT WAT WAT WAT WAT WAT WAT WAT WAT WAT WAT WAT WAT WAT WAT WAT 
WAT WAT WAT WAT WAT WAT WAT WAT WAT WAT WAT WAT WAT WAT WAT WAT WAT WAT WAT WAT 
WAT WAT WAT WAT WAT WAT WAT WAT WAT WAT WAT WAT WAT WAT WAT WAT WAT WAT WAT WAT 
WAT WAT WAT WAT WAT WAT WAT WAT WAT WAT WAT WAT WAT WAT WAT WAT WAT WAT WAT WAT 
WAT WAT WAT WAT WAT WAT WAT WAT WAT WAT WAT WAT WAT WAT WAT WAT WAT WAT WAT WAT 
WAT WAT WAT WAT WAT WAT WAT WAT WAT WAT WAT WAT WAT WAT WAT WAT WAT WAT WAT WAT 
WAT WAT WAT WAT WAT WAT WAT WAT WAT WAT WAT WAT WAT WAT WAT WAT WAT WAT WAT WAT 
WAT WAT WAT WAT WAT WAT WAT WAT WAT WAT WAT WAT WAT WAT WAT WAT WAT WAT WAT WAT 
WAT WAT WAT WAT WAT WAT WAT WAT WAT WAT WAT WAT WAT WAT WAT WAT WAT WAT WAT WAT 
WAT WAT WAT WAT WAT WAT WAT WAT WAT WAT WAT WAT WAT WAT WAT WAT WAT WAT WAT WAT 
WAT WAT WAT WAT WAT WAT WAT WAT WAT WAT WAT WAT WAT WAT WAT WAT WAT WAT WAT WAT 
WAT WAT WAT WAT WAT WAT WAT WAT WAT WAT WAT WAT WAT WAT WAT WAT WAT WAT WAT WAT 
WAT WAT WAT WAT WAT WAT WAT WAT WAT WAT WAT WAT WAT WAT WAT WAT WAT WAT WAT WAT 
WAT WAT WAT WAT WAT WAT WAT WAT WAT WAT WAT WAT WAT WAT WAT WAT WAT WAT WAT WAT 
WAT WAT WAT WAT WAT WAT WAT WAT WAT WAT WAT WAT WAT WAT WAT WAT WAT WAT WAT WAT 
WAT WAT WAT WAT WAT WAT WAT WAT WAT WAT WAT WAT WAT WAT WAT WAT WAT WAT WAT WAT 
WAT WAT WAT WAT WAT WAT WAT WAT WAT WAT WAT WAT WAT WAT WAT WAT WAT WAT WAT WAT 
WAT WAT WAT WAT WAT WAT WAT WAT WAT WAT WAT WAT WAT WAT WAT WAT WAT WAT WAT WAT 
WAT WAT WAT WAT WAT WAT WAT WAT WAT WAT WAT WAT WAT WAT WAT WAT WAT WAT WAT WAT 
WAT WAT WAT WAT WAT WAT WAT WAT WAT WAT WAT WAT WAT WAT WAT WAT WAT WAT WAT WAT 
WAT WAT WAT WAT WAT WAT WAT WAT WAT WAT WAT WAT WAT WAT WAT WAT WAT WAT WAT WAT 
WAT WAT WAT WAT WAT WAT WAT WAT WAT WAT WAT WAT WAT WAT WAT WAT WAT WAT WAT WAT 
WAT WAT WAT WAT WAT WAT WAT WAT WAT WAT WAT WAT WAT WAT WAT WAT WAT WAT WAT WAT 
WAT WAT WAT WAT WAT WAT WAT WAT WAT WAT WAT WAT WAT WAT WAT WAT WAT WAT WAT WAT 
WAT WAT WAT WAT WAT WAT WAT WAT WAT WAT WAT WAT WAT WAT WAT WAT WAT WAT WAT WAT 
WAT WAT WAT WAT WAT WAT WAT WAT WAT WAT WAT WAT WAT WAT WAT WAT WAT WAT WAT WAT 
WAT WAT WAT WAT WAT WAT WAT WAT WAT WAT WAT WAT WAT WAT WAT WAT WAT WAT WAT WAT 
WAT WAT WAT WAT WAT WAT WAT WAT WAT WAT WAT WAT WAT WAT WAT WAT WAT WAT WAT WAT 
WAT WAT WAT WAT WAT WAT WAT WAT WAT WAT WAT WAT WAT WAT WAT WAT WAT WAT WAT WAT 
WAT WAT WAT WAT WAT WAT WAT WAT WAT WAT WAT WAT WAT WAT WAT WAT WAT WAT WAT WAT 
WAT WAT WAT WAT WAT WAT WAT WAT WAT WAT WAT WAT WAT WAT WAT WAT WAT WAT WAT WAT 
WAT WAT WAT WAT WAT WAT WAT WAT WAT WAT WAT WAT WAT WAT WAT WAT WAT WAT WAT WAT 
WAT WAT WAT WAT WAT WAT WAT WAT WAT WAT WAT WAT WAT WAT WAT WAT WAT WAT WAT WAT 
WAT WAT WAT WAT WAT WAT WAT WAT WAT WAT WAT WAT WAT WAT WAT WAT WAT WAT WAT WAT 
WAT WAT WAT WAT WAT WAT WAT WAT WAT WAT WAT WAT WAT WAT WAT WAT WAT WAT WAT WAT 
WAT WAT WAT WAT WAT WAT WAT WAT WAT WAT WAT WAT WAT WAT WAT WAT WAT WAT WAT WAT 
WAT WAT WAT WAT WAT WAT WAT WAT WAT WAT WAT WAT WAT WAT WAT WAT WAT WAT WAT WAT 
WAT WAT WAT WAT WAT WAT WAT WAT WAT WAT WAT WAT WAT WAT WAT WAT WAT WAT WAT WAT 
WAT WAT WAT WAT WAT WAT WAT WAT WAT WAT WAT WAT WAT WAT WAT WAT WAT WAT WAT WAT 
WAT WAT WAT WAT WAT WAT WAT WAT WAT WAT WAT WAT WAT WAT WAT WAT WAT WAT WAT WAT 
WAT WAT WAT WAT WAT WAT WAT WAT WAT WAT WAT WAT WAT WAT WAT WAT WAT WAT WAT WAT 
WAT WAT WAT WAT WAT WAT WAT WAT WAT WAT WAT WAT WAT WAT WAT WAT WAT WAT WAT WAT 
WAT WAT WAT WAT WAT WAT WAT WAT WAT WAT WAT WAT WAT WAT WAT WAT WAT WAT WAT WAT 
WAT WAT WAT WAT WAT WAT WAT WAT WAT WAT WAT WAT WAT WAT WAT WAT WAT WAT WAT WAT 
WAT WAT WAT WAT WAT WAT WAT WAT WAT WAT WAT WAT WAT WAT WAT WAT WAT WAT WAT WAT 
WAT WAT WAT WAT WAT WAT WAT WAT WAT WAT WAT WAT WAT WAT WAT WAT WAT WAT WAT WAT 
WAT WAT WAT WAT WAT WAT WAT WAT WAT WAT WAT WAT WAT WAT WAT WAT WAT WAT WAT WAT 
WAT WAT WAT WAT WAT WAT WAT WAT WAT WAT WAT WAT WAT WAT WAT WAT WAT WAT WAT WAT 
WAT WAT WAT WAT WAT WAT WAT WAT WAT WAT WAT WAT WAT WAT WAT WAT WAT WAT WAT WAT 
WAT WAT WAT WAT WAT WAT WAT WAT WAT WAT WAT WAT WAT WAT WAT WAT WAT WAT WAT WAT 
WAT WAT WAT WAT WAT WAT WAT WAT WAT WAT WAT WAT WAT WAT WAT WAT WAT WAT WAT WAT 
WAT WAT WAT WAT WAT WAT WAT WAT WAT WAT WAT WAT WAT WAT WAT WAT WAT WAT WAT WAT 
WAT WAT WAT WAT WAT WAT WAT WAT WAT WAT WAT WAT WAT WAT WAT WAT WAT WAT WAT WAT 
WAT WAT WAT WAT WAT WAT WAT WAT WAT WAT WAT WAT WAT WAT WAT WAT WAT WAT WAT WAT 
WAT WAT WAT WAT WAT WAT WAT WAT WAT WAT WAT WAT WAT WAT WAT WAT WAT WAT WAT WAT 
WAT WAT WAT WAT WAT WAT WAT WAT WAT WAT WAT WAT WAT WAT WAT WAT WAT WAT WAT WAT 
WAT WAT WAT WAT WAT WAT WAT WAT WAT WAT WAT WAT WAT WAT WAT WAT WAT WAT WAT WAT 
WAT WAT WAT WAT WAT WAT WAT WAT WAT WAT WAT WAT WAT WAT WAT WAT WAT WAT WAT WAT 
WAT WAT WAT WAT WAT WAT WAT WAT WAT WAT WAT WAT WAT WAT WAT WAT WAT WAT WAT WAT 
WAT WAT WAT WAT WAT WAT WAT WAT WAT WAT WAT WAT WAT WAT WAT WAT WAT WAT WAT WAT 
WAT WAT WAT WAT WAT WAT WAT WAT WAT WAT WAT WAT WAT WAT WAT WAT WAT WAT WAT WAT 
WAT WAT WAT WAT WAT WAT WAT WAT WAT WAT WAT WAT WAT WAT WAT WAT WAT WAT WAT WAT 
WAT WAT WAT WAT WAT WAT WAT WAT WAT WAT WAT WAT WAT WAT WAT WAT WAT WAT WAT WAT 
WAT WAT WAT WAT WAT WAT WAT WAT WAT WAT WAT WAT WAT WAT WAT WAT WAT WAT WAT WAT 
WAT WAT WAT WAT WAT WAT WAT WAT WAT WAT WAT WAT WAT WAT WAT WAT WAT WAT WAT WAT 
WAT WAT WAT WAT WAT WAT WAT WAT WAT WAT WAT WAT WAT WAT WAT WAT WAT WAT WAT WAT 
WAT WAT WAT WAT WAT WAT WAT WAT WAT WAT WAT WAT WAT WAT WAT WAT WAT WAT WAT WAT 
WAT WAT WAT WAT WAT WAT WAT WAT WAT WAT WAT WAT WAT WAT WAT WAT WAT WAT WAT WAT 
WAT WAT WAT WAT WAT WAT WAT WAT WAT WAT WAT WAT WAT WAT WAT WAT WAT WAT WAT WAT 
WAT WAT WAT WAT WAT WAT WAT WAT WAT WAT WAT WAT WAT WAT WAT WAT WAT WAT WAT WAT 
WAT WAT WAT WAT WAT WAT WAT WAT WAT WAT WAT WAT WAT WAT WAT WAT WAT WAT WAT WAT 
WAT WAT WAT WAT WAT WAT WAT WAT WAT WAT WAT WAT WAT WAT WAT WAT WAT WAT WAT WAT 
WAT WAT WAT WAT WAT WAT WAT WAT WAT WAT WAT WAT WAT WAT WAT WAT WAT WAT WAT WAT 
WAT WAT WAT WAT WAT WAT WAT WAT WAT WAT WAT WAT WAT WAT WAT WAT WAT WAT WAT WAT 
WAT WAT WAT WAT WAT WAT WAT WAT WAT WAT WAT WAT WAT WAT WAT WAT WAT WAT WAT WAT 
WAT WAT WAT WAT WAT WAT WAT WAT WAT WAT WAT WAT WAT WAT WAT WAT WAT WAT WAT WAT 
WAT WAT WAT WAT WAT WAT WAT WAT WAT WAT WAT WAT WAT WAT WAT WAT WAT WAT WAT WAT 
WAT WAT WAT WAT WAT WAT WAT WAT WAT WAT WAT WAT WAT WAT WAT WAT WAT WAT WAT WAT 
WAT WAT WAT WAT WAT WAT WAT WAT WAT WAT WAT WAT WAT WAT WAT WAT WAT WAT WAT WAT 
WAT WAT WAT WAT WAT WAT WAT WAT WAT WAT WAT WAT WAT WAT WAT WAT WAT WAT WAT WAT 
WAT WAT WAT WAT WAT WAT WAT WAT WAT WAT WAT WAT WAT WAT WAT WAT WAT WAT WAT WAT 
WAT WAT WAT WAT WAT WAT WAT WAT WAT WAT WAT WAT WAT WAT WAT WAT WAT WAT WAT WAT 
WAT WAT WAT WAT WAT WAT WAT WAT WAT WAT WAT WAT WAT WAT WAT WAT WAT WAT WAT WAT 
WAT WAT WAT WAT WAT WAT WAT WAT WAT WAT WAT WAT WAT WAT WAT WAT WAT WAT WAT WAT 
WAT WAT WAT WAT WAT WAT WAT WAT WAT WAT WAT WAT WAT WAT WAT WAT WAT WAT WAT WAT 
WAT WAT WAT WAT WAT WAT WAT WAT WAT WAT WAT WAT WAT WAT WAT WAT WAT WAT WAT WAT 
WAT WAT WAT WAT WAT WAT WAT WAT WAT WAT WAT WAT WAT WAT WAT WAT WAT WAT WAT WAT 
WAT WAT WAT WAT WAT WAT WAT WAT WAT WAT WAT WAT WAT WAT WAT WAT WAT WAT WAT WAT 
WAT WAT WAT WAT WAT WAT WAT WAT WAT WAT WAT WAT WAT WAT WAT WAT WAT WAT WAT WAT 
WAT WAT WAT WAT WAT WAT WAT WAT WAT WAT WAT WAT WAT WAT WAT WAT WAT WAT WAT WAT 
WAT WAT WAT WAT WAT WAT WAT WAT WAT WAT WAT WAT WAT WAT WAT WAT WAT WAT WAT WAT 
WAT WAT WAT WAT WAT WAT WAT WAT WAT WAT WAT WAT WAT WAT WAT WAT WAT WAT WAT WAT 
WAT WAT WAT WAT WAT WAT WAT WAT WAT WAT WAT WAT WAT WAT WAT WAT WAT WAT WAT WAT 
WAT WAT WAT WAT WAT WAT WAT WAT WAT WAT WAT WAT WAT WAT WAT WAT WAT WAT WAT WAT 
WAT WAT WAT WAT WAT WAT WAT WAT WAT WAT WAT WAT WAT WAT WAT WAT WAT WAT WAT WAT 
WAT WAT WAT WAT WAT WAT WAT WAT WAT WAT WAT WAT WAT WAT WAT WAT WAT WAT WAT WAT 
WAT WAT WAT WAT WAT WAT WAT WAT WAT WAT WAT WAT WAT WAT WAT WAT WAT WAT WAT WAT 
WAT WAT WAT WAT WAT WAT WAT WAT WAT WAT WAT WAT WAT WAT WAT WAT WAT WAT WAT WAT 
WAT WAT WAT WAT WAT WAT WAT WAT WAT WAT WAT WAT WAT WAT WAT WAT WAT WAT WAT WAT 
WAT WAT WAT WAT WAT WAT WAT WAT WAT WAT WAT WAT WAT WAT WAT WAT WAT WAT WAT WAT 
WAT WAT WAT WAT WAT WAT WAT WAT WAT WAT WAT WAT WAT WAT WAT WAT WAT WAT WAT WAT 
WAT WAT WAT WAT WAT WAT WAT WAT WAT WAT WAT WAT WAT WAT WAT WAT WAT WAT WAT WAT 
WAT WAT WAT WAT WAT WAT WAT WAT WAT WAT WAT WAT WAT WAT WAT WAT WAT WAT WAT WAT 
WAT WAT WAT WAT WAT WAT WAT WAT WAT WAT WAT WAT WAT WAT WAT WAT WAT WAT WAT WAT 
WAT WAT WAT WAT WAT WAT WAT WAT WAT WAT WAT WAT WAT WAT WAT WAT WAT WAT WAT WAT 
WAT WAT WAT WAT WAT WAT WAT WAT WAT WAT WAT WAT WAT WAT WAT WAT WAT WAT WAT WAT 
WAT WAT WAT WAT WAT WAT WAT WAT WAT WAT WAT WAT WAT WAT WAT WAT WAT WAT WAT WAT 
WAT WAT WAT WAT WAT WAT WAT WAT WAT WAT WAT WAT WAT WAT WAT WAT WAT WAT WAT WAT 
WAT WAT WAT WAT WAT WAT WAT WAT WAT WAT WAT WAT WAT WAT WAT WAT WAT WAT WAT WAT 
WAT WAT WAT WAT WAT WAT WAT WAT WAT WAT WAT WAT WAT WAT WAT WAT WAT WAT WAT WAT 
WAT WAT WAT WAT WAT WAT WAT WAT WAT WAT WAT WAT WAT WAT WAT WAT WAT WAT WAT WAT 
WAT WAT WAT WAT WAT WAT WAT WAT WAT WAT WAT WAT WAT WAT WAT WAT WAT WAT WAT WAT 
WAT WAT WAT WAT WAT WAT WAT WAT WAT WAT WAT WAT WAT WAT WAT WAT WAT WAT WAT WAT 
WAT WAT WAT WAT WAT WAT WAT WAT WAT WAT WAT WAT WAT WAT WAT WAT WAT WAT WAT WAT 
WAT WAT WAT WAT WAT WAT WAT WAT WAT WAT WAT WAT WAT WAT WAT WAT WAT WAT WAT WAT 
WAT WAT WAT WAT WAT WAT WAT WAT WAT WAT WAT WAT WAT WAT WAT WAT WAT WAT WAT WAT 
WAT WAT WAT WAT WAT WAT WAT WAT WAT WAT WAT WAT WAT WAT WAT WAT WAT WAT WAT WAT 
WAT WAT WAT WAT WAT WAT WAT WAT WAT WAT WAT WAT WAT WAT WAT WAT WAT WAT WAT WAT 
WAT WAT WAT WAT WAT WAT WAT WAT WAT WAT WAT WAT WAT WAT WAT WAT WAT WAT WAT WAT 
WAT WAT WAT WAT WAT WAT WAT WAT WAT WAT WAT WAT WAT WAT WAT WAT WAT WAT WAT WAT 
WAT WAT WAT WAT WAT WAT WAT WAT WAT WAT WAT WAT WAT WAT WAT WAT WAT WAT WAT WAT 
WAT WAT WAT WAT WAT WAT WAT WAT WAT WAT WAT WAT WAT WAT WAT WAT WAT WAT WAT WAT 
WAT WAT WAT WAT WAT WAT WAT WAT WAT WAT WAT WAT WAT WAT WAT WAT WAT WAT WAT WAT 
WAT WAT WAT WAT WAT WAT WAT WAT WAT WAT WAT WAT WAT WAT WAT WAT WAT WAT WAT WAT 
WAT WAT WAT WAT WAT WAT WAT WAT WAT WAT WAT WAT WAT WAT WAT WAT WAT WAT WAT WAT 
WAT WAT WAT WAT WAT WAT WAT WAT WAT WAT WAT WAT WAT WAT WAT WAT WAT WAT WAT WAT 
WAT WAT WAT WAT WAT WAT WAT WAT WAT WAT WAT WAT WAT WAT WAT WAT WAT WAT WAT WAT 
WAT WAT WAT WAT WAT WAT WAT WAT WAT WAT WAT WAT WAT WAT WAT WAT WAT WAT WAT WAT 
WAT WAT WAT WAT WAT WAT WAT WAT WAT WAT WAT WAT WAT WAT WAT WAT WAT WAT WAT WAT 
WAT WAT WAT WAT WAT WAT WAT WAT WAT WAT WAT WAT WAT WAT WAT WAT WAT WAT WAT WAT 
WAT WAT WAT WAT WAT WAT WAT WAT WAT WAT WAT WAT WAT WAT WAT WAT WAT WAT WAT WAT 
WAT WAT WAT WAT WAT WAT WAT WAT WAT WAT WAT WAT WAT WAT WAT WAT WAT WAT WAT WAT 
WAT WAT WAT WAT WAT WAT WAT WAT WAT WAT WAT WAT WAT WAT WAT WAT WAT WAT WAT WAT 
WAT WAT WAT WAT WAT WAT WAT WAT WAT WAT WAT WAT WAT WAT WAT WAT WAT WAT WAT WAT 
WAT WAT WAT WAT WAT WAT WAT WAT WAT WAT WAT WAT WAT WAT WAT WAT WAT WAT WAT WAT 
WAT WAT WAT WAT WAT WAT WAT WAT WAT WAT WAT WAT WAT WAT WAT WAT WAT WAT WAT WAT 
WAT WAT WAT WAT WAT WAT WAT WAT WAT WAT WAT WAT WAT WAT WAT WAT WAT WAT WAT WAT 
WAT WAT WAT WAT WAT WAT WAT WAT WAT WAT WAT WAT WAT WAT WAT WAT WAT WAT WAT WAT 
WAT WAT WAT WAT WAT WAT WAT WAT WAT WAT WAT WAT WAT WAT WAT WAT WAT WAT WAT WAT 
WAT WAT WAT WAT WAT WAT WAT WAT WAT WAT WAT WAT WAT WAT WAT WAT WAT WAT WAT WAT 
WAT WAT WAT WAT WAT WAT WAT WAT WAT WAT WAT WAT WAT WAT WAT WAT WAT WAT WAT WAT 
WAT WAT WAT WAT WAT WAT WAT WAT WAT WAT WAT WAT WAT WAT WAT WAT WAT WAT WAT WAT 
WAT WAT WAT WAT WAT WAT WAT WAT WAT WAT WAT WAT WAT WAT WAT WAT WAT WAT WAT WAT 
WAT WAT WAT WAT WAT WAT WAT WAT WAT WAT WAT WAT WAT WAT WAT WAT WAT WAT WAT WAT 
WAT WAT WAT WAT WAT WAT WAT WAT WAT WAT WAT WAT WAT WAT WAT WAT WAT WAT WAT WAT 
WAT WAT WAT WAT WAT WAT WAT WAT WAT WAT WAT WAT WAT WAT WAT WAT WAT WAT WAT WAT 
WAT WAT WAT WAT WAT WAT WAT WAT WAT WAT WAT WAT WAT WAT WAT WAT WAT WAT WAT WAT 
WAT WAT WAT WAT WAT WAT WAT WAT WAT WAT WAT WAT WAT WAT WAT WAT WAT WAT WAT WAT 
WAT WAT WAT WAT WAT WAT WAT WAT WAT WAT WAT WAT WAT WAT WAT WAT WAT WAT WAT WAT 
WAT WAT WAT WAT WAT WAT WAT WAT WAT WAT WAT WAT WAT WAT WAT WAT WAT WAT WAT WAT 
WAT WAT WAT WAT WAT WAT WAT WAT WAT WAT WAT WAT WAT WAT WAT WAT WAT WAT WAT WAT 
WAT WAT WAT WAT WAT WAT WAT WAT WAT WAT WAT WAT WAT WAT WAT WAT WAT WAT WAT WAT 
WAT WAT WAT WAT WAT WAT WAT WAT WAT WAT WAT WAT WAT WAT WAT WAT WAT WAT WAT WAT 
WAT WAT WAT WAT WAT WAT WAT WAT WAT WAT WAT WAT WAT WAT WAT WAT WAT WAT WAT WAT 
WAT WAT WAT WAT WAT WAT WAT WAT WAT WAT WAT WAT WAT WAT WAT WAT WAT WAT WAT WAT 
WAT WAT WAT WAT WAT WAT WAT WAT WAT WAT WAT WAT WAT WAT WAT WAT WAT WAT WAT WAT 
WAT WAT WAT WAT WAT WAT WAT WAT WAT WAT WAT WAT WAT WAT WAT WAT WAT WAT WAT WAT 
WAT WAT WAT WAT WAT WAT WAT WAT WAT WAT WAT WAT WAT WAT WAT WAT WAT WAT WAT WAT 
WAT WAT WAT WAT WAT WAT WAT WAT WAT WAT WAT WAT WAT WAT WAT WAT WAT WAT WAT WAT 
WAT WAT WAT WAT WAT WAT WAT WAT WAT WAT WAT WAT WAT WAT WAT WAT WAT WAT WAT WAT 
WAT WAT WAT WAT WAT WAT WAT WAT WAT WAT WAT WAT WAT WAT WAT WAT WAT WAT WAT WAT 
WAT WAT WAT WAT WAT WAT WAT WAT WAT WAT WAT WAT WAT WAT WAT WAT WAT WAT WAT WAT 
WAT WAT WAT WAT WAT WAT WAT WAT WAT WAT WAT WAT WAT WAT WAT WAT WAT WAT WAT WAT 
WAT WAT WAT WAT WAT WAT WAT WAT WAT WAT WAT WAT WAT WAT WAT WAT WAT WAT WAT WAT 
WAT WAT WAT WAT WAT WAT WAT WAT WAT WAT WAT WAT WAT WAT WAT WAT WAT WAT WAT WAT 
WAT WAT WAT WAT WAT WAT WAT WAT WAT WAT WAT WAT WAT WAT WAT WAT WAT WAT WAT WAT 
WAT WAT WAT WAT WAT WAT WAT WAT WAT WAT WAT WAT WAT WAT WAT WAT WAT WAT WAT WAT 
WAT WAT WAT WAT WAT WAT WAT WAT WAT WAT WAT WAT WAT WAT WAT WAT WAT WAT WAT WAT 
WAT WAT WAT WAT WAT WAT WAT WAT WAT WAT WAT WAT WAT WAT WAT WAT WAT WAT WAT WAT 
WAT WAT WAT WAT WAT WAT WAT WAT WAT WAT WAT WAT WAT WAT WAT WAT WAT WAT WAT WAT 
WAT WAT WAT WAT WAT WAT WAT WAT WAT WAT WAT WAT WAT WAT WAT WAT WAT WAT WAT WAT 
WAT WAT WAT WAT WAT WAT WAT WAT WAT WAT WAT WAT WAT WAT WAT WAT WAT WAT WAT WAT 
WAT WAT WAT WAT WAT WAT WAT WAT WAT WAT WAT WAT WAT WAT WAT WAT WAT WAT WAT WAT 
WAT WAT WAT WAT WAT WAT WAT WAT WAT WAT WAT WAT WAT WAT WAT WAT WAT WAT WAT WAT 
WAT WAT WAT WAT WAT WAT WAT WAT WAT WAT WAT WAT WAT WAT WAT WAT WAT WAT WAT WAT 
WAT WAT WAT WAT WAT WAT WAT WAT WAT WAT WAT WAT WAT WAT WAT WAT WAT WAT WAT WAT 
WAT WAT WAT WAT WAT WAT WAT WAT WAT WAT WAT WAT WAT WAT WAT WAT WAT WAT WAT WAT 
WAT WAT WAT WAT WAT WAT WAT WAT WAT WAT WAT WAT WAT WAT WAT WAT WAT WAT WAT WAT 
WAT WAT WAT WAT WAT WAT WAT WAT WAT WAT WAT WAT WAT WAT WAT WAT WAT WAT WAT WAT 
WAT WAT WAT WAT WAT WAT WAT WAT WAT WAT WAT WAT WAT WAT WAT WAT WAT WAT WAT WAT 
WAT WAT WAT WAT WAT WAT WAT WAT WAT WAT WAT WAT WAT WAT WAT WAT WAT WAT WAT WAT 
WAT WAT WAT WAT WAT WAT WAT WAT WAT WAT WAT WAT WAT WAT WAT WAT WAT WAT WAT WAT 
WAT WAT WAT WAT WAT WAT WAT WAT WAT WAT WAT WAT WAT WAT WAT WAT WAT WAT WAT WAT 
WAT WAT WAT WAT WAT WAT WAT WAT WAT WAT WAT WAT WAT WAT WAT WAT WAT WAT WAT WAT 
WAT WAT WAT WAT WAT WAT WAT WAT WAT WAT WAT WAT WAT WAT WAT WAT WAT WAT WAT WAT 
WAT WAT WAT WAT WAT WAT WAT WAT WAT WAT WAT WAT WAT WAT WAT WAT WAT WAT WAT WAT 
WAT WAT WAT WAT WAT WAT WAT WAT WAT WAT WAT WAT WAT WAT WAT WAT WAT WAT WAT WAT 
WAT WAT WAT WAT WAT WAT WAT WAT WAT WAT WAT WAT WAT WAT WAT WAT WAT WAT WAT WAT 
WAT WAT WAT WAT WAT WAT WAT WAT WAT WAT WAT WAT WAT WAT WAT WAT WAT WAT WAT WAT 
WAT WAT WAT WAT WAT WAT WAT WAT WAT WAT WAT WAT WAT WAT WAT WAT WAT WAT WAT WAT 
WAT WAT WAT WAT WAT WAT WAT WAT WAT WAT WAT WAT WAT WAT WAT WAT WAT WAT WAT WAT 
WAT WAT WAT WAT WAT WAT WAT WAT WAT WAT WAT WAT WAT WAT WAT WAT WAT WAT WAT WAT 
WAT WAT WAT WAT WAT WAT WAT WAT WAT WAT WAT WAT WAT WAT WAT WAT WAT WAT WAT WAT 
WAT WAT WAT WAT WAT WAT WAT WAT WAT WAT WAT WAT WAT WAT WAT WAT WAT WAT WAT WAT 
WAT WAT WAT WAT WAT WAT WAT WAT WAT WAT WAT WAT WAT WAT WAT WAT WAT WAT WAT WAT 
WAT WAT WAT WAT WAT WAT WAT WAT WAT WAT WAT WAT WAT WAT WAT WAT WAT WAT WAT WAT 
WAT WAT WAT WAT WAT WAT WAT WAT WAT WAT WAT WAT WAT WAT WAT WAT WAT WAT WAT WAT 
WAT WAT WAT WAT WAT WAT WAT WAT WAT WAT WAT WAT WAT WAT WAT WAT WAT WAT WAT WAT 
WAT WAT WAT WAT WAT WAT WAT WAT WAT WAT WAT WAT WAT WAT WAT WAT WAT WAT WAT WAT 
WAT WAT WAT WAT WAT WAT WAT WAT WAT WAT WAT WAT WAT WAT WAT WAT WAT WAT WAT WAT 
WAT WAT WAT WAT WAT WAT WAT WAT WAT WAT WAT WAT WAT WAT WAT WAT WAT WAT WAT WAT 
WAT WAT WAT WAT WAT WAT WAT WAT WAT WAT WAT WAT WAT WAT WAT WAT WAT WAT WAT WAT 
WAT WAT WAT WAT WAT WAT WAT WAT WAT WAT WAT WAT WAT WAT WAT WAT WAT WAT WAT WAT 
WAT WAT WAT WAT WAT WAT WAT WAT WAT WAT WAT WAT WAT WAT WAT WAT WAT WAT WAT WAT 
WAT WAT WAT WAT WAT WAT WAT WAT WAT WAT WAT WAT WAT WAT WAT WAT WAT WAT WAT WAT 
WAT WAT WAT WAT WAT WAT WAT WAT WAT WAT WAT WAT WAT WAT WAT WAT WAT WAT WAT WAT 
WAT WAT WAT WAT WAT WAT WAT WAT WAT WAT WAT WAT WAT WAT WAT WAT WAT WAT WAT WAT 
WAT WAT WAT WAT WAT WAT WAT WAT WAT WAT WAT WAT WAT WAT WAT WAT WAT WAT WAT WAT 
WAT WAT WAT WAT WAT WAT WAT WAT WAT WAT WAT WAT WAT WAT WAT WAT WAT WAT WAT WAT 
WAT WAT WAT WAT WAT WAT WAT WAT WAT WAT WAT WAT WAT WAT WAT WAT WAT WAT WAT WAT 
WAT WAT WAT WAT WAT WAT WAT WAT WAT WAT WAT WAT WAT WAT WAT WAT WAT WAT WAT WAT 
WAT WAT WAT WAT WAT WAT WAT WAT WAT WAT WAT WAT WAT WAT WAT WAT WAT WAT WAT WAT 
WAT WAT WAT WAT WAT WAT WAT WAT WAT WAT WAT WAT WAT WAT WAT WAT WAT WAT WAT WAT 
WAT WAT WAT WAT WAT WAT WAT WAT WAT WAT WAT WAT WAT WAT WAT WAT WAT WAT WAT WAT 
WAT WAT WAT WAT WAT WAT WAT WAT WAT WAT WAT WAT WAT WAT WAT WAT WAT WAT WAT WAT 
WAT WAT WAT WAT WAT WAT WAT WAT WAT WAT WAT WAT WAT WAT WAT WAT WAT WAT WAT WAT 
WAT WAT WAT WAT WAT WAT WAT WAT WAT WAT WAT WAT WAT WAT WAT WAT WAT WAT WAT WAT 
WAT WAT WAT WAT WAT WAT WAT WAT WAT WAT WAT WAT WAT WAT WAT WAT WAT WAT WAT WAT 
WAT WAT WAT WAT WAT WAT WAT WAT WAT WAT WAT WAT WAT WAT WAT WAT WAT WAT WAT WAT 
WAT WAT WAT WAT WAT WAT WAT WAT WAT WAT WAT WAT WAT WAT WAT WAT WAT WAT WAT WAT 
WAT WAT WAT WAT WAT WAT WAT WAT WAT WAT WAT WAT WAT WAT WAT WAT WAT WAT WAT WAT 
WAT WAT WAT WAT WAT WAT WAT WAT WAT WAT WAT WAT WAT WAT WAT WAT WAT WAT WAT WAT 
WAT WAT WAT WAT WAT WAT WAT WAT WAT WAT WAT WAT WAT WAT WAT WAT WAT WAT WAT WAT 
WAT WAT WAT WAT WAT WAT WAT WAT WAT WAT WAT WAT WAT WAT WAT WAT WAT WAT WAT WAT 
WAT WAT WAT WAT WAT WAT WAT WAT WAT WAT WAT WAT WAT WAT WAT WAT WAT WAT WAT WAT 
WAT WAT WAT WAT WAT WAT WAT WAT WAT WAT WAT WAT WAT WAT WAT WAT WAT WAT WAT WAT 
WAT WAT WAT WAT WAT WAT WAT WAT WAT WAT WAT WAT WAT WAT WAT WAT WAT WAT WAT WAT 
WAT WAT WAT WAT WAT WAT WAT WAT WAT WAT WAT WAT WAT WAT WAT WAT WAT WAT WAT WAT 
WAT WAT WAT WAT WAT WAT WAT WAT WAT WAT WAT WAT WAT WAT WAT WAT WAT WAT WAT WAT 
WAT WAT WAT WAT WAT WAT WAT WAT WAT WAT WAT WAT WAT WAT WAT WAT WAT WAT WAT WAT 
WAT WAT WAT WAT WAT WAT WAT WAT WAT WAT WAT WAT WAT WAT WAT WAT WAT WAT WAT WAT 
WAT WAT WAT WAT WAT WAT WAT WAT WAT WAT WAT WAT WAT WAT WAT WAT WAT WAT WAT WAT 
WAT WAT WAT WAT WAT WAT WAT WAT WAT WAT WAT WAT WAT WAT WAT WAT WAT WAT WAT WAT 
WAT WAT WAT WAT WAT WAT WAT WAT WAT WAT WAT WAT WAT WAT WAT WAT WAT WAT WAT WAT 
WAT WAT WAT WAT WAT WAT WAT WAT WAT WAT WAT WAT WAT WAT WAT WAT WAT WAT WAT WAT 
WAT WAT WAT WAT WAT WAT WAT WAT WAT WAT WAT WAT WAT WAT WAT WAT WAT WAT WAT WAT 
WAT WAT WAT WAT WAT WAT WAT WAT WAT WAT WAT WAT WAT WAT WAT WAT WAT WAT WAT WAT 
WAT WAT WAT WAT WAT WAT WAT WAT WAT WAT WAT WAT WAT WAT WAT WAT WAT WAT WAT WAT 
WAT WAT WAT WAT WAT WAT WAT WAT WAT WAT WAT WAT WAT WAT WAT WAT WAT WAT WAT WAT 
WAT WAT WAT WAT WAT WAT WAT WAT WAT WAT WAT WAT WAT WAT WAT WAT WAT WAT WAT WAT 
WAT WAT WAT WAT WAT WAT WAT WAT WAT WAT WAT WAT WAT WAT WAT WAT WAT WAT WAT WAT 
WAT WAT WAT WAT WAT WAT WAT WAT WAT WAT WAT WAT WAT WAT WAT WAT WAT WAT WAT WAT 
WAT WAT WAT WAT WAT WAT WAT WAT WAT WAT WAT WAT WAT WAT WAT WAT WAT WAT WAT WAT 
WAT WAT WAT WAT WAT WAT WAT WAT WAT WAT WAT WAT WAT WAT WAT WAT WAT WAT WAT WAT 
WAT WAT WAT WAT WAT WAT WAT WAT WAT WAT WAT WAT WAT WAT WAT WAT WAT WAT WAT WAT 
WAT WAT WAT WAT WAT WAT WAT WAT WAT WAT WAT WAT WAT WAT WAT WAT WAT WAT WAT WAT 
WAT WAT WAT WAT WAT WAT WAT WAT WAT WAT WAT WAT WAT WAT WAT WAT WAT WAT WAT WAT 
WAT WAT WAT WAT WAT WAT WAT WAT WAT WAT WAT WAT WAT WAT WAT WAT WAT WAT WAT WAT 
WAT WAT WAT WAT WAT WAT WAT WAT WAT WAT WAT WAT WAT WAT WAT WAT WAT WAT WAT WAT 
WAT WAT WAT WAT WAT WAT WAT WAT WAT WAT WAT WAT WAT WAT WAT WAT WAT WAT WAT WAT 
WAT WAT WAT WAT WAT WAT WAT WAT WAT WAT WAT WAT WAT WAT WAT WAT WAT WAT WAT WAT 
WAT WAT WAT WAT WAT WAT WAT WAT WAT WAT WAT WAT WAT WAT WAT WAT WAT WAT WAT WAT 
WAT WAT WAT WAT WAT WAT WAT WAT WAT WAT WAT WAT WAT WAT WAT WAT WAT WAT WAT WAT 
WAT WAT WAT WAT WAT WAT WAT WAT WAT WAT WAT WAT WAT WAT WAT WAT WAT WAT WAT WAT 
WAT WAT WAT WAT WAT WAT WAT WAT WAT WAT WAT WAT WAT WAT WAT WAT WAT WAT WAT WAT 
WAT WAT WAT WAT WAT WAT WAT WAT WAT WAT WAT WAT WAT WAT WAT WAT WAT WAT WAT WAT 
WAT WAT WAT WAT WAT WAT WAT WAT WAT WAT WAT WAT WAT WAT WAT WAT WAT WAT WAT WAT 
WAT WAT WAT WAT WAT WAT WAT WAT WAT WAT WAT WAT WAT WAT WAT WAT WAT WAT WAT WAT 
WAT WAT WAT WAT WAT WAT WAT WAT WAT WAT WAT WAT WAT WAT WAT WAT WAT WAT WAT WAT 
WAT WAT WAT WAT WAT WAT WAT WAT WAT WAT WAT WAT WAT WAT WAT WAT WAT WAT WAT WAT 
WAT WAT WAT WAT WAT WAT WAT WAT WAT WAT WAT WAT WAT WAT WAT WAT WAT WAT WAT WAT 
WAT WAT WAT WAT WAT WAT WAT WAT WAT WAT WAT WAT WAT WAT WAT WAT WAT WAT WAT WAT 
WAT WAT WAT WAT WAT WAT WAT WAT WAT WAT WAT WAT WAT WAT WAT WAT WAT WAT WAT WAT 
WAT WAT WAT WAT WAT WAT WAT WAT WAT WAT WAT WAT WAT WAT WAT WAT WAT WAT WAT WAT 
WAT WAT WAT WAT WAT WAT WAT WAT WAT WAT WAT WAT WAT WAT WAT WAT WAT WAT WAT WAT 
WAT WAT WAT WAT WAT WAT WAT WAT WAT WAT WAT WAT WAT WAT WAT WAT WAT WAT WAT WAT 
WAT WAT WAT WAT WAT WAT WAT WAT WAT WAT WAT WAT WAT WAT WAT WAT WAT WAT WAT WAT 
WAT WAT WAT WAT WAT WAT WAT WAT WAT WAT WAT WAT WAT WAT WAT WAT WAT WAT WAT WAT 
WAT WAT WAT WAT WAT WAT WAT WAT WAT WAT WAT WAT WAT WAT WAT WAT WAT WAT WAT WAT 
WAT WAT WAT WAT WAT WAT WAT WAT WAT WAT WAT WAT WAT WAT WAT WAT WAT WAT WAT WAT 
WAT WAT WAT WAT WAT WAT WAT WAT WAT WAT WAT WAT WAT WAT WAT WAT WAT WAT WAT WAT 
WAT WAT WAT WAT WAT WAT WAT WAT WAT WAT WAT WAT WAT WAT WAT WAT WAT WAT WAT WAT 
WAT WAT WAT WAT WAT WAT WAT WAT WAT WAT WAT WAT WAT WAT WAT WAT WAT WAT WAT WAT 
WAT WAT WAT WAT WAT WAT WAT WAT WAT WAT WAT WAT WAT WAT WAT WAT WAT WAT WAT WAT 
WAT WAT WAT WAT WAT WAT WAT WAT WAT WAT WAT WAT WAT WAT WAT WAT WAT WAT WAT WAT 
WAT WAT WAT WAT WAT WAT WAT WAT WAT WAT WAT WAT WAT WAT WAT WAT WAT WAT WAT WAT 
WAT WAT WAT WAT WAT WAT WAT WAT WAT WAT WAT WAT WAT WAT WAT WAT WAT WAT WAT WAT 
WAT WAT WAT WAT WAT WAT WAT WAT WAT WAT WAT WAT WAT WAT WAT WAT WAT WAT WAT WAT 
WAT WAT WAT WAT WAT WAT WAT WAT WAT WAT WAT WAT WAT WAT WAT WAT WAT WAT WAT WAT 
WAT WAT WAT WAT WAT WAT WAT WAT WAT WAT WAT WAT WAT WAT WAT WAT WAT WAT WAT WAT 
WAT WAT WAT WAT WAT WAT WAT WAT WAT WAT WAT WAT WAT WAT WAT WAT WAT WAT WAT WAT 
WAT WAT WAT WAT WAT WAT WAT WAT WAT WAT WAT WAT WAT WAT WAT WAT WAT WAT WAT WAT 
WAT WAT WAT WAT WAT WAT WAT WAT WAT WAT WAT WAT WAT WAT WAT WAT WAT WAT WAT WAT 
WAT WAT WAT WAT WAT WAT WAT WAT WAT WAT WAT WAT WAT WAT WAT WAT WAT WAT WAT WAT 
WAT WAT WAT WAT WAT WAT WAT WAT WAT WAT WAT WAT WAT WAT WAT WAT WAT WAT WAT WAT 
WAT WAT WAT WAT WAT WAT WAT WAT WAT WAT WAT WAT WAT WAT WAT WAT WAT WAT WAT WAT 
WAT WAT WAT WAT WAT WAT WAT WAT WAT WAT WAT WAT WAT WAT WAT WAT WAT WAT WAT WAT 
WAT WAT WAT WAT WAT WAT WAT WAT WAT WAT WAT WAT WAT WAT WAT WAT WAT WAT WAT WAT 
WAT WAT WAT WAT WAT WAT WAT WAT WAT WAT WAT WAT WAT WAT WAT WAT WAT WAT WAT WAT 
WAT WAT WAT WAT WAT WAT WAT WAT WAT WAT WAT WAT WAT WAT WAT WAT WAT WAT WAT WAT 
WAT WAT WAT WAT WAT WAT WAT WAT WAT WAT WAT WAT WAT WAT WAT WAT WAT WAT WAT WAT 
WAT WAT WAT WAT WAT WAT WAT WAT WAT WAT WAT WAT WAT WAT WAT WAT WAT WAT WAT WAT 
WAT WAT WAT WAT WAT WAT WAT WAT WAT WAT WAT WAT WAT WAT WAT WAT WAT WAT WAT WAT 
WAT WAT WAT WAT WAT WAT WAT WAT WAT WAT WAT WAT WAT WAT WAT WAT WAT WAT WAT WAT 
WAT WAT WAT WAT WAT WAT WAT WAT WAT WAT WAT WAT WAT WAT WAT WAT WAT WAT WAT WAT 
WAT WAT WAT WAT WAT WAT WAT WAT WAT WAT WAT WAT WAT WAT WAT WAT WAT WAT WAT WAT 
WAT WAT WAT WAT WAT WAT WAT WAT WAT WAT WAT WAT WAT WAT WAT WAT WAT WAT WAT WAT 
WAT WAT WAT WAT WAT WAT WAT WAT WAT WAT WAT WAT WAT WAT WAT WAT WAT WAT WAT WAT 
WAT WAT WAT WAT WAT WAT WAT WAT WAT WAT WAT WAT WAT WAT WAT WAT WAT WAT WAT WAT 
WAT WAT WAT WAT WAT WAT WAT WAT WAT WAT WAT WAT WAT WAT WAT WAT WAT WAT WAT WAT 
WAT WAT WAT WAT WAT WAT WAT WAT WAT WAT WAT WAT WAT WAT WAT WAT WAT WAT WAT WAT 
WAT WAT WAT WAT WAT WAT WAT WAT WAT WAT WAT WAT WAT WAT WAT WAT WAT WAT WAT WAT 
WAT WAT WAT WAT WAT WAT WAT WAT WAT WAT WAT WAT WAT WAT WAT WAT WAT WAT WAT WAT 
WAT WAT WAT WAT WAT WAT WAT WAT WAT WAT WAT WAT WAT WAT WAT WAT WAT WAT WAT WAT 
WAT WAT WAT WAT WAT WAT WAT WAT WAT WAT WAT WAT WAT WAT WAT WAT WAT WAT WAT WAT 
WAT WAT WAT WAT WAT WAT WAT WAT WAT WAT WAT WAT WAT WAT WAT WAT WAT WAT WAT WAT 
WAT WAT WAT WAT WAT WAT WAT WAT WAT WAT WAT WAT WAT WAT WAT WAT WAT WAT WAT WAT 
WAT WAT WAT WAT WAT WAT WAT WAT WAT WAT WAT WAT WAT WAT WAT WAT WAT WAT WAT WAT 
WAT WAT WAT WAT WAT WAT WAT WAT WAT WAT WAT WAT WAT WAT WAT WAT WAT WAT WAT WAT 
WAT WAT WAT WAT WAT WAT WAT WAT WAT WAT WAT WAT WAT WAT WAT WAT WAT WAT WAT WAT 
WAT WAT WAT WAT WAT WAT WAT WAT WAT WAT WAT WAT WAT WAT WAT WAT WAT WAT WAT WAT 
WAT WAT WAT WAT WAT WAT WAT WAT WAT WAT WAT WAT WAT WAT WAT WAT WAT WAT WAT WAT 
WAT WAT WAT WAT WAT WAT WAT WAT WAT WAT WAT WAT WAT WAT WAT WAT WAT WAT WAT WAT 
WAT WAT WAT WAT WAT WAT WAT WAT WAT WAT WAT WAT WAT WAT WAT WAT WAT WAT WAT WAT 
WAT WAT WAT WAT WAT WAT WAT WAT WAT WAT WAT WAT WAT WAT WAT WAT WAT WAT WAT WAT 
WAT WAT WAT WAT WAT WAT WAT WAT WAT WAT WAT WAT WAT WAT WAT WAT WAT WAT WAT WAT 
WAT WAT WAT WAT WAT WAT WAT WAT WAT WAT WAT WAT WAT WAT WAT WAT WAT WAT WAT WAT 
WAT WAT WAT WAT WAT WAT WAT WAT WAT WAT WAT WAT WAT WAT WAT WAT WAT WAT WAT WAT 
WAT WAT WAT WAT WAT WAT WAT WAT WAT WAT WAT WAT WAT WAT WAT WAT WAT WAT WAT WAT 
WAT WAT WAT WAT WAT WAT WAT WAT WAT WAT WAT WAT WAT WAT WAT WAT WAT WAT WAT WAT 
WAT WAT WAT WAT WAT WAT WAT WAT WAT WAT WAT WAT WAT WAT WAT WAT WAT WAT WAT WAT 
WAT WAT WAT WAT WAT WAT WAT WAT WAT WAT WAT WAT WAT WAT WAT WAT WAT WAT WAT WAT 
WAT WAT WAT WAT WAT WAT WAT WAT WAT WAT WAT WAT WAT WAT WAT WAT WAT WAT WAT WAT 
WAT WAT WAT WAT WAT WAT WAT WAT WAT WAT WAT WAT WAT WAT WAT WAT WAT WAT WAT WAT 
WAT WAT WAT WAT WAT WAT WAT WAT WAT WAT WAT WAT WAT WAT WAT WAT WAT WAT WAT WAT 
WAT WAT WAT WAT WAT WAT WAT WAT WAT WAT WAT WAT WAT WAT WAT WAT WAT WAT WAT WAT 
WAT WAT WAT WAT WAT WAT WAT WAT WAT WAT WAT WAT WAT WAT WAT WAT WAT WAT WAT WAT 
WAT WAT WAT WAT WAT WAT WAT WAT WAT WAT WAT WAT WAT WAT WAT WAT WAT WAT WAT WAT 
WAT WAT WAT WAT WAT WAT WAT WAT WAT WAT WAT WAT WAT WAT WAT WAT WAT WAT WAT WAT 
WAT WAT WAT WAT WAT WAT WAT WAT WAT WAT WAT WAT WAT WAT WAT WAT WAT WAT WAT WAT 
WAT WAT WAT WAT WAT WAT WAT WAT WAT WAT WAT WAT WAT WAT WAT WAT WAT WAT WAT WAT 
WAT WAT WAT WAT WAT WAT WAT WAT WAT WAT WAT WAT WAT WAT WAT WAT WAT WAT WAT WAT 
WAT WAT WAT WAT WAT WAT WAT WAT WAT WAT WAT WAT WAT WAT WAT WAT WAT WAT WAT WAT 
WAT WAT WAT WAT WAT WAT WAT WAT WAT WAT WAT WAT WAT WAT WAT WAT WAT WAT WAT WAT 
WAT WAT WAT WAT WAT WAT WAT WAT WAT WAT WAT WAT WAT WAT WAT WAT WAT WAT WAT WAT 
WAT WAT WAT WAT WAT WAT WAT WAT WAT WAT WAT WAT WAT WAT WAT WAT WAT WAT WAT WAT 
WAT WAT WAT WAT WAT WAT WAT WAT WAT WAT WAT WAT WAT WAT WAT WAT WAT WAT WAT WAT 
WAT WAT WAT WAT WAT WAT WAT WAT WAT WAT WAT WAT WAT WAT WAT WAT WAT WAT WAT WAT 
WAT WAT WAT WAT WAT WAT WAT WAT WAT WAT WAT WAT WAT WAT WAT WAT WAT WAT WAT WAT 
WAT WAT WAT WAT WAT WAT WAT WAT WAT WAT WAT WAT WAT WAT WAT WAT WAT WAT WAT WAT 
WAT WAT WAT WAT WAT WAT WAT WAT WAT WAT WAT WAT WAT WAT WAT WAT WAT WAT WAT WAT 
WAT WAT WAT WAT WAT WAT WAT WAT WAT WAT WAT WAT WAT WAT WAT WAT WAT WAT WAT WAT 
WAT WAT WAT WAT WAT WAT WAT WAT WAT WAT WAT WAT WAT WAT WAT WAT WAT WAT WAT WAT 
WAT WAT WAT WAT WAT WAT WAT WAT WAT WAT WAT WAT WAT WAT WAT WAT WAT WAT WAT WAT 
WAT WAT WAT WAT WAT WAT WAT WAT WAT WAT WAT WAT WAT WAT WAT WAT WAT WAT WAT WAT 
WAT WAT WAT WAT WAT WAT WAT WAT WAT WAT WAT WAT WAT WAT WAT WAT WAT WAT WAT WAT 
WAT WAT WAT WAT WAT WAT WAT WAT WAT WAT WAT WAT WAT WAT WAT WAT WAT WAT WAT WAT 
WAT WAT WAT WAT WAT WAT WAT WAT WAT WAT WAT WAT WAT WAT WAT WAT WAT WAT WAT WAT 
WAT WAT WAT WAT WAT WAT WAT WAT WAT WAT WAT WAT WAT WAT WAT WAT WAT WAT WAT WAT 
WAT WAT WAT WAT WAT WAT WAT WAT WAT WAT WAT WAT WAT WAT WAT WAT WAT WAT WAT WAT 
WAT WAT WAT WAT WAT WAT WAT WAT WAT WAT WAT WAT WAT WAT WAT WAT WAT WAT WAT WAT 
WAT WAT WAT WAT WAT WAT WAT WAT WAT WAT WAT WAT WAT WAT WAT WAT WAT WAT WAT WAT 
WAT WAT WAT WAT WAT WAT WAT WAT WAT WAT WAT WAT WAT WAT WAT WAT WAT WAT WAT WAT 
WAT WAT WAT WAT WAT WAT WAT WAT WAT WAT WAT WAT WAT WAT WAT WAT WAT WAT WAT WAT 
WAT WAT WAT WAT WAT WAT WAT WAT WAT WAT WAT WAT WAT WAT WAT WAT WAT WAT WAT WAT 
WAT WAT WAT WAT WAT WAT WAT WAT WAT WAT WAT WAT WAT WAT WAT WAT WAT WAT WAT WAT 
WAT WAT WAT WAT WAT WAT WAT WAT WAT WAT WAT WAT WAT WAT WAT WAT WAT WAT WAT WAT 
WAT WAT WAT WAT WAT WAT WAT WAT WAT WAT WAT WAT WAT WAT WAT WAT WAT WAT WAT WAT 
WAT WAT WAT WAT WAT WAT WAT WAT WAT WAT WAT WAT WAT WAT WAT WAT WAT WAT WAT WAT 
WAT WAT WAT WAT WAT WAT WAT WAT WAT WAT WAT WAT WAT WAT WAT WAT WAT WAT WAT WAT 
WAT WAT WAT WAT WAT WAT WAT WAT WAT WAT WAT WAT WAT WAT WAT WAT WAT WAT WAT WAT 
WAT WAT WAT WAT WAT WAT WAT WAT WAT WAT WAT WAT WAT WAT WAT WAT WAT WAT WAT WAT 
WAT WAT WAT WAT WAT WAT WAT WAT WAT WAT WAT WAT WAT WAT WAT WAT WAT WAT WAT WAT 
WAT WAT WAT WAT WAT WAT WAT WAT WAT WAT WAT WAT WAT WAT WAT WAT WAT WAT WAT WAT 
WAT WAT WAT WAT WAT WAT WAT WAT WAT WAT WAT WAT WAT WAT WAT WAT WAT WAT WAT WAT 
WAT WAT WAT WAT WAT WAT WAT WAT WAT WAT WAT WAT WAT WAT WAT WAT WAT WAT WAT WAT 
WAT WAT WAT WAT WAT WAT WAT WAT WAT WAT WAT WAT WAT WAT WAT WAT WAT WAT WAT WAT 
WAT WAT WAT WAT WAT WAT WAT WAT WAT WAT WAT WAT WAT WAT WAT WAT WAT WAT WAT WAT 
WAT WAT WAT WAT WAT WAT WAT WAT WAT WAT WAT WAT WAT WAT WAT WAT WAT WAT WAT WAT 
WAT WAT WAT WAT WAT WAT WAT WAT WAT WAT WAT WAT WAT WAT WAT WAT WAT WAT WAT WAT 
WAT WAT WAT WAT WAT WAT WAT WAT WAT WAT WAT WAT WAT WAT WAT WAT WAT WAT WAT WAT 
WAT WAT WAT WAT WAT WAT WAT WAT WAT WAT WAT WAT WAT WAT WAT WAT WAT WAT WAT WAT 
WAT WAT WAT WAT WAT WAT WAT WAT WAT WAT WAT WAT WAT WAT WAT WAT WAT WAT WAT WAT 
WAT WAT WAT WAT WAT WAT WAT WAT WAT WAT WAT WAT WAT WAT WAT WAT WAT WAT WAT WAT 
WAT WAT WAT WAT WAT WAT WAT WAT WAT WAT WAT WAT WAT WAT WAT WAT WAT WAT WAT WAT 
WAT WAT WAT WAT WAT WAT WAT WAT WAT WAT WAT WAT WAT WAT WAT WAT WAT WAT WAT WAT 
WAT WAT WAT WAT WAT WAT WAT WAT WAT WAT WAT WAT WAT WAT WAT WAT WAT WAT WAT WAT 
WAT WAT WAT WAT WAT WAT WAT WAT WAT WAT WAT WAT WAT WAT WAT WAT WAT WAT WAT WAT 
WAT WAT WAT WAT WAT WAT WAT WAT WAT WAT WAT WAT WAT WAT WAT WAT WAT WAT WAT WAT 
WAT WAT WAT WAT WAT WAT WAT WAT WAT WAT WAT WAT WAT WAT WAT WAT WAT WAT WAT WAT 
WAT WAT WAT WAT WAT WAT WAT WAT WAT WAT WAT WAT WAT WAT WAT WAT WAT WAT WAT WAT 
WAT WAT WAT WAT WAT WAT WAT WAT WAT WAT WAT WAT WAT WAT WAT WAT WAT WAT WAT WAT 
WAT WAT WAT WAT WAT WAT WAT WAT WAT WAT WAT WAT WAT WAT WAT WAT WAT WAT WAT WAT 
WAT WAT WAT WAT WAT WAT WAT WAT WAT WAT WAT WAT WAT WAT WAT WAT WAT WAT WAT WAT 
WAT WAT WAT WAT WAT WAT WAT WAT WAT WAT WAT WAT WAT WAT WAT WAT WAT WAT WAT WAT 
WAT WAT WAT WAT WAT WAT WAT WAT WAT WAT WAT WAT WAT WAT WAT WAT WAT WAT WAT WAT 
WAT WAT WAT WAT WAT WAT WAT WAT WAT WAT WAT WAT WAT WAT WAT WAT WAT WAT WAT WAT 
WAT WAT WAT WAT WAT WAT WAT WAT WAT WAT WAT WAT WAT WAT WAT WAT WAT WAT WAT WAT 
WAT WAT WAT WAT WAT WAT WAT WAT WAT WAT WAT WAT WAT WAT WAT WAT WAT WAT WAT WAT 
WAT WAT WAT WAT WAT WAT WAT WAT WAT WAT WAT WAT WAT WAT WAT WAT WAT WAT WAT WAT 
WAT WAT WAT WAT WAT WAT WAT WAT WAT WAT WAT WAT WAT WAT WAT WAT WAT WAT WAT WAT 
WAT WAT WAT WAT WAT WAT WAT WAT WAT WAT WAT WAT WAT WAT WAT WAT WAT WAT WAT WAT 
WAT WAT WAT WAT WAT WAT WAT WAT WAT WAT WAT WAT WAT WAT WAT WAT WAT WAT WAT WAT 
WAT WAT WAT WAT WAT WAT WAT WAT WAT WAT WAT WAT WAT WAT WAT WAT WAT WAT WAT WAT 
WAT WAT WAT WAT WAT WAT WAT WAT WAT WAT WAT WAT WAT WAT WAT WAT WAT WAT WAT WAT 
WAT WAT WAT WAT WAT WAT WAT WAT WAT WAT WAT WAT WAT WAT WAT WAT WAT WAT WAT WAT 
WAT WAT WAT WAT WAT WAT WAT WAT WAT WAT WAT WAT WAT WAT WAT WAT WAT WAT WAT WAT 
WAT WAT WAT WAT WAT WAT WAT WAT WAT WAT WAT WAT WAT WAT WAT WAT WAT WAT WAT WAT 
WAT WAT WAT WAT WAT WAT WAT WAT WAT WAT WAT WAT WAT WAT WAT WAT WAT WAT WAT WAT 
WAT WAT WAT WAT WAT WAT WAT WAT WAT WAT WAT WAT WAT WAT WAT WAT WAT WAT WAT WAT 
WAT WAT WAT WAT WAT WAT WAT WAT WAT WAT WAT WAT WAT WAT WAT WAT WAT WAT WAT WAT 
WAT WAT WAT WAT WAT WAT WAT WAT WAT WAT WAT WAT WAT WAT WAT WAT WAT WAT WAT WAT 
WAT WAT WAT WAT WAT WAT WAT WAT WAT WAT WAT WAT WAT WAT WAT WAT WAT WAT WAT WAT 
WAT WAT WAT WAT WAT WAT WAT WAT WAT WAT WAT WAT WAT WAT WAT WAT WAT WAT WAT WAT 
WAT WAT WAT WAT WAT WAT WAT WAT WAT WAT WAT WAT WAT WAT WAT WAT WAT WAT WAT WAT 
WAT WAT WAT WAT WAT WAT WAT WAT WAT WAT WAT WAT WAT WAT WAT WAT WAT WAT WAT WAT 
WAT WAT WAT WAT WAT WAT WAT WAT WAT WAT WAT WAT WAT WAT WAT WAT WAT WAT WAT WAT 
WAT WAT WAT WAT WAT WAT WAT WAT WAT WAT WAT WAT WAT WAT WAT WAT WAT WAT WAT WAT 
WAT WAT WAT WAT WAT WAT WAT WAT WAT WAT WAT WAT WAT WAT WAT WAT WAT WAT WAT WAT 
WAT WAT WAT WAT WAT WAT WAT WAT WAT WAT WAT WAT WAT WAT WAT WAT WAT WAT WAT WAT 
WAT WAT WAT WAT WAT WAT WAT WAT WAT WAT WAT WAT WAT WAT WAT WAT WAT WAT WAT WAT 
WAT WAT WAT WAT WAT WAT WAT WAT WAT WAT WAT WAT WAT WAT WAT WAT WAT WAT WAT WAT 
WAT WAT WAT WAT WAT WAT WAT WAT WAT WAT WAT WAT WAT WAT WAT WAT WAT WAT WAT WAT 
WAT WAT WAT WAT WAT WAT WAT WAT WAT WAT WAT WAT WAT WAT WAT WAT WAT WAT WAT WAT 
WAT WAT WAT WAT WAT WAT WAT WAT WAT WAT WAT WAT WAT WAT WAT WAT WAT WAT WAT WAT 
WAT WAT WAT WAT WAT WAT WAT WAT WAT WAT WAT WAT WAT WAT WAT WAT WAT WAT WAT WAT 
WAT WAT WAT WAT WAT WAT WAT WAT WAT WAT WAT WAT WAT WAT WAT WAT WAT WAT WAT WAT 
WAT WAT WAT WAT WAT WAT WAT WAT WAT WAT WAT WAT WAT WAT WAT WAT WAT WAT WAT WAT 
WAT WAT WAT WAT WAT WAT WAT WAT WAT WAT WAT WAT WAT WAT WAT WAT WAT WAT WAT WAT 
WAT WAT WAT WAT WAT WAT WAT WAT WAT WAT WAT WAT WAT WAT WAT WAT WAT WAT WAT WAT 
WAT WAT WAT WAT WAT WAT WAT WAT WAT WAT WAT WAT WAT WAT WAT WAT WAT WAT WAT WAT 
WAT WAT WAT WAT WAT WAT WAT WAT WAT WAT WAT WAT WAT WAT WAT WAT WAT WAT WAT WAT 
WAT WAT WAT WAT WAT WAT WAT WAT WAT WAT WAT WAT WAT WAT WAT WAT WAT WAT WAT WAT 
WAT WAT WAT WAT WAT WAT WAT WAT WAT WAT WAT WAT WAT WAT WAT WAT WAT WAT WAT WAT 
WAT WAT WAT WAT WAT WAT WAT WAT WAT WAT WAT WAT WAT WAT WAT WAT WAT WAT WAT WAT 
WAT WAT WAT WAT WAT WAT WAT WAT WAT WAT WAT WAT WAT WAT WAT WAT WAT WAT WAT WAT 
WAT WAT WAT WAT WAT WAT WAT WAT WAT WAT WAT WAT WAT WAT WAT WAT WAT WAT WAT WAT 
WAT WAT WAT WAT WAT WAT WAT WAT WAT WAT WAT WAT WAT WAT WAT WAT WAT WAT WAT WAT 
WAT WAT WAT WAT WAT WAT WAT WAT WAT WAT WAT WAT WAT WAT WAT WAT WAT WAT WAT WAT 
WAT WAT WAT WAT WAT WAT WAT WAT WAT WAT WAT WAT WAT WAT WAT WAT WAT WAT WAT WAT 
WAT WAT WAT WAT WAT WAT WAT WAT WAT WAT WAT WAT WAT WAT WAT WAT WAT WAT WAT WAT 
WAT WAT WAT WAT WAT WAT WAT WAT WAT WAT WAT WAT WAT WAT WAT WAT WAT WAT WAT WAT 
WAT WAT WAT WAT WAT WAT WAT WAT WAT WAT WAT WAT WAT WAT WAT WAT WAT WAT WAT WAT 
WAT WAT WAT WAT WAT WAT WAT WAT WAT WAT WAT WAT WAT WAT WAT WAT WAT WAT WAT WAT 
WAT WAT WAT WAT WAT WAT WAT WAT WAT WAT WAT WAT WAT WAT WAT WAT WAT WAT WAT WAT 
WAT WAT WAT WAT WAT WAT WAT WAT WAT WAT WAT WAT WAT WAT WAT WAT WAT WAT WAT WAT 
WAT WAT WAT WAT WAT WAT WAT WAT WAT WAT WAT WAT WAT WAT WAT WAT WAT WAT WAT WAT 
WAT WAT WAT WAT WAT WAT WAT WAT WAT WAT WAT WAT WAT WAT WAT WAT WAT WAT WAT WAT 
WAT WAT WAT WAT WAT WAT WAT WAT WAT WAT WAT WAT WAT WAT WAT WAT WAT WAT WAT WAT 
WAT WAT WAT WAT WAT WAT WAT WAT WAT WAT WAT WAT WAT WAT WAT WAT WAT WAT WAT WAT 
WAT WAT WAT WAT WAT WAT WAT WAT WAT WAT WAT WAT WAT WAT WAT WAT WAT WAT WAT WAT 
WAT WAT WAT WAT WAT WAT WAT WAT WAT WAT WAT WAT WAT WAT WAT WAT WAT WAT WAT WAT 
WAT WAT WAT WAT WAT WAT WAT WAT WAT WAT WAT WAT WAT WAT WAT WAT WAT WAT WAT WAT 
WAT WAT WAT WAT WAT WAT WAT WAT WAT WAT WAT WAT WAT WAT WAT WAT WAT WAT WAT WAT 
WAT WAT WAT WAT WAT WAT WAT WAT WAT WAT WAT WAT WAT WAT WAT WAT WAT WAT WAT WAT 
WAT WAT WAT WAT WAT WAT WAT WAT WAT WAT WAT WAT WAT WAT WAT WAT WAT WAT WAT WAT 
WAT WAT WAT WAT WAT WAT WAT WAT WAT WAT WAT WAT WAT WAT WAT WAT WAT WAT WAT WAT 
WAT WAT WAT WAT WAT WAT WAT WAT WAT WAT WAT WAT WAT WAT WAT WAT WAT WAT WAT WAT 
WAT WAT WAT WAT WAT WAT WAT WAT WAT WAT WAT WAT WAT WAT WAT WAT WAT WAT WAT WAT 
WAT WAT WAT WAT WAT WAT WAT WAT WAT WAT WAT WAT WAT WAT WAT WAT WAT WAT WAT WAT 
WAT WAT WAT WAT WAT WAT WAT WAT WAT WAT WAT WAT WAT WAT WAT WAT WAT WAT WAT WAT 
WAT WAT WAT WAT WAT WAT WAT WAT WAT WAT WAT WAT WAT WAT WAT WAT WAT WAT WAT WAT 
WAT WAT WAT WAT WAT WAT WAT WAT WAT WAT WAT WAT WAT WAT WAT WAT WAT WAT WAT WAT 
WAT WAT WAT WAT WAT WAT WAT WAT WAT WAT WAT WAT WAT WAT WAT WAT WAT WAT WAT WAT 
WAT WAT WAT WAT WAT WAT WAT WAT WAT WAT WAT WAT WAT WAT WAT WAT WAT WAT WAT WAT 
WAT WAT WAT WAT WAT WAT WAT WAT WAT WAT WAT WAT WAT WAT WAT WAT WAT WAT WAT WAT 
WAT WAT WAT WAT WAT WAT WAT WAT WAT WAT WAT WAT WAT WAT WAT WAT WAT WAT WAT WAT 
WAT WAT WAT WAT WAT WAT WAT WAT WAT WAT WAT WAT WAT WAT WAT WAT WAT WAT WAT WAT 
WAT WAT WAT WAT WAT WAT WAT WAT WAT WAT WAT WAT WAT WAT WAT WAT WAT WAT WAT WAT 
WAT WAT WAT WAT WAT WAT WAT WAT WAT WAT WAT WAT WAT WAT WAT WAT WAT WAT WAT WAT 
WAT WAT WAT WAT WAT WAT WAT WAT WAT WAT WAT WAT WAT WAT WAT WAT WAT WAT WAT WAT 
WAT WAT WAT WAT WAT WAT WAT WAT WAT WAT WAT WAT WAT WAT WAT WAT WAT WAT WAT WAT 
WAT WAT WAT WAT WAT WAT WAT WAT WAT WAT WAT WAT WAT WAT WAT WAT WAT WAT WAT WAT 
WAT WAT WAT WAT WAT WAT WAT WAT WAT WAT WAT WAT WAT WAT WAT WAT WAT WAT WAT WAT 
WAT WAT WAT WAT WAT WAT WAT WAT WAT WAT WAT WAT WAT WAT WAT WAT WAT WAT WAT WAT 
WAT WAT WAT WAT WAT WAT WAT WAT WAT WAT WAT WAT WAT WAT WAT WAT WAT WAT WAT WAT 
WAT WAT WAT WAT WAT WAT WAT WAT WAT WAT WAT WAT WAT WAT WAT WAT WAT WAT WAT WAT 
WAT WAT WAT WAT WAT WAT WAT WAT WAT WAT WAT WAT WAT WAT WAT WAT WAT WAT WAT WAT 
WAT WAT WAT WAT WAT WAT WAT WAT WAT WAT WAT WAT WAT WAT WAT WAT WAT WAT WAT WAT 
WAT WAT WAT WAT WAT WAT WAT WAT WAT WAT WAT WAT WAT WAT WAT WAT WAT WAT WAT WAT 
WAT WAT WAT WAT WAT WAT WAT WAT WAT WAT WAT WAT WAT WAT WAT WAT WAT WAT WAT WAT 
WAT WAT WAT WAT WAT WAT WAT WAT WAT WAT WAT WAT WAT WAT WAT WAT WAT WAT WAT WAT 
WAT WAT WAT WAT WAT WAT WAT WAT WAT WAT WAT WAT WAT WAT WAT WAT WAT WAT WAT WAT 
WAT WAT WAT WAT WAT WAT WAT WAT WAT WAT WAT WAT WAT WAT WAT WAT WAT WAT WAT WAT 
WAT WAT WAT WAT WAT WAT WAT WAT WAT WAT WAT WAT WAT WAT WAT WAT WAT WAT WAT WAT 
WAT WAT WAT WAT WAT WAT WAT WAT WAT WAT WAT WAT WAT WAT WAT WAT WAT WAT WAT WAT 
WAT WAT WAT WAT WAT WAT WAT WAT WAT WAT WAT WAT WAT WAT WAT WAT WAT WAT WAT WAT 
WAT WAT WAT WAT WAT WAT WAT WAT WAT WAT WAT WAT WAT WAT WAT WAT WAT WAT WAT WAT 
WAT WAT WAT WAT WAT WAT WAT WAT WAT WAT WAT WAT WAT WAT WAT WAT WAT WAT WAT WAT 
WAT WAT WAT WAT WAT WAT WAT WAT WAT WAT WAT WAT WAT WAT WAT WAT WAT WAT WAT WAT 
WAT WAT WAT WAT WAT WAT WAT WAT WAT WAT WAT WAT WAT WAT WAT WAT WAT WAT WAT WAT 
WAT WAT WAT WAT WAT WAT WAT WAT WAT WAT WAT WAT WAT WAT WAT WAT WAT WAT WAT WAT 
WAT WAT WAT WAT WAT WAT WAT WAT WAT WAT WAT WAT WAT WAT WAT WAT WAT WAT WAT WAT 
WAT WAT WAT WAT WAT WAT WAT WAT WAT WAT WAT WAT WAT WAT WAT WAT WAT WAT WAT WAT 
WAT WAT WAT WAT WAT WAT WAT WAT WAT WAT WAT WAT WAT WAT WAT WAT WAT WAT WAT WAT 
WAT WAT WAT WAT WAT WAT WAT WAT WAT WAT WAT WAT WAT WAT WAT WAT WAT WAT WAT WAT 
WAT WAT WAT WAT WAT WAT WAT WAT WAT WAT WAT WAT WAT WAT WAT WAT WAT WAT WAT WAT 
WAT WAT WAT WAT WAT WAT WAT WAT WAT WAT WAT WAT WAT WAT WAT WAT WAT WAT WAT WAT 
WAT WAT WAT WAT WAT WAT WAT WAT WAT WAT WAT WAT WAT WAT WAT WAT WAT WAT WAT WAT 
WAT WAT WAT WAT WAT WAT WAT WAT WAT WAT WAT WAT WAT WAT WAT WAT WAT WAT WAT WAT 
WAT WAT WAT WAT WAT WAT WAT WAT WAT WAT WAT WAT WAT WAT WAT WAT WAT WAT WAT WAT 
WAT WAT WAT WAT WAT WAT WAT WAT WAT WAT WAT WAT WAT WAT WAT WAT WAT WAT WAT WAT 
WAT WAT WAT WAT WAT WAT WAT WAT WAT WAT WAT WAT WAT WAT WAT WAT WAT WAT WAT WAT 
WAT WAT WAT WAT WAT WAT WAT WAT WAT WAT WAT WAT WAT WAT WAT WAT WAT WAT WAT WAT 
WAT WAT WAT WAT WAT WAT WAT WAT WAT WAT WAT WAT WAT WAT WAT WAT WAT WAT WAT WAT 
WAT WAT WAT WAT WAT WAT WAT WAT WAT WAT WAT WAT WAT WAT WAT WAT WAT WAT WAT WAT 
WAT WAT WAT WAT WAT WAT WAT WAT WAT WAT WAT WAT WAT WAT WAT WAT WAT WAT WAT WAT 
WAT WAT WAT WAT WAT WAT WAT WAT WAT WAT WAT WAT WAT WAT 
%FLAG RESIDUE_POINTER                                                           
%FORMAT(10I8)                                                                   
       1       7      24      34      44      58      69      88      98     109
     128     149     166     185     204     218     239     249     255     261
     279     298     308     315     326     344     363     379     398     408
     427     448     467     483     493     500     519     543     550     570
     590     611     625     631     637     654     664     674     688     699
     718     728     739     758     779     796     815     834     848     869
     879     885     891     909     928     938     945     956     974     993
    1009    1028    1038    1057    1078    1097    1113    1123    1130    1149
    1173    1180    1200    1220    1241    1255    1261    1267    1284    1294
    1304    1318    1329    1348    1358    1369    1388    1409    1426    1445
    1464    1478    1499    1509    1515    1521    1539    1558    1568    1575
    1586    1604    1623    1639    1658    1668    1687    1708    1727    1743
    1753    1760    1779    1803    1810    1830    1850    1871    1885    1891
    1897    1914    1924    1934    1948    1959    1978    1988    1999    2018
    2039    2056    2075    2094    2108    2129    2139    2145    2151    2169
    2188    2198    2205    2216    2234    2253    2269    2288    2298    2317
    2338    2357    2373    2383    2390    2409    2433    2440    2460    2480
    2501    2515    2521    2524    2527    2530    2533    2536    2539    2542
    2545    2548    2551    2554    2557    2560    2563    2566    2569    2572
    2575    2578    2581    2584    2587    2590    2593    2596    2599    2602
    2605    2608    2611    2614    2617    2620    2623    2626    2629    2632
    2635    2638    2641    2644    2647    2650    2653    2656    2659    2662
    2665    2668    2671    2674    2677    2680    2683    2686    2689    2692
    2695    2698    2701    2704    2707    2710    2713    2716    2719    2722
    2725    2728    2731    2734    2737    2740    2743    2746    2749    2752
    2755    2758    2761    2764    2767    2770    2773    2776    2779    2782
    2785    2788    2791    2794    2797    2800    2803    2806    2809    2812
    2815    2818    2821    2824    2827    2830    2833    2836    2839    2842
    2845    2848    2851    2854    2857    2860    2863    2866    2869    2872
    2875    2878    2881    2884    2887    2890    2893    2896    2899    2902
    2905    2908    2911    2914    2917    2920    2923    2926    2929    2932
    2935    2938    2941    2944    2947    2950    2953    2956    2959    2962
    2965    2968    2971    2974    2977    2980    2983    2986    2989    2992
    2995    2998    3001    3004    3007    3010    3013    3016    3019    3022
    3025    3028    3031    3034    3037    3040    3043    3046    3049    3052
    3055    3058    3061    3064    3067    3070    3073    3076    3079    3082
    3085    3088    3091    3094    3097    3100    3103    3106    3109    3112
    3115    3118    3121    3124    3127    3130    3133    3136    3139    3142
    3145    3148    3151    3154    3157    3160    3163    3166    3169    3172
    3175    3178    3181    3184    3187    3190    3193    3196    3199    3202
    3205    3208    3211    3214    3217    3220    3223    3226    3229    3232
    3235    3238    3241    3244    3247    3250    3253    3256    3259    3262
    3265    3268    3271    3274    3277    3280    3283    3286    3289    3292
    3295    3298    3301    3304    3307    3310    3313    3316    3319    3322
    3325    3328    3331    3334    3337    3340    3343    3346    3349    3352
    3355    3358    3361    3364    3367    3370    3373    3376    3379    3382
    3385    3388    3391    3394    3397    3400    3403    3406    3409    3412
    3415    3418    3421    3424    3427    3430    3433    3436    3439    3442
    3445    3448    3451    3454    3457    3460    3463    3466    3469    3472
    3475    3478    3481    3484    3487    3490    3493    3496    3499    3502
    3505    3508    3511    3514    3517    3520    3523    3526    3529    3532
    3535    3538    3541    3544    3547    3550    3553    3556    3559    3562
    3565    3568    3571    3574    3577    3580    3583    3586    3589    3592
    3595    3598    3601    3604    3607    3610    3613    3616    3619    3622
    3625    3628    3631    3634    3637    3640    3643    3646    3649    3652
    3655    3658    3661    3664    3667    3670    3673    3676    3679    3682
    3685    3688    3691    3694    3697    3700    3703    3706    3709    3712
    3715    3718    3721    3724    3727    3730    3733    3736    3739    3742
    3745    3748    3751    3754    3757    3760    3763    3766    3769    3772
    3775    3778    3781    3784    3787    3790    3793    3796    3799    3802
    3805    3808    3811    3814    3817    3820    3823    3826    3829    3832
    3835    3838    3841    3844    3847    3850    3853    3856    3859    3862
    3865    3868    3871    3874    3877    3880    3883    3886    3889    3892
    3895    3898    3901    3904    3907    3910    3913    3916    3919    3922
    3925    3928    3931    3934    3937    3940    3943    3946    3949    3952
    3955    3958    3961    3964    3967    3970    3973    3976    3979    3982
    3985    3988    3991    3994    3997    4000    4003    4006    4009    4012
    4015    4018    4021    4024    4027    4030    4033    4036    4039    4042
    4045    4048    4051    4054    4057    4060    4063    4066    4069    4072
    4075    4078    4081    4084    4087    4090    4093    4096    4099    4102
    4105    4108    4111    4114    4117    4120    4123    4126    4129    4132
    4135    4138    4141    4144    4147    4150    4153    4156    4159    4162
    4165    4168    4171    4174    4177    4180    4183    4186    4189    4192
    4195    4198    4201    4204    4207    4210    4213    4216    4219    4222
    4225    4228    4231    4234    4237    4240    4243    4246    4249    4252
    4255    4258    4261    4264    4267    4270    4273    4276    4279    4282
    4285    4288    4291    4294    4297    4300    4303    4306    4309    4312
    4315    4318    4321    4324    4327    4330    4333    4336    4339    4342
    4345    4348    4351    4354    4357    4360    4363    4366    4369    4372
    4375    4378    4381    4384    4387    4390    4393    4396    4399    4402
    4405    4408    4411    4414    4417    4420    4423    4426    4429    4432
    4435    4438    4441    4444    4447    4450    4453    4456    4459    4462
    4465    4468    4471    4474    4477    4480    4483    4486    4489    4492
    4495    4498    4501    4504    4507    4510    4513    4516    4519    4522
    4525    4528    4531    4534    4537    4540    4543    4546    4549    4552
    4555    4558    4561    4564    4567    4570    4573    4576    4579    4582
    4585    4588    4591    4594    4597    4600    4603    4606    4609    4612
    4615    4618    4621    4624    4627    4630    4633    4636    4639    4642
    4645    4648    4651    4654    4657    4660    4663    4666    4669    4672
    4675    4678    4681    4684    4687    4690    4693    4696    4699    4702
    4705    4708    4711    4714    4717    4720    4723    4726    4729    4732
    4735    4738    4741    4744    4747    4750    4753    4756    4759    4762
    4765    4768    4771    4774    4777    4780    4783    4786    4789    4792
    4795    4798    4801    4804    4807    4810    4813    4816    4819    4822
    4825    4828    4831    4834    4837    4840    4843    4846    4849    4852
    4855    4858    4861    4864    4867    4870    4873    4876    4879    4882
    4885    4888    4891    4894    4897    4900    4903    4906    4909    4912
    4915    4918    4921    4924    4927    4930    4933    4936    4939    4942
    4945    4948    4951    4954    4957    4960    4963    4966    4969    4972
    4975    4978    4981    4984    4987    4990    4993    4996    4999    5002
    5005    5008    5011    5014    5017    5020    5023    5026    5029    5032
    5035    5038    5041    5044    5047    5050    5053    5056    5059    5062
    5065    5068    5071    5074    5077    5080    5083    5086    5089    5092
    5095    5098    5101    5104    5107    5110    5113    5116    5119    5122
    5125    5128    5131    5134    5137    5140    5143    5146    5149    5152
    5155    5158    5161    5164    5167    5170    5173    5176    5179    5182
    5185    5188    5191    5194    5197    5200    5203    5206    5209    5212
    5215    5218    5221    5224    5227    5230    5233    5236    5239    5242
    5245    5248    5251    5254    5257    5260    5263    5266    5269    5272
    5275    5278    5281    5284    5287    5290    5293    5296    5299    5302
    5305    5308    5311    5314    5317    5320    5323    5326    5329    5332
    5335    5338    5341    5344    5347    5350    5353    5356    5359    5362
    5365    5368    5371    5374    5377    5380    5383    5386    5389    5392
    5395    5398    5401    5404    5407    5410    5413    5416    5419    5422
    5425    5428    5431    5434    5437    5440    5443    5446    5449    5452
    5455    5458    5461    5464    5467    5470    5473    5476    5479    5482
    5485    5488    5491    5494    5497    5500    5503    5506    5509    5512
    5515    5518    5521    5524    5527    5530    5533    5536    5539    5542
    5545    5548    5551    5554    5557    5560    5563    5566    5569    5572
    5575    5578    5581    5584    5587    5590    5593    5596    5599    5602
    5605    5608    5611    5614    5617    5620    5623    5626    5629    5632
    5635    5638    5641    5644    5647    5650    5653    5656    5659    5662
    5665    5668    5671    5674    5677    5680    5683    5686    5689    5692
    5695    5698    5701    5704    5707    5710    5713    5716    5719    5722
    5725    5728    5731    5734    5737    5740    5743    5746    5749    5752
    5755    5758    5761    5764    5767    5770    5773    5776    5779    5782
    5785    5788    5791    5794    5797    5800    5803    5806    5809    5812
    5815    5818    5821    5824    5827    5830    5833    5836    5839    5842
    5845    5848    5851    5854    5857    5860    5863    5866    5869    5872
    5875    5878    5881    5884    5887    5890    5893    5896    5899    5902
    5905    5908    5911    5914    5917    5920    5923    5926    5929    5932
    5935    5938    5941    5944    5947    5950    5953    5956    5959    5962
    5965    5968    5971    5974    5977    5980    5983    5986    5989    5992
    5995    5998    6001    6004    6007    6010    6013    6016    6019    6022
    6025    6028    6031    6034    6037    6040    6043    6046    6049    6052
    6055    6058    6061    6064    6067    6070    6073    6076    6079    6082
    6085    6088    6091    6094    6097    6100    6103    6106    6109    6112
    6115    6118    6121    6124    6127    6130    6133    6136    6139    6142
    6145    6148    6151    6154    6157    6160    6163    6166    6169    6172
    6175    6178    6181    6184    6187    6190    6193    6196    6199    6202
    6205    6208    6211    6214    6217    6220    6223    6226    6229    6232
    6235    6238    6241    6244    6247    6250    6253    6256    6259    6262
    6265    6268    6271    6274    6277    6280    6283    6286    6289    6292
    6295    6298    6301    6304    6307    6310    6313    6316    6319    6322
    6325    6328    6331    6334    6337    6340    6343    6346    6349    6352
    6355    6358    6361    6364    6367    6370    6373    6376    6379    6382
    6385    6388    6391    6394    6397    6400    6403    6406    6409    6412
    6415    6418    6421    6424    6427    6430    6433    6436    6439    6442
    6445    6448    6451    6454    6457    6460    6463    6466    6469    6472
    6475    6478    6481    6484    6487    6490    6493    6496    6499    6502
    6505    6508    6511    6514    6517    6520    6523    6526    6529    6532
    6535    6538    6541    6544    6547    6550    6553    6556    6559    6562
    6565    6568    6571    6574    6577    6580    6583    6586    6589    6592
    6595    6598    6601    6604    6607    6610    6613    6616    6619    6622
    6625    6628    6631    6634    6637    6640    6643    6646    6649    6652
    6655    6658    6661    6664    6667    6670    6673    6676    6679    6682
    6685    6688    6691    6694    6697    6700    6703    6706    6709    6712
    6715    6718    6721    6724    6727    6730    6733    6736    6739    6742
    6745    6748    6751    6754    6757    6760    6763    6766    6769    6772
    6775    6778    6781    6784    6787    6790    6793    6796    6799    6802
    6805    6808    6811    6814    6817    6820    6823    6826    6829    6832
    6835    6838    6841    6844    6847    6850    6853    6856    6859    6862
    6865    6868    6871    6874    6877    6880    6883    6886    6889    6892
    6895    6898    6901    6904    6907    6910    6913    6916    6919    6922
    6925    6928    6931    6934    6937    6940    6943    6946    6949    6952
    6955    6958    6961    6964    6967    6970    6973    6976    6979    6982
    6985    6988    6991    6994    6997    7000    7003    7006    7009    7012
    7015    7018    7021    7024    7027    7030    7033    7036    7039    7042
    7045    7048    7051    7054    7057    7060    7063    7066    7069    7072
    7075    7078    7081    7084    7087    7090    7093    7096    7099    7102
    7105    7108    7111    7114    7117    7120    7123    7126    7129    7132
    7135    7138    7141    7144    7147    7150    7153    7156    7159    7162
    7165    7168    7171    7174    7177    7180    7183    7186    7189    7192
    7195    7198    7201    7204    7207    7210    7213    7216    7219    7222
    7225    7228    7231    7234    7237    7240    7243    7246    7249    7252
    7255    7258    7261    7264    7267    7270    7273    7276    7279    7282
    7285    7288    7291    7294    7297    7300    7303    7306    7309    7312
    7315    7318    7321    7324    7327    7330    7333    7336    7339    7342
    7345    7348    7351    7354    7357    7360    7363    7366    7369    7372
    7375    7378    7381    7384    7387    7390    7393    7396    7399    7402
    7405    7408    7411    7414    7417    7420    7423    7426    7429    7432
    7435    7438    7441    7444    7447    7450    7453    7456    7459    7462
    7465    7468    7471    7474    7477    7480    7483    7486    7489    7492
    7495    7498    7501    7504    7507    7510    7513    7516    7519    7522
    7525    7528    7531    7534    7537    7540    7543    7546    7549    7552
    7555    7558    7561    7564    7567    7570    7573    7576    7579    7582
    7585    7588    7591    7594    7597    7600    7603    7606    7609    7612
    7615    7618    7621    7624    7627    7630    7633    7636    7639    7642
    7645    7648    7651    7654    7657    7660    7663    7666    7669    7672
    7675    7678    7681    7684    7687    7690    7693    7696    7699    7702
    7705    7708    7711    7714    7717    7720    7723    7726    7729    7732
    7735    7738    7741    7744    7747    7750    7753    7756    7759    7762
    7765    7768    7771    7774    7777    7780    7783    7786    7789    7792
    7795    7798    7801    7804    7807    7810    7813    7816    7819    7822
    7825    7828    7831    7834    7837    7840    7843    7846    7849    7852
    7855    7858    7861    7864    7867    7870    7873    7876    7879    7882
    7885    7888    7891    7894    7897    7900    7903    7906    7909    7912
    7915    7918    7921    7924    7927    7930    7933    7936    7939    7942
    7945    7948    7951    7954    7957    7960    7963    7966    7969    7972
    7975    7978    7981    7984    7987    7990    7993    7996    7999    8002
    8005    8008    8011    8014    8017    8020    8023    8026    8029    8032
    8035    8038    8041    8044    8047    8050    8053    8056    8059    8062
    8065    8068    8071    8074    8077    8080    8083    8086    8089    8092
    8095    8098    8101    8104    8107    8110    8113    8116    8119    8122
    8125    8128    8131    8134    8137    8140    8143    8146    8149    8152
    8155    8158    8161    8164    8167    8170    8173    8176    8179    8182
    8185    8188    8191    8194    8197    8200    8203    8206    8209    8212
    8215    8218    8221    8224    8227    8230    8233    8236    8239    8242
    8245    8248    8251    8254    8257    8260    8263    8266    8269    8272
    8275    8278    8281    8284    8287    8290    8293    8296    8299    8302
    8305    8308    8311    8314    8317    8320    8323    8326    8329    8332
    8335    8338    8341    8344    8347    8350    8353    8356    8359    8362
    8365    8368    8371    8374    8377    8380    8383    8386    8389    8392
    8395    8398    8401    8404    8407    8410    8413    8416    8419    8422
    8425    8428    8431    8434    8437    8440    8443    8446    8449    8452
    8455    8458    8461    8464    8467    8470    8473    8476    8479    8482
    8485    8488    8491    8494    8497    8500    8503    8506    8509    8512
    8515    8518    8521    8524    8527    8530    8533    8536    8539    8542
    8545    8548    8551    8554    8557    8560    8563    8566    8569    8572
    8575    8578    8581    8584    8587    8590    8593    8596    8599    8602
    8605    8608    8611    8614    8617    8620    8623    8626    8629    8632
    8635    8638    8641    8644    8647    8650    8653    8656    8659    8662
    8665    8668    8671    8674    8677    8680    8683    8686    8689    8692
    8695    8698    8701    8704    8707    8710    8713    8716    8719    8722
    8725    8728    8731    8734    8737    8740    8743    8746    8749    8752
    8755    8758    8761    8764    8767    8770    8773    8776    8779    8782
    8785    8788    8791    8794    8797    8800    8803    8806    8809    8812
    8815    8818    8821    8824    8827    8830    8833    8836    8839    8842
    8845    8848    8851    8854    8857    8860    8863    8866    8869    8872
    8875    8878    8881    8884    8887    8890    8893    8896    8899    8902
    8905    8908    8911    8914    8917    8920    8923    8926    8929    8932
    8935    8938    8941    8944    8947    8950    8953    8956    8959    8962
    8965    8968    8971    8974    8977    8980    8983    8986    8989    8992
    8995    8998    9001    9004    9007    9010    9013    9016    9019    9022
    9025    9028    9031    9034    9037    9040    9043    9046    9049    9052
    9055    9058    9061    9064    9067    9070    9073    9076    9079    9082
    9085    9088    9091    9094    9097    9100    9103    9106    9109    9112
    9115    9118    9121    9124    9127    9130    9133    9136    9139    9142
    9145    9148    9151    9154    9157    9160    9163    9166    9169    9172
    9175    9178    9181    9184    9187    9190    9193    9196    9199    9202
    9205    9208    9211    9214    9217    9220    9223    9226    9229    9232
    9235    9238    9241    9244    9247    9250    9253    9256    9259    9262
    9265    9268    9271    9274    9277    9280    9283    9286    9289    9292
    9295    9298    9301    9304    9307    9310    9313    9316    9319    9322
    9325    9328    9331    9334    9337    9340    9343    9346    9349    9352
    9355    9358    9361    9364    9367    9370    9373    9376    9379    9382
    9385    9388    9391    9394    9397    9400    9403    9406    9409    9412
    9415    9418    9421    9424    9427    9430    9433    9436    9439    9442
    9445    9448    9451    9454    9457    9460    9463    9466    9469    9472
    9475    9478    9481    9484    9487    9490    9493    9496    9499    9502
    9505    9508    9511    9514    9517    9520    9523    9526    9529    9532
    9535    9538    9541    9544    9547    9550    9553    9556    9559    9562
    9565    9568    9571    9574    9577    9580    9583    9586    9589    9592
    9595    9598    9601    9604    9607    9610    9613    9616    9619    9622
    9625    9628    9631    9634    9637    9640    9643    9646    9649    9652
    9655    9658    9661    9664    9667    9670    9673    9676    9679    9682
    9685    9688    9691    9694    9697    9700    9703    9706    9709    9712
    9715    9718    9721    9724    9727    9730    9733    9736    9739    9742
    9745    9748    9751    9754    9757    9760    9763    9766    9769    9772
    9775    9778    9781    9784    9787    9790    9793    9796    9799    9802
    9805    9808    9811    9814    9817    9820    9823    9826    9829    9832
    9835    9838    9841    9844    9847    9850    9853    9856    9859    9862
    9865    9868    9871    9874    9877    9880    9883    9886    9889    9892
    9895    9898    9901    9904    9907    9910    9913    9916    9919    9922
    9925    9928    9931    9934    9937    9940    9943    9946    9949    9952
    9955    9958    9961    9964    9967    9970    9973    9976    9979    9982
    9985    9988    9991    9994    9997   10000   10003   10006   10009   10012
   10015   10018   10021   10024   10027   10030   10033   10036   10039   10042
   10045   10048   10051   10054   10057   10060   10063   10066   10069   10072
   10075   10078   10081   10084   10087   10090   10093   10096   10099   10102
   10105   10108   10111   10114   10117   10120   10123   10126   10129   10132
   10135   10138   10141   10144   10147   10150   10153   10156   10159   10162
   10165   10168   10171   10174   10177   10180   10183   10186   10189   10192
   10195   10198   10201   10204   10207   10210   10213   10216   10219   10222
   10225   10228   10231   10234   10237   10240   10243   10246   10249   10252
   10255   10258   10261   10264   10267   10270   10273   10276   10279   10282
   10285   10288   10291   10294   10297   10300   10303   10306   10309   10312
   10315   10318   10321   10324   10327   10330   10333   10336   10339   10342
   10345   10348   10351   10354   10357   10360   10363   10366   10369   10372
   10375   10378   10381   10384   10387   10390   10393   10396   10399   10402
   10405   10408   10411   10414   10417   10420   10423   10426   10429   10432
   10435   10438   10441   10444   10447   10450   10453   10456   10459   10462
   10465   10468   10471   10474   10477   10480   10483   10486   10489   10492
   10495   10498   10501   10504   10507   10510   10513   10516   10519   10522
   10525   10528   10531   10534   10537   10540   10543   10546   10549   10552
   10555   10558   10561   10564   10567   10570   10573   10576   10579   10582
   10585   10588   10591   10594   10597   10600   10603   10606   10609   10612
   10615   10618   10621   10624   10627   10630   10633   10636   10639   10642
   10645   10648   10651   10654   10657   10660   10663   10666   10669   10672
   10675   10678   10681   10684   10687   10690   10693   10696   10699   10702
   10705   10708   10711   10714   10717   10720   10723   10726   10729   10732
   10735   10738   10741   10744   10747   10750   10753   10756   10759   10762
   10765   10768   10771   10774   10777   10780   10783   10786   10789   10792
   10795   10798   10801   10804   10807   10810   10813   10816   10819   10822
   10825   10828   10831   10834   10837   10840   10843   10846   10849   10852
   10855   10858   10861   10864   10867   10870   10873   10876   10879   10882
   10885   10888   10891   10894   10897   10900   10903   10906   10909   10912
   10915   10918   10921   10924   10927   10930   10933   10936   10939   10942
   10945   10948   10951   10954   10957   10960   10963   10966   10969   10972
   10975   10978   10981   10984   10987   10990   10993   10996   10999   11002
   11005   11008   11011   11014   11017   11020   11023   11026   11029   11032
   11035   11038   11041   11044   11047   11050   11053   11056   11059   11062
   11065   11068   11071   11074   11077   11080   11083   11086   11089   11092
   11095   11098   11101   11104   11107   11110   11113   11116   11119   11122
   11125   11128   11131   11134   11137   11140   11143   11146   11149   11152
   11155   11158   11161   11164   11167   11170   11173   11176   11179   11182
   11185   11188   11191   11194   11197   11200   11203   11206   11209   11212
   11215   11218   11221   11224   11227   11230   11233   11236   11239   11242
   11245   11248   11251   11254   11257   11260   11263   11266   11269   11272
   11275   11278   11281   11284   11287   11290   11293   11296   11299   11302
   11305   11308   11311   11314   11317   11320   11323   11326   11329   11332
   11335   11338   11341   11344   11347   11350   11353   11356   11359   11362
   11365   11368   11371   11374   11377   11380   11383   11386   11389   11392
   11395   11398   11401   11404   11407   11410   11413   11416   11419   11422
   11425   11428   11431   11434   11437   11440   11443   11446   11449   11452
   11455   11458   11461   11464   11467   11470   11473   11476   11479   11482
   11485   11488   11491   11494   11497   11500   11503   11506   11509   11512
   11515   11518   11521   11524   11527   11530   11533   11536   11539   11542
   11545   11548   11551   11554   11557   11560   11563   11566   11569   11572
   11575   11578   11581   11584   11587   11590   11593   11596   11599   11602
   11605   11608   11611   11614   11617   11620   11623   11626   11629   11632
   11635   11638   11641   11644   11647   11650   11653   11656   11659   11662
   11665   11668   11671   11674   11677   11680   11683   11686   11689   11692
   11695   11698   11701   11704   11707   11710   11713   11716   11719   11722
   11725   11728   11731   11734   11737   11740   11743   11746   11749   11752
   11755   11758   11761   11764   11767   11770   11773   11776   11779   11782
   11785   11788   11791   11794   11797   11800   11803   11806   11809   11812
   11815   11818   11821   11824   11827   11830   11833   11836   11839   11842
   11845   11848   11851   11854   11857   11860   11863   11866   11869   11872
   11875   11878   11881   11884   11887   11890   11893   11896   11899   11902
   11905   11908   11911   11914   11917   11920   11923   11926   11929   11932
   11935   11938   11941   11944   11947   11950   11953   11956   11959   11962
   11965   11968   11971   11974   11977   11980   11983   11986   11989   11992
   11995   11998   12001   12004   12007   12010   12013   12016   12019   12022
   12025   12028   12031   12034   12037   12040   12043   12046   12049   12052
   12055   12058   12061   12064   12067   12070   12073   12076   12079   12082
   12085   12088   12091   12094   12097   12100   12103   12106   12109   12112
   12115   12118   12121   12124   12127   12130   12133   12136   12139   12142
   12145   12148   12151   12154   12157   12160   12163   12166   12169   12172
   12175   12178   12181   12184   12187   12190   12193   12196   12199   12202
   12205   12208   12211   12214   12217   12220   12223   12226   12229   12232
   12235   12238   12241   12244   12247   12250   12253   12256   12259   12262
   12265   12268   12271   12274   12277   12280   12283   12286   12289   12292
   12295   12298   12301   12304   12307   12310   12313   12316   12319   12322
   12325   12328   12331   12334   12337   12340   12343   12346   12349   12352
   12355   12358   12361   12364   12367   12370   12373   12376   12379   12382
   12385   12388   12391   12394   12397   12400   12403   12406   12409   12412
   12415   12418   12421   12424   12427   12430   12433   12436   12439   12442
   12445   12448   12451   12454   12457   12460   12463   12466   12469   12472
   12475   12478   12481   12484   12487   12490   12493   12496   12499   12502
   12505   12508   12511   12514   12517   12520   12523   12526   12529   12532
   12535   12538   12541   12544   12547   12550   12553   12556   12559   12562
   12565   12568   12571   12574   12577   12580   12583   12586   12589   12592
   12595   12598   12601   12604   12607   12610   12613   12616   12619   12622
   12625   12628   12631   12634   12637   12640   12643   12646   12649   12652
   12655   12658   12661   12664   12667   12670   12673   12676   12679   12682
   12685   12688   12691   12694   12697   12700   12703   12706   12709   12712
   12715   12718   12721   12724   12727   12730   12733   12736   12739   12742
   12745   12748   12751   12754   12757   12760   12763   12766   12769   12772
   12775   12778   12781   12784   12787   12790   12793   12796   12799   12802
   12805   12808   12811   12814   12817   12820   12823   12826   12829   12832
   12835   12838   12841   12844   12847   12850   12853   12856   12859   12862
   12865   12868   12871   12874   12877   12880   12883   12886   12889   12892
   12895   12898   12901   12904   12907   12910   12913   12916   12919   12922
   12925   12928   12931   12934   12937   12940   12943   12946   12949   12952
   12955   12958   12961   12964   12967   12970   12973   12976   12979   12982
   12985   12988   12991   12994   12997   13000   13003   13006   13009   13012
   13015   13018   13021   13024   13027   13030   13033   13036   13039   13042
   13045   13048   13051   13054   13057   13060   13063   13066   13069   13072
   13075   13078   13081   13084   13087   13090   13093   13096   13099   13102
   13105   13108   13111   13114   13117   13120   13123   13126   13129   13132
   13135   13138   13141   13144   13147   13150   13153   13156   13159   13162
   13165   13168   13171   13174   13177   13180   13183   13186   13189   13192
   13195   13198   13201   13204   13207   13210   13213   13216   13219   13222
   13225   13228   13231   13234   13237   13240   13243   13246   13249   13252
   13255   13258   13261   13264   13267   13270   13273   13276   13279   13282
   13285   13288   13291   13294   13297   13300   13303   13306   13309   13312
   13315   13318   13321   13324   13327   13330   13333   13336   13339   13342
   13345   13348   13351   13354   13357   13360   13363   13366   13369   13372
   13375   13378   13381   13384   13387   13390   13393   13396   13399   13402
   13405   13408   13411   13414   13417   13420   13423   13426   13429   13432
   13435   13438   13441   13444   13447   13450   13453   13456   13459   13462
   13465   13468   13471   13474   13477   13480   13483   13486   13489   13492
   13495   13498   13501   13504   13507   13510   13513   13516   13519   13522
   13525   13528   13531   13534   13537   13540   13543   13546   13549   13552
   13555   13558   13561   13564   13567   13570   13573   13576   13579   13582
   13585   13588   13591   13594   13597   13600   13603   13606   13609   13612
   13615   13618   13621   13624   13627   13630   13633   13636   13639   13642
   13645   13648   13651   13654   13657   13660   13663   13666   13669   13672
   13675   13678   13681   13684   13687   13690   13693   13696   13699   13702
   13705   13708   13711   13714   13717   13720   13723   13726   13729   13732
   13735   13738   13741   13744   13747   13750   13753   13756   13759   13762
   13765   13768   13771   13774   13777   13780   13783   13786   13789   13792
   13795   13798   13801   13804   13807   13810   13813   13816   13819   13822
   13825   13828   13831   13834   13837   13840   13843   13846   13849   13852
   13855   13858   13861   13864   13867   13870   13873   13876   13879   13882
   13885   13888   13891   13894   13897   13900   13903   13906   13909   13912
   13915   13918   13921   13924   13927   13930   13933   13936   13939   13942
   13945   13948   13951   13954   13957   13960   13963   13966   13969   13972
   13975   13978   13981   13984   13987   13990   13993   13996   13999   14002
   14005   14008   14011   14014   14017   14020   14023   14026   14029   14032
   14035   14038   14041   14044   14047   14050   14053   14056   14059   14062
   14065   14068   14071   14074   14077   14080   14083   14086   14089   14092
   14095   14098   14101   14104   14107   14110   14113   14116   14119   14122
   14125   14128   14131   14134   14137   14140   14143   14146   14149   14152
   14155   14158   14161   14164   14167   14170   14173   14176   14179   14182
   14185   14188   14191   14194   14197   14200   14203   14206   14209   14212
   14215   14218   14221   14224   14227   14230   14233   14236   14239   14242
   14245   14248   14251   14254   14257   14260   14263   14266   14269   14272
   14275   14278   14281   14284   14287   14290   14293   14296   14299   14302
   14305   14308   14311   14314   14317   14320   14323   14326   14329   14332
   14335   14338   14341   14344   14347   14350   14353   14356   14359   14362
   14365   14368   14371   14374   14377   14380   14383   14386   14389   14392
   14395   14398   14401   14404   14407   14410   14413   14416   14419   14422
   14425   14428   14431   14434   14437   14440   14443   14446   14449   14452
   14455   14458   14461   14464   14467   14470   14473   14476   14479   14482
   14485   14488   14491   14494   14497   14500   14503   14506   14509   14512
   14515   14518   14521   14524   14527   14530   14533   14536   14539   14542
   14545   14548   14551   14554   14557   14560   14563   14566   14569   14572
   14575   14578   14581   14584   14587   14590   14593   14596   14599   14602
   14605   14608   14611   14614   14617   14620   14623   14626   14629   14632
   14635   14638   14641   14644   14647   14650   14653   14656   14659   14662
   14665   14668   14671   14674   14677   14680   14683   14686   14689   14692
   14695   14698   14701   14704   14707   14710   14713   14716   14719   14722
   14725   14728   14731   14734   14737   14740   14743   14746   14749   14752
   14755   14758   14761   14764   14767   14770   14773   14776   14779   14782
   14785   14788   14791   14794   14797   14800   14803   14806   14809   14812
   14815   14818   14821   14824   14827   14830   14833   14836   14839   14842
   14845   14848   14851   14854   14857   14860   14863   14866   14869   14872
   14875   14878   14881   14884   14887   14890   14893   14896   14899   14902
   14905   14908   14911   14914   14917   14920   14923   14926   14929   14932
   14935   14938   14941   14944   14947   14950   14953   14956   14959   14962
   14965   14968   14971   14974   14977   14980   14983   14986   14989   14992
   14995   14998   15001   15004   15007   15010   15013   15016   15019   15022
   15025   15028   15031   15034   15037   15040   15043   15046   15049   15052
   15055   15058   15061   15064   15067   15070   15073   15076   15079   15082
   15085   15088   15091   15094   15097   15100   15103   15106   15109   15112
   15115   15118   15121   15124   15127   15130   15133   15136   15139   15142
   15145   15148   15151   15154   15157   15160   15163   15166   15169   15172
   15175   15178   15181   15184   15187   15190   15193   15196   15199   15202
   15205   15208   15211   15214   15217   15220   15223   15226   15229   15232
   15235   15238   15241   15244   15247   15250   15253   15256   15259   15262
   15265   15268   15271   15274   15277   15280   15283   15286   15289   15292
   15295   15298   15301   15304   15307   15310   15313   15316   15319   15322
   15325   15328   15331   15334   15337   15340   15343   15346   15349   15352
   15355   15358   15361   15364   15367   15370   15373   15376   15379   15382
   15385   15388   15391   15394   15397   15400   15403   15406   15409   15412
   15415   15418   15421   15424   15427   15430   15433   15436   15439   15442
   15445   15448   15451   15454   15457   15460   15463   15466   15469   15472
   15475   15478   15481   15484   15487   15490   15493   15496   15499   15502
   15505   15508   15511   15514   15517   15520   15523   15526   15529   15532
   15535   15538   15541   15544   15547   15550   15553   15556   15559   15562
   15565   15568   15571   15574   15577   15580   15583   15586   15589   15592
   15595   15598   15601   15604   15607   15610   15613   15616   15619   15622
   15625   15628   15631   15634   15637   15640   15643   15646   15649   15652
   15655   15658   15661   15664   15667   15670   15673   15676   15679   15682
   15685   15688   15691   15694   15697   15700   15703   15706   15709   15712
   15715   15718   15721   15724   15727   15730   15733   15736   15739   15742
   15745   15748   15751   15754   15757   15760   15763   15766   15769   15772
   15775   15778   15781   15784   15787   15790   15793   15796   15799   15802
   15805   15808   15811   15814   15817   15820   15823   15826   15829   15832
   15835   15838   15841   15844   15847   15850   15853   15856   15859   15862
   15865   15868   15871   15874   15877   15880   15883   15886   15889   15892
   15895   15898   15901   15904   15907   15910   15913   15916   15919   15922
   15925   15928   15931   15934   15937   15940   15943   15946   15949   15952
   15955   15958   15961   15964   15967   15970   15973   15976   15979   15982
   15985   15988   15991   15994   15997   16000   16003   16006   16009   16012
   16015   16018   16021   16024   16027   16030   16033   16036   16039   16042
   16045   16048   16051   16054   16057   16060   16063   16066   16069   16072
   16075   16078   16081   16084   16087   16090   16093   16096   16099   16102
   16105   16108   16111   16114   16117   16120   16123   16126   16129   16132
   16135   16138   16141   16144   16147   16150   16153   16156   16159   16162
   16165   16168   16171   16174   16177   16180   16183   16186   16189   16192
   16195   16198   16201   16204   16207   16210   16213   16216   16219   16222
   16225   16228   16231   16234   16237   16240   16243   16246   16249   16252
   16255   16258   16261   16264   16267   16270   16273   16276   16279   16282
   16285   16288   16291   16294   16297   16300   16303   16306   16309   16312
   16315   16318   16321   16324   16327   16330   16333   16336   16339   16342
   16345   16348   16351   16354   16357   16360   16363   16366   16369   16372
   16375   16378   16381   16384   16387   16390   16393   16396   16399   16402
   16405   16408   16411   16414   16417   16420   16423   16426   16429   16432
   16435   16438   16441   16444   16447   16450   16453   16456   16459   16462
   16465   16468   16471   16474   16477   16480   16483   16486   16489   16492
   16495   16498   16501   16504   16507   16510   16513   16516   16519   16522
   16525   16528   16531   16534   16537   16540   16543   16546   16549   16552
   16555   16558   16561   16564   16567   16570   16573   16576   16579   16582
   16585   16588   16591   16594   16597   16600   16603   16606   16609   16612
   16615   16618   16621   16624   16627   16630   16633   16636   16639   16642
   16645   16648   16651   16654   16657   16660   16663   16666   16669   16672
   16675   16678   16681   16684   16687   16690   16693   16696   16699   16702
   16705   16708   16711   16714   16717   16720   16723   16726   16729   16732
   16735   16738   16741   16744   16747   16750   16753   16756   16759   16762
   16765   16768   16771   16774   16777   16780   16783   16786   16789   16792
   16795   16798   16801   16804   16807   16810   16813   16816   16819   16822
   16825   16828   16831   16834   16837   16840   16843   16846   16849   16852
   16855   16858   16861   16864   16867   16870   16873   16876   16879   16882
   16885   16888   16891   16894   16897   16900   16903   16906   16909   16912
   16915   16918   16921   16924   16927   16930   16933   16936   16939   16942
   16945   16948   16951   16954   16957   16960   16963   16966   16969   16972
   16975   16978   16981   16984   16987   16990   16993   16996   16999   17002
   17005   17008   17011   17014   17017   17020   17023   17026   17029   17032
   17035   17038   17041   17044   17047   17050   17053   17056   17059   17062
   17065   17068   17071   17074   17077   17080   17083   17086   17089   17092
   17095   17098   17101   17104   17107   17110   17113   17116   17119   17122
   17125   17128   17131   17134   17137   17140   17143   17146   17149   17152
   17155   17158   17161   17164   17167   17170   17173   17176   17179   17182
   17185   17188   17191   17194   17197   17200   17203   17206   17209   17212
   17215   17218   17221   17224   17227   17230   17233   17236   17239   17242
   17245   17248   17251   17254   17257   17260   17263   17266   17269   17272
   17275   17278   17281   17284   17287   17290   17293   17296   17299   17302
   17305   17308   17311   17314   17317   17320   17323   17326   17329   17332
   17335   17338   17341   17344   17347   17350   17353   17356   17359   17362
   17365   17368   17371   17374   17377   17380   17383   17386   17389   17392
   17395   17398   17401   17404   17407   17410   17413   17416   17419   17422
   17425   17428   17431   17434   17437   17440   17443   17446   17449   17452
   17455   17458   17461   17464   17467   17470   17473   17476   17479   17482
   17485   17488   17491   17494   17497   17500   17503   17506   17509   17512
   17515   17518   17521   17524   17527   17530   17533   17536   17539   17542
   17545   17548   17551   17554   17557   17560   17563   17566   17569   17572
   17575   17578   17581   17584   17587   17590   17593   17596   17599   17602
   17605   17608   17611   17614   17617   17620   17623   17626   17629   17632
   17635   17638   17641   17644   17647   17650   17653   17656   17659   17662
   17665   17668   17671   17674   17677   17680   17683   17686   17689   17692
   17695   17698   17701   17704   17707   17710   17713   17716   17719   17722
   17725   17728   17731   17734   17737   17740   17743   17746   17749   17752
   17755   17758   17761   17764   17767   17770   17773   17776   17779   17782
   17785   17788   17791   17794   17797   17800   17803   17806   17809   17812
   17815   17818   17821   17824   17827   17830   17833   17836   17839   17842
   17845   17848   17851   17854   17857   17860   17863   17866   17869   17872
   17875   17878   17881   17884   17887   17890   17893   17896   17899   17902
   17905   17908   17911   17914   17917   17920   17923   17926   17929   17932
   17935   17938   17941   17944   17947   17950   17953   17956   17959   17962
   17965   17968   17971   17974   17977   17980   17983   17986   17989   17992
   17995   17998   18001   18004   18007   18010   18013   18016   18019   18022
   18025   18028   18031   18034   18037   18040   18043   18046   18049   18052
   18055   18058   18061   18064   18067   18070   18073   18076   18079   18082
   18085   18088   18091   18094   18097   18100   18103   18106   18109   18112
   18115   18118   18121   18124   18127   18130   18133   18136   18139   18142
   18145   18148   18151   18154   18157   18160   18163   18166   18169   18172
   18175   18178   18181   18184   18187   18190   18193   18196   18199   18202
   18205   18208   18211   18214   18217   18220   18223   18226   18229   18232
   18235   18238   18241   18244   18247   18250   18253   18256   18259   18262
   18265   18268   18271   18274   18277   18280   18283   18286   18289   18292
   18295   18298   18301   18304   18307   18310   18313   18316   18319   18322
   18325   18328   18331   18334   18337   18340   18343   18346   18349   18352
   18355   18358   18361   18364   18367   18370   18373   18376   18379   18382
   18385   18388   18391   18394   18397   18400   18403   18406   18409   18412
   18415   18418   18421   18424   18427   18430   18433   18436   18439   18442
   18445   18448   18451   18454   18457   18460   18463   18466   18469   18472
   18475   18478   18481   18484   18487   18490   18493   18496   18499   18502
   18505   18508   18511   18514   18517   18520   18523   18526   18529   18532
   18535   18538   18541   18544   18547   18550   18553   18556   18559   18562
   18565   18568   18571   18574   18577   18580   18583   18586   18589   18592
   18595   18598   18601   18604   18607   18610   18613   18616   18619   18622
   18625   18628   18631   18634   18637   18640   18643   18646   18649   18652
   18655   18658   18661   18664   18667   18670   18673   18676   18679   18682
   18685   18688   18691   18694   18697   18700   18703   18706   18709   18712
   18715   18718   18721   18724   18727   18730   18733   18736   18739   18742
   18745   18748   18751   18754   18757   18760   18763   18766   18769   18772
   18775   18778   18781   18784   18787   18790   18793   18796   18799   18802
   18805   18808   18811   18814   18817   18820   18823   18826   18829   18832
   18835   18838   18841   18844   18847   18850   18853   18856   18859   18862
   18865   18868   18871   18874   18877   18880   18883   18886   18889   18892
   18895   18898   18901   18904   18907   18910   18913   18916   18919   18922
   18925   18928   18931   18934   18937   18940   18943   18946   18949   18952
   18955   18958   18961   18964   18967   18970   18973   18976   18979   18982
   18985   18988   18991   18994   18997   19000   19003   19006   19009   19012
   19015   19018   19021   19024   19027   19030   19033   19036   19039   19042
   19045   19048   19051   19054   19057   19060   19063   19066   19069   19072
   19075   19078   19081   19084   19087   19090   19093   19096   19099   19102
   19105   19108   19111   19114   19117   19120   19123   19126   19129   19132
   19135   19138   19141   19144   19147   19150   19153   19156   19159   19162
   19165   19168   19171   19174   19177   19180   19183   19186   19189   19192
   19195   19198   19201   19204   19207   19210   19213   19216   19219   19222
   19225   19228   19231   19234   19237   19240   19243   19246   19249   19252
   19255   19258   19261   19264   19267   19270   19273   19276   19279   19282
   19285   19288   19291   19294   19297   19300   19303   19306   19309   19312
   19315   19318   19321   19324   19327   19330   19333   19336   19339   19342
   19345   19348   19351   19354   19357   19360   19363   19366   19369   19372
   19375   19378   19381   19384   19387   19390   19393   19396   19399   19402
   19405   19408   19411   19414   19417   19420   19423   19426   19429   19432
   19435   19438   19441   19444   19447   19450   19453   19456   19459   19462
   19465   19468   19471   19474   19477   19480   19483   19486   19489   19492
   19495   19498   19501   19504   19507   19510   19513   19516   19519   19522
   19525   19528   19531   19534   19537   19540   19543   19546   19549   19552
   19555   19558   19561   19564   19567   19570   19573   19576   19579   19582
   19585   19588   19591   19594   19597   19600   19603   19606   19609   19612
   19615   19618   19621   19624   19627   19630   19633   19636   19639   19642
   19645   19648   19651   19654   19657   19660   19663   19666   19669   19672
   19675   19678   19681   19684   19687   19690   19693   19696   19699   19702
   19705   19708   19711   19714   19717   19720   19723   19726   19729   19732
   19735   19738   19741   19744   19747   19750   19753   19756   19759   19762
   19765   19768   19771   19774   19777   19780   19783   19786   19789   19792
   19795   19798   19801   19804   19807   19810   19813   19816   19819   19822
   19825   19828   19831   19834   19837   19840   19843   19846   19849   19852
   19855   19858   19861   19864   19867   19870   19873   19876   19879   19882
   19885   19888   19891   19894   19897   19900   19903   19906   19909   19912
   19915   19918   19921   19924   19927   19930   19933   19936   19939   19942
   19945   19948   19951   19954   19957   19960   19963   19966   19969   19972
   19975   19978   19981   19984   19987   19990   19993   19996   19999   20002
   20005   20008   20011   20014   20017   20020   20023   20026   20029   20032
   20035   20038   20041   20044   20047   20050   20053   20056   20059   20062
   20065   20068   20071   20074   20077   20080   20083   20086   20089   20092
   20095   20098   20101   20104   20107   20110   20113   20116   20119   20122
   20125   20128   20131   20134   20137   20140   20143   20146   20149   20152
   20155   20158   20161   20164   20167   20170   20173   20176   20179   20182
   20185   20188   20191   20194   20197   20200   20203   20206   20209   20212
   20215   20218   20221   20224   20227   20230   20233   20236   20239   20242
   20245   20248   20251   20254   20257   20260   20263   20266   20269   20272
   20275   20278   20281   20284   20287   20290   20293   20296   20299   20302
   20305   20308   20311   20314   20317   20320   20323   20326   20329   20332
   20335   20338   20341   20344   20347   20350   20353   20356   20359   20362
   20365   20368   20371   20374   20377   20380   20383   20386   20389   20392
   20395   20398   20401   20404   20407   20410   20413   20416   20419   20422
   20425   20428   20431   20434   20437   20440   20443   20446   20449   20452
   20455   20458   20461   20464   20467   20470   20473   20476   20479   20482
   20485   20488   20491   20494   20497   20500   20503   20506   20509   20512
   20515   20518   20521   20524   20527   20530   20533   20536   20539   20542
   20545   20548   20551   20554   20557   20560   20563   20566   20569   20572
   20575   20578   20581   20584   20587   20590   20593   20596   20599   20602
   20605   20608   20611   20614   20617   20620   20623   20626   20629   20632
   20635   20638   20641   20644   20647   20650   20653   20656   20659   20662
   20665   20668   20671   20674   20677   20680   20683   20686   20689   20692
   20695   20698   20701   20704   20707   20710   20713   20716   20719   20722
   20725   20728   20731   20734   20737   20740   20743   20746   20749   20752
   20755   20758   20761   20764   20767   20770   20773   20776   20779   20782
   20785   20788   20791   20794   20797   20800   20803   20806   20809   20812
   20815   20818   20821   20824   20827   20830   20833   20836   20839   20842
   20845   20848   20851   20854   20857   20860   20863   20866   20869   20872
   20875   20878   20881   20884   20887   20890   20893   20896   20899   20902
   20905   20908   20911   20914   20917   20920   20923   20926   20929   20932
   20935   20938   20941   20944   20947   20950   20953   20956   20959   20962
   20965   20968   20971   20974   20977   20980   20983   20986   20989   20992
   20995   20998   21001   21004   21007   21010   21013   21016   21019   21022
   21025   21028   21031   21034   21037   21040   21043   21046   21049   21052
   21055   21058   21061   21064   21067   21070   21073   21076   21079   21082
   21085   21088   21091   21094   21097   21100   21103   21106   21109   21112
   21115   21118   21121   21124   21127   21130   21133   21136   21139   21142
   21145   21148   21151   21154   21157   21160   21163   21166   21169   21172
   21175   21178   21181   21184   21187   21190   21193   21196   21199   21202
   21205   21208   21211   21214   21217   21220   21223   21226   21229   21232
   21235   21238   21241   21244   21247   21250   21253   21256   21259   21262
   21265   21268   21271   21274   21277   21280   21283   21286   21289   21292
   21295   21298   21301   21304   21307   21310   21313   21316   21319   21322
   21325   21328   21331   21334   21337   21340   21343   21346   21349   21352
   21355   21358   21361   21364   21367   21370   21373   21376   21379   21382
   21385   21388   21391   21394   21397   21400   21403   21406   21409   21412
   21415   21418   21421   21424   21427   21430   21433   21436   21439   21442
   21445   21448   21451   21454   21457   21460   21463   21466   21469   21472
   21475   21478   21481   21484   21487   21490   21493   21496   21499   21502
   21505   21508   21511   21514   21517   21520   21523   21526   21529   21532
   21535   21538   21541   21544   21547   21550   21553   21556   21559   21562
   21565   21568   21571   21574   21577   21580   21583   21586   21589   21592
   21595   21598   21601   21604   21607   21610   21613   21616   21619   21622
   21625   21628   21631   21634   21637   21640   21643   21646   21649   21652
   21655   21658   21661   21664   21667   21670   21673   21676   21679   21682
   21685   21688   21691   21694   21697   21700   21703   21706   21709   21712
   21715   21718   21721   21724   21727   21730   21733   21736   21739   21742
   21745   21748   21751   21754   21757   21760   21763   21766   21769   21772
   21775   21778   21781   21784   21787   21790   21793   21796   21799   21802
   21805   21808   21811   21814   21817   21820   21823   21826   21829   21832
   21835   21838   21841   21844   21847   21850   21853   21856   21859   21862
   21865   21868   21871   21874   21877   21880   21883   21886   21889   21892
   21895   21898   21901   21904   21907   21910   21913   21916   21919   21922
   21925   21928   21931   21934   21937   21940   21943   21946   21949   21952
   21955   21958   21961   21964   21967   21970   21973   21976   21979   21982
   21985   21988   21991   21994   21997   22000   22003   22006   22009   22012
   22015   22018   22021   22024   22027   22030   22033   22036   22039   22042
   22045   22048   22051   22054   22057   22060   22063   22066   22069   22072
   22075   22078   22081   22084   22087   22090   22093   22096   22099   22102
   22105   22108   22111   22114   22117   22120   22123   22126   22129   22132
   22135   22138   22141   22144   22147   22150   22153   22156   22159   22162
   22165   22168   22171   22174   22177   22180   22183   22186   22189   22192
   22195   22198   22201   22204   22207   22210   22213   22216   22219   22222
   22225   22228   22231   22234   22237   22240   22243   22246   22249   22252
   22255   22258   22261   22264   22267   22270   22273   22276   22279   22282
   22285   22288   22291   22294   22297   22300   22303   22306   22309   22312
   22315   22318   22321   22324   22327   22330   22333   22336   22339   22342
   22345   22348   22351   22354   22357   22360   22363   22366   22369   22372
   22375   22378   22381   22384   22387   22390   22393   22396   22399   22402
   22405   22408   22411   22414   22417   22420   22423   22426   22429   22432
   22435   22438   22441   22444   22447   22450   22453   22456   22459   22462
   22465   22468   22471   22474   22477   22480   22483   22486   22489   22492
   22495   22498   22501   22504   22507   22510   22513   22516   22519   22522
   22525   22528   22531   22534   22537   22540   22543   22546   22549   22552
   22555   22558   22561   22564   22567   22570   22573   22576   22579   22582
   22585   22588   22591   22594   22597   22600   22603   22606   22609   22612
   22615   22618   22621   22624   22627   22630   22633   22636   22639   22642
   22645   22648   22651   22654   22657   22660   22663   22666   22669   22672
   22675   22678   22681   22684   22687   22690   22693   22696   22699   22702
   22705   22708   22711   22714   22717   22720   22723   22726   22729   22732
   22735   22738   22741   22744   22747   22750   22753   22756   22759   22762
   22765   22768   22771   22774   22777   22780   22783   22786   22789   22792
   22795   22798   22801   22804   22807   22810   22813   22816   22819   22822
   22825   22828   22831   22834   22837   22840   22843   22846   22849   22852
   22855   22858   22861   22864   22867   22870   22873   22876   22879   22882
   22885   22888   22891   22894   22897   22900   22903   22906   22909   22912
   22915   22918   22921   22924   22927   22930   22933   22936   22939   22942
   22945   22948   22951   22954   22957   22960   22963   22966   22969   22972
   22975   22978   22981   22984   22987   22990   22993   22996   22999   23002
   23005   23008   23011   23014   23017   23020   23023   23026   23029   23032
   23035   23038   23041   23044   23047   23050   23053   23056   23059   23062
   23065   23068   23071   23074   23077   23080   23083   23086   23089   23092
   23095   23098   23101   23104   23107   23110   23113   23116   23119   23122
   23125   23128   23131   23134   23137   23140   23143   23146   23149   23152
   23155   23158   23161   23164   23167   23170   23173   23176   23179   23182
   23185   23188   23191   23194   23197   23200   23203   23206   23209   23212
   23215   23218   23221   23224   23227   23230   23233   23236   23239   23242
   23245   23248   23251   23254   23257   23260   23263   23266   23269   23272
   23275   23278   23281   23284   23287   23290   23293   23296   23299   23302
   23305   23308   23311   23314   23317   23320   23323   23326   23329   23332
   23335   23338   23341   23344   23347   23350   23353   23356   23359   23362
   23365   23368   23371   23374   23377   23380   23383   23386   23389   23392
   23395   23398   23401   23404   23407   23410   23413   23416   23419   23422
   23425   23428   23431   23434   23437   23440   23443   23446   23449   23452
   23455   23458   23461   23464   23467   23470   23473   23476   23479   23482
   23485   23488   23491   23494   23497   23500   23503   23506   23509   23512
   23515   23518   23521   23524   23527   23530   23533   23536   23539   23542
   23545   23548   23551   23554   23557   23560   23563   23566   23569   23572
   23575   23578   23581   23584   23587   23590   23593   23596   23599   23602
   23605   23608   23611   23614   23617   23620   23623   23626   23629   23632
   23635   23638   23641   23644   23647   23650   23653   23656   23659   23662
   23665   23668   23671   23674   23677   23680   23683   23686   23689   23692
   23695   23698   23701   23704   23707   23710   23713   23716   23719   23722
   23725   23728   23731   23734   23737   23740   23743   23746   23749   23752
   23755   23758   23761   23764   23767   23770   23773   23776   23779   23782
   23785   23788   23791   23794   23797   23800   23803   23806   23809   23812
   23815   23818   23821   23824   23827   23830   23833   23836   23839   23842
   23845   23848   23851   23854   23857   23860   23863   23866   23869   23872
   23875   23878   23881   23884   23887   23890   23893   23896   23899   23902
   23905   23908   23911   23914   23917   23920   23923   23926   23929   23932
   23935   23938   23941   23944   23947   23950   23953   23956   23959   23962
   23965   23968   23971   23974   23977   23980   23983   23986   23989   23992
   23995   23998   24001   24004   24007   24010   24013   24016   24019   24022
   24025   24028   24031   24034   24037   24040   24043   24046   24049   24052
   24055   24058   24061   24064   24067   24070   24073   24076   24079   24082
   24085   24088   24091   24094   24097   24100   24103   24106   24109   24112
   24115   24118   24121   24124   24127   24130   24133   24136   24139   24142
   24145   24148   24151   24154   24157   24160   24163   24166   24169   24172
   24175   24178   24181   24184   24187   24190   24193   24196   24199   24202
   24205   24208   24211   24214   24217   24220   24223   24226   24229   24232
   24235   24238   24241   24244   24247   24250   24253   24256   24259   24262
   24265   24268   24271   24274   24277   24280   24283   24286   24289   24292
   24295   24298   24301   24304   24307   24310   24313   24316   24319   24322
   24325   24328   24331   24334   24337   24340   24343   24346   24349   24352
   24355   24358   24361   24364   24367   24370   24373   24376   24379   24382
   24385   24388   24391   24394   24397   24400   24403   24406   24409   24412
   24415   24418   24421   24424   24427   24430   24433   24436   24439   24442
   24445   24448   24451   24454   24457   24460   24463   24466   24469   24472
   24475   24478   24481   24484   24487   24490   24493   24496   24499   24502
   24505   24508   24511   24514   24517   24520   24523   24526   24529   24532
   24535   24538   24541   24544   24547   24550   24553   24556   24559   24562
   24565   24568   24571   24574   24577   24580   24583   24586   24589   24592
   24595   24598   24601   24604   24607   24610   24613   24616   24619   24622
   24625   24628   24631   24634   24637   24640   24643   24646   24649   24652
   24655   24658   24661   24664   24667   24670   24673   24676   24679   24682
   24685   24688   24691   24694   24697   24700   24703   24706   24709   24712
   24715   24718   24721   24724   24727   24730   24733   24736   24739   24742
   24745   24748   24751   24754   24757   24760   24763   24766   24769   24772
   24775   24778   24781   24784   24787   24790   24793   24796   24799   24802
   24805   24808   24811   24814   24817   24820   24823   24826   24829   24832
   24835   24838   24841   24844   24847   24850   24853   24856   24859   24862
   24865   24868   24871   24874   24877   24880   24883   24886   24889   24892
   24895   24898   24901   24904   24907   24910   24913   24916   24919   24922
   24925   24928   24931   24934   24937   24940   24943   24946   24949   24952
   24955   24958   24961   24964   24967   24970   24973   24976   24979   24982
   24985   24988   24991   24994   24997   25000   25003   25006   25009   25012
   25015   25018   25021   25024   25027   25030   25033   25036   25039   25042
   25045   25048   25051   25054   25057   25060   25063   25066   25069   25072
   25075   25078   25081   25084   25087   25090   25093   25096   25099   25102
   25105   25108   25111   25114   25117   25120   25123   25126   25129   25132
   25135   25138   25141   25144   25147   25150   25153   25156   25159   25162
   25165   25168   25171   25174   25177   25180   25183   25186   25189   25192
   25195   25198   25201   25204   25207   25210   25213   25216   25219   25222
   25225   25228   25231   25234   25237   25240   25243   25246   25249   25252
   25255   25258   25261   25264   25267   25270   25273   25276   25279   25282
   25285   25288   25291   25294   25297   25300   25303   25306   25309   25312
   25315   25318   25321   25324   25327   25330   25333   25336   25339   25342
   25345   25348   25351   25354   25357   25360   25363   25366   25369   25372
   25375   25378   25381   25384   25387   25390   25393   25396   25399   25402
   25405   25408   25411   25414   25417   25420   25423   25426   25429   25432
   25435   25438   25441   25444   25447   25450   25453   25456   25459   25462
   25465   25468   25471   25474   25477   25480   25483   25486   25489   25492
   25495   25498   25501   25504   25507   25510   25513   25516   25519   25522
   25525   25528   25531   25534   25537   25540   25543   25546   25549   25552
   25555   25558   25561   25564   25567   25570   25573   25576   25579   25582
   25585   25588   25591   25594   25597   25600   25603   25606   25609   25612
   25615   25618   25621   25624   25627   25630   25633   25636   25639   25642
   25645   25648   25651   25654   25657   25660   25663   25666   25669   25672
   25675   25678   25681   25684   25687   25690   25693   25696   25699   25702
   25705   25708   25711   25714   25717   25720   25723   25726   25729   25732
   25735   25738   25741   25744   25747   25750   25753   25756   25759   25762
   25765   25768   25771   25774   25777   25780   25783   25786   25789   25792
   25795   25798   25801   25804   25807   25810   25813   25816   25819   25822
   25825   25828   25831   25834   25837   25840   25843   25846   25849   25852
   25855   25858   25861   25864   25867   25870   25873   25876   25879   25882
   25885   25888   25891   25894   25897   25900   25903   25906   25909   25912
   25915   25918   25921   25924   25927   25930   25933   25936   25939   25942
   25945   25948   25951   25954   25957   25960   25963   25966   25969   25972
   25975   25978   25981   25984   25987   25990   25993   25996   25999   26002
   26005   26008   26011   26014   26017   26020   26023   26026   26029   26032
   26035   26038   26041   26044   26047   26050   26053   26056   26059   26062
   26065   26068   26071   26074   26077   26080   26083   26086   26089   26092
   26095   26098   26101   26104   26107   26110   26113   26116   26119   26122
   26125   26128   26131   26134   26137   26140   26143   26146   26149   26152
   26155   26158   26161   26164   26167   26170   26173   26176   26179   26182
   26185   26188   26191   26194   26197   26200   26203   26206   26209   26212
   26215   26218   26221   26224   26227   26230   26233   26236   26239   26242
   26245   26248   26251   26254   26257   26260   26263   26266   26269   26272
   26275   26278   26281   26284   26287   26290   26293   26296   26299   26302
   26305   26308   26311   26314   26317   26320   26323   26326   26329   26332
   26335   26338   26341   26344   26347   26350   26353   26356   26359   26362
   26365   26368   26371   26374   26377   26380   26383   26386   26389   26392
   26395   26398   26401   26404   26407   26410   26413   26416   26419   26422
   26425   26428   26431   26434   26437   26440   26443   26446   26449   26452
   26455   26458   26461   26464   26467   26470   26473   26476   26479   26482
   26485   26488   26491   26494   26497   26500   26503   26506   26509   26512
   26515   26518   26521   26524   26527   26530   26533   26536   26539   26542
   26545   26548   26551   26554   26557   26560   26563   26566   26569   26572
   26575   26578   26581   26584   26587   26590   26593   26596   26599   26602
   26605   26608   26611   26614   26617   26620   26623   26626   26629   26632
   26635   26638   26641   26644   26647   26650   26653   26656   26659   26662
   26665   26668   26671   26674   26677   26680   26683   26686   26689   26692
   26695   26698   26701   26704   26707   26710   26713   26716   26719   26722
   26725   26728   26731   26734   26737   26740   26743   26746   26749   26752
   26755   26758   26761   26764   26767   26770   26773   26776   26779   26782
   26785   26788   26791   26794   26797   26800   26803   26806   26809   26812
   26815   26818   26821   26824   26827   26830   26833   26836   26839   26842
   26845   26848   26851   26854   26857   26860   26863   26866   26869   26872
   26875   26878   26881   26884   26887   26890   26893   26896   26899   26902
   26905   26908   26911   26914   26917   26920   26923   26926   26929   26932
   26935   26938   26941   26944   26947   26950   26953   26956   26959   26962
   26965   26968   26971   26974   26977   26980   26983   26986   26989   26992
   26995   26998   27001   27004   27007   27010   27013   27016   27019   27022
   27025   27028   27031   27034   27037   27040   27043   27046   27049   27052
   27055   27058   27061   27064   27067   27070   27073   27076   27079   27082
   27085   27088   27091   27094   27097   27100   27103   27106   27109   27112
   27115   27118   27121   27124   27127   27130   27133   27136   27139   27142
   27145   27148   27151   27154   27157   27160   27163   27166   27169   27172
   27175   27178   27181   27184   27187   27190   27193   27196   27199   27202
   27205   27208   27211   27214   27217   27220   27223   27226   27229   27232
   27235   27238   27241   27244   27247   27250   27253   27256   27259   27262
   27265   27268   27271   27274   27277   27280   27283   27286   27289   27292
   27295   27298   27301   27304   27307   27310   27313   27316   27319   27322
   27325   27328   27331   27334   27337   27340   27343   27346   27349   27352
   27355   27358   27361   27364   27367   27370   27373   27376   27379   27382
   27385   27388   27391   27394   27397   27400   27403   27406   27409   27412
   27415   27418   27421   27424   27427   27430   27433   27436   27439   27442
   27445   27448   27451   27454   27457   27460   27463   27466   27469   27472
   27475   27478   27481   27484   27487   27490   27493   27496   27499   27502
   27505   27508   27511   27514   27517   27520   27523   27526   27529   27532
   27535   27538   27541   27544   27547   27550   27553   27556   27559   27562
   27565   27568   27571   27574   27577   27580   27583   27586   27589   27592
   27595   27598   27601   27604   27607   27610   27613   27616   27619   27622
   27625   27628   27631   27634   27637   27640   27643   27646   27649   27652
   27655   27658   27661   27664   27667   27670   27673   27676   27679   27682
   27685   27688   27691   27694   27697   27700   27703   27706   27709   27712
   27715   27718   27721   27724   27727   27730   27733   27736   27739   27742
   27745   27748   27751   27754   27757   27760   27763   27766   27769   27772
   27775   27778   27781   27784   27787   27790   27793   27796   27799   27802
   27805   27808   27811   27814   27817   27820   27823   27826   27829   27832
   27835   27838   27841   27844   27847   27850   27853   27856   27859   27862
   27865   27868   27871   27874   27877   27880   27883   27886   27889   27892
   27895   27898   27901   27904   27907   27910   27913   27916   27919   27922
   27925   27928   27931   27934   27937   27940   27943   27946   27949   27952
   27955   27958   27961   27964   27967   27970   27973   27976   27979   27982
   27985   27988   27991   27994   27997   28000   28003   28006   28009   28012
   28015   28018   28021   28024   28027   28030   28033   28036   28039   28042
   28045   28048   28051   28054   28057   28060   28063   28066   28069   28072
   28075   28078   28081   28084   28087   28090   28093   28096   28099   28102
   28105   28108   28111   28114   28117   28120   28123   28126   28129   28132
   28135   28138   28141   28144   28147   28150   28153   28156   28159   28162
   28165   28168   28171   28174   28177   28180   28183   28186   28189   28192
   28195   28198   28201   28204   28207   28210   28213   28216   28219   28222
   28225   28228   28231   28234   28237   28240   28243   28246   28249   28252
   28255   28258   28261   28264   28267   28270   28273   28276   28279   28282
   28285   28288   28291   28294   28297   28300   28303   28306   28309   28312
   28315   28318   28321   28324   28327   28330   28333   28336   28339   28342
   28345   28348   28351   28354   28357   28360   28363   28366   28369   28372
   28375   28378   28381   28384   28387   28390   28393   28396   28399   28402
   28405   28408   28411   28414   28417   28420   28423   28426   28429   28432
   28435   28438   28441   28444   28447   28450   28453   28456   28459   28462
   28465   28468   28471   28474   28477   28480   28483   28486   28489   28492
   28495   28498   28501   28504   28507   28510   28513   28516   28519   28522
   28525   28528   28531   28534   28537   28540   28543   28546   28549   28552
   28555   28558   28561   28564   28567   28570   28573   28576   28579   28582
   28585   28588   28591   28594   28597   28600   28603   28606   28609   28612
   28615   28618   28621   28624   28627   28630   28633   28636   28639   28642
   28645   28648   28651   28654   28657   28660   28663   28666   28669   28672
   28675   28678   28681   28684   28687   28690   28693   28696   28699   28702
   28705   28708   28711   28714   28717   28720   28723   28726   28729   28732
   28735   28738   28741   28744   28747   28750   28753   28756   28759   28762
   28765   28768   28771   28774   28777   28780   28783   28786   28789   28792
   28795   28798   28801   28804   28807   28810   28813   28816   28819   28822
   28825   28828   28831   28834   28837   28840   28843   28846   28849   28852
   28855   28858   28861   28864   28867   28870   28873   28876   28879   28882
   28885   28888   28891   28894   28897   28900   28903   28906   28909   28912
   28915   28918   28921   28924   28927   28930   28933   28936   28939   28942
   28945   28948   28951   28954   28957   28960   28963   28966   28969   28972
   28975   28978   28981   28984   28987   28990   28993   28996   28999   29002
   29005   29008   29011   29014   29017   29020   29023   29026   29029   29032
   29035   29038   29041   29044   29047   29050   29053   29056   29059   29062
   29065   29068   29071   29074   29077   29080   29083   29086   29089   29092
   29095   29098   29101   29104   29107   29110   29113   29116   29119   29122
   29125   29128   29131   29134   29137   29140   29143   29146   29149   29152
   29155   29158   29161   29164   29167   29170   29173   29176   29179   29182
   29185   29188   29191   29194   29197   29200   29203   29206   29209   29212
   29215   29218   29221   29224   29227   29230   29233   29236   29239   29242
   29245   29248   29251   29254   29257   29260   29263   29266   29269   29272
   29275   29278   29281   29284   29287   29290   29293   29296   29299   29302
   29305   29308   29311   29314   29317   29320   29323   29326   29329   29332
   29335   29338   29341   29344   29347   29350   29353   29356   29359   29362
   29365   29368   29371   29374   29377   29380   29383   29386   29389   29392
   29395   29398   29401   29404   29407   29410   29413   29416   29419   29422
   29425   29428   29431   29434   29437   29440   29443   29446   29449   29452
   29455   29458   29461   29464   29467   29470   29473   29476   29479   29482
   29485   29488   29491   29494   29497   29500   29503   29506   29509   29512
   29515   29518   29521   29524   29527   29530   29533   29536   29539   29542
   29545   29548   29551   29554   29557   29560   29563   29566   29569   29572
   29575   29578   29581   29584   29587   29590   29593   29596   29599   29602
   29605   29608   29611   29614   29617   29620   29623   29626   29629   29632
   29635   29638   29641   29644   29647   29650   29653   29656   29659   29662
   29665   29668   29671   29674   29677   29680   29683   29686   29689   29692
   29695   29698   29701   29704   29707   29710   29713   29716   29719   29722
   29725   29728   29731   29734   29737   29740   29743   29746   29749   29752
   29755   29758   29761   29764   29767   29770   29773   29776   29779   29782
   29785   29788   29791   29794   29797   29800   29803   29806   29809   29812
   29815   29818   29821   29824   29827   29830   29833   29836   29839   29842
   29845   29848   29851   29854   29857   29860   29863   29866   29869   29872
   29875   29878   29881   29884   29887   29890   29893   29896   29899   29902
   29905   29908   29911   29914   29917   29920   29923   29926   29929   29932
   29935   29938   29941   29944   29947   29950   29953   29956   29959   29962
   29965   29968   29971   29974   29977   29980   29983   29986   29989   29992
   29995   29998   30001   30004   30007   30010   30013   30016   30019   30022
   30025   30028   30031   30034   30037   30040   30043   30046   30049   30052
   30055   30058   30061   30064   30067   30070   30073   30076   30079   30082
   30085   30088   30091   30094   30097   30100   30103   30106   30109   30112
   30115   30118   30121   30124   30127   30130   30133   30136   30139   30142
   30145   30148   30151   30154   30157   30160   30163   30166   30169   30172
   30175   30178   30181   30184   30187   30190   30193   30196   30199   30202
   30205   30208   30211   30214   30217   30220   30223   30226   30229   30232
   30235   30238   30241   30244   30247   30250   30253   30256   30259   30262
   30265   30268   30271   30274   30277   30280   30283   30286   30289   30292
   30295   30298   30301   30304   30307   30310   30313   30316   30319   30322
   30325   30328   30331   30334   30337   30340   30343   30346   30349   30352
   30355   30358   30361   30364   30367   30370   30373   30376   30379   30382
   30385   30388   30391   30394   30397   30400   30403   30406   30409   30412
   30415   30418   30421   30424   30427   30430   30433   30436   30439   30442
   30445   30448   30451   30454   30457   30460   30463   30466   30469   30472
   30475   30478   30481   30484   30487   30490   30493   30496   30499   30502
   30505   30508   30511   30514   30517   30520   30523   30526   30529   30532
   30535   30538   30541   30544   30547   30550   30553   30556   30559   30562
   30565   30568   30571   30574   30577   30580   30583   30586   30589   30592
   30595   30598   30601   30604   30607   30610   30613   30616   30619   30622
   30625   30628   30631   30634   30637   30640   30643   30646   30649   30652
   30655   30658   30661   30664   30667   30670   30673   30676   30679   30682
   30685   30688   30691   30694   30697   30700   30703   30706   30709   30712
   30715   30718   30721   30724   30727   30730   30733   30736   30739   30742
   30745   30748   30751   30754   30757   30760   30763   30766   30769   30772
   30775   30778   30781   30784   30787   30790   30793   30796   30799   30802
   30805   30808   30811   30814   30817   30820   30823   30826   30829   30832
   30835   30838   30841   30844   30847   30850   30853   30856   30859   30862
   30865   30868   30871   30874   30877   30880   30883   30886   30889   30892
   30895   30898   30901   30904   30907   30910   30913   30916   30919   30922
   30925   30928   30931   30934   30937   30940   30943   30946   30949   30952
   30955   30958   30961   30964   30967   30970   30973   30976   30979   30982
   30985   30988   30991   30994   30997   31000   31003   31006   31009   31012
   31015   31018   31021   31024   31027   31030   31033   31036   31039   31042
   31045   31048   31051   31054   31057   31060   31063   31066   31069   31072
   31075   31078   31081   31084   31087   31090   31093   31096   31099   31102
   31105   31108   31111   31114   31117   31120   31123   31126   31129   31132
   31135   31138   31141   31144   31147   31150   31153   31156   31159   31162
   31165   31168   31171   31174   31177   31180   31183   31186   31189   31192
   31195   31198   31201   31204   31207   31210   31213   31216   31219   31222
   31225   31228   31231   31234   31237   31240   31243   31246   31249   31252
   31255   31258   31261   31264   31267   31270   31273   31276   31279   31282
   31285   31288   31291   31294   31297   31300   31303   31306   31309   31312
   31315   31318   31321   31324   31327   31330   31333   31336   31339   31342
   31345   31348   31351   31354   31357   31360   31363   31366   31369   31372
   31375   31378   31381   31384   31387   31390   31393   31396   31399   31402
   31405   31408   31411   31414   31417   31420   31423   31426   31429   31432
   31435   31438   31441   31444   31447   31450   31453   31456   31459   31462
   31465   31468   31471   31474   31477   31480   31483   31486   31489   31492
   31495   31498   31501   31504   31507   31510   31513   31516   31519   31522
   31525   31528   31531   31534   31537   31540   31543   31546   31549   31552
   31555   31558   31561   31564   31567   31570   31573   31576   31579   31582
   31585   31588   31591   31594   31597   31600   31603   31606   31609   31612
   31615   31618   31621   31624   31627   31630   31633   31636   31639   31642
   31645   31648   31651   31654   31657   31660   31663   31666   31669   31672
   31675   31678   31681   31684   31687   31690   31693   31696   31699   31702
   31705   31708   31711   31714   31717   31720   31723   31726   31729   31732
   31735   31738   31741   31744   31747   31750   31753   31756   31759   31762
   31765   31768   31771   31774   31777   31780   31783   31786   31789   31792
   31795   31798   31801   31804   31807   31810   31813   31816   31819   31822
   31825   31828   31831   31834   31837   31840   31843   31846   31849   31852
   31855   31858   31861   31864   31867   31870   31873   31876   31879   31882
   31885   31888   31891   31894   31897   31900   31903   31906   31909   31912
   31915   31918   31921   31924   31927   31930   31933   31936   31939   31942
   31945   31948   31951   31954   31957   31960   31963   31966   31969   31972
   31975   31978   31981   31984   31987   31990   31993   31996   31999   32002
   32005   32008   32011   32014   32017   32020   32023   32026   32029   32032
   32035   32038   32041   32044   32047   32050   32053   32056   32059   32062
   32065   32068   32071   32074   32077   32080   32083   32086   32089   32092
   32095   32098   32101   32104   32107   32110   32113   32116   32119   32122
   32125   32128   32131   32134   32137   32140   32143   32146   32149   32152
   32155   32158   32161   32164   32167   32170   32173   32176   32179   32182
   32185   32188   32191   32194   32197   32200   32203   32206   32209   32212
   32215   32218   32221   32224   32227   32230   32233   32236   32239   32242
   32245   32248   32251   32254   32257   32260   32263   32266   32269   32272
   32275   32278   32281   32284   32287   32290   32293   32296   32299   32302
   32305   32308   32311   32314   32317   32320   32323   32326   32329   32332
   32335   32338   32341   32344   32347   32350   32353   32356   32359   32362
   32365   32368   32371   32374   32377   32380   32383   32386   32389   32392
   32395   32398   32401   32404   32407   32410   32413   32416   32419   32422
   32425   32428   32431   32434   32437   32440   32443   32446   32449   32452
   32455   32458   32461   32464   32467   32470   32473   32476   32479   32482
   32485   32488   32491   32494   32497   32500   32503   32506   32509   32512
   32515   32518   32521   32524   32527   32530   32533   32536   32539   32542
   32545   32548   32551   32554   32557   32560   32563   32566   32569   32572
   32575   32578   32581   32584   32587   32590   32593   32596   32599   32602
   32605   32608   32611   32614   32617   32620   32623   32626   32629   32632
   32635   32638   32641   32644   32647   32650   32653   32656   32659   32662
   32665   32668   32671   32674   32677   32680   32683   32686   32689   32692
   32695   32698   32701   32704   32707   32710   32713   32716   32719   32722
   32725   32728   32731   32734   32737   32740   32743   32746   32749   32752
   32755   32758   32761   32764   32767   32770   32773   32776   32779   32782
   32785   32788   32791   32794   32797   32800   32803   32806   32809   32812
   32815   32818   32821   32824   32827   32830   32833   32836   32839   32842
   32845   32848   32851   32854   32857   32860   32863   32866   32869   32872
   32875   32878   32881   32884   32887   32890   32893   32896   32899   32902
   32905   32908   32911   32914   32917   32920   32923   32926   32929   32932
   32935   32938   32941   32944   32947   32950   32953   32956   32959   32962
   32965   32968   32971   32974   32977   32980   32983   32986   32989   32992
   32995   32998   33001   33004   33007   33010   33013   33016   33019   33022
   33025   33028   33031   33034   33037   33040   33043   33046   33049   33052
   33055   33058   33061   33064   33067   33070   33073   33076   33079   33082
   33085   33088   33091   33094   33097   33100   33103   33106   33109   33112
   33115   33118   33121   33124   33127   33130   33133   33136   33139   33142
   33145   33148   33151   33154   33157   33160   33163   33166   33169   33172
   33175   33178   33181   33184   33187   33190   33193   33196   33199   33202
   33205   33208   33211   33214   33217   33220   33223   33226   33229   33232
   33235   33238   33241   33244   33247   33250   33253   33256   33259   33262
   33265   33268   33271   33274   33277   33280   33283   33286   33289   33292
   33295   33298   33301   33304   33307   33310   33313   33316   33319   33322
   33325   33328   33331   33334   33337   33340   33343   33346   33349   33352
   33355   33358   33361   33364   33367   33370   33373   33376   33379   33382
   33385   33388   33391   33394   33397   33400   33403   33406   33409   33412
   33415   33418   33421   33424   33427   33430   33433   33436   33439   33442
   33445   33448   33451   33454   33457   33460   33463   33466   33469   33472
   33475   33478   33481   33484   33487   33490   33493   33496   33499   33502
   33505   33508   33511   33514   33517   33520   33523   33526   33529   33532
   33535   33538   33541   33544   33547   33550   33553   33556   33559   33562
   33565   33568   33571   33574   33577   33580   33583   33586   33589   33592
   33595   33598   33601   33604   33607   33610   33613   33616   33619   33622
   33625   33628   33631   33634   33637   33640   33643   33646   33649   33652
   33655   33658   33661   33664   33667   33670   33673   33676   33679   33682
   33685   33688   33691   33694   33697   33700   33703   33706   33709   33712
   33715   33718   33721   33724   33727   33730   33733   33736   33739   33742
   33745   33748   33751   33754   33757   33760   33763   33766   33769   33772
   33775   33778   33781   33784   33787   33790   33793   33796   33799   33802
   33805   33808   33811   33814   33817   33820   33823   33826   33829   33832
   33835   33838   33841   33844   33847   33850   33853   33856   33859   33862
   33865   33868   33871   33874   33877   33880   33883   33886   33889   33892
   33895   33898   33901   33904   33907   33910   33913   33916   33919   33922
   33925   33928   33931   33934   33937   33940   33943   33946   33949   33952
   33955   33958   33961   33964   33967   33970   33973   33976   33979   33982
   33985   33988   33991   33994   33997   34000   34003   34006   34009   34012
   34015   34018   34021   34024   34027   34030   34033   34036   34039   34042
   34045   34048   34051   34054   34057   34060   34063   34066   34069   34072
   34075   34078   34081   34084   34087   34090   34093   34096   34099   34102
   34105   34108   34111   34114   34117   34120   34123   34126   34129   34132
   34135   34138   34141   34144   34147   34150   34153   34156   34159   34162
   34165   34168   34171   34174   34177   34180   34183   34186   34189   34192
   34195   34198   34201   34204   34207   34210   34213   34216   34219   34222
   34225   34228   34231   34234   34237   34240   34243   34246   34249   34252
   34255   34258   34261   34264   34267   34270   34273   34276   34279   34282
   34285   34288   34291   34294   34297   34300   34303   34306   34309   34312
   34315   34318   34321   34324   34327   34330   34333   34336   34339   34342
   34345   34348   34351   34354   34357   34360   34363   34366   34369   34372
   34375   34378   34381   34384   34387   34390   34393   34396   34399   34402
   34405   34408   34411   34414   34417   34420   34423   34426   34429   34432
   34435   34438   34441   34444   34447   34450   34453   34456   34459   34462
   34465   34468   34471   34474   34477   34480   34483   34486   34489   34492
   34495   34498   34501   34504   34507   34510   34513   34516   34519   34522
   34525   34528   34531   34534   34537   34540   34543   34546   34549   34552
   34555   34558   34561   34564   34567   34570   34573   34576   34579   34582
   34585   34588   34591   34594   34597   34600   34603   34606   34609   34612
   34615   34618   34621   34624   34627   34630   34633   34636   34639   34642
   34645   34648   34651   34654   34657   34660   34663   34666   34669   34672
   34675   34678   34681   34684   34687   34690   34693   34696   34699   34702
   34705   34708   34711   34714   34717   34720   34723   34726   34729   34732
   34735   34738   34741   34744   34747   34750   34753   34756   34759   34762
   34765   34768   34771   34774   34777   34780   34783   34786   34789   34792
   34795   34798   34801   34804   34807   34810   34813   34816   34819   34822
   34825   34828   34831   34834   34837   34840   34843   34846   34849   34852
   34855   34858   34861   34864   34867   34870   34873   34876   34879   34882
   34885   34888   34891   34894   34897   34900   34903   34906   34909   34912
   34915   34918   34921   34924   34927   34930   34933   34936   34939   34942
   34945   34948   34951   34954   34957   34960   34963   34966   34969   34972
   34975   34978   34981   34984   34987   34990   34993   34996   34999   35002
   35005   35008   35011   35014   35017   35020   35023   35026   35029   35032
   35035   35038   35041   35044   35047   35050   35053   35056   35059   35062
   35065   35068   35071   35074   35077   35080   35083   35086   35089   35092
   35095   35098   35101   35104   35107   35110   35113   35116   35119   35122
   35125   35128   35131   35134   35137   35140   35143   35146   35149   35152
   35155   35158   35161   35164   35167   35170   35173   35176   35179   35182
   35185   35188   35191   35194   35197   35200   35203   35206   35209   35212
   35215   35218   35221   35224   35227   35230   35233   35236   35239   35242
   35245   35248   35251   35254   35257   35260   35263   35266   35269   35272
   35275   35278   35281   35284   35287   35290   35293   35296   35299   35302
   35305   35308   35311   35314   35317   35320   35323   35326   35329   35332
   35335   35338   35341   35344   35347   35350   35353   35356   35359   35362
   35365   35368   35371   35374   35377   35380   35383   35386   35389   35392
   35395   35398   35401   35404   35407   35410   35413   35416   35419   35422
   35425   35428   35431   35434   35437   35440   35443   35446   35449   35452
   35455   35458   35461   35464   35467   35470   35473   35476   35479   35482
   35485   35488   35491   35494   35497   35500   35503   35506   35509   35512
   35515   35518   35521   35524   35527   35530   35533   35536   35539   35542
   35545   35548   35551   35554   35557   35560   35563   35566   35569   35572
   35575   35578   35581   35584   35587   35590   35593   35596   35599   35602
   35605   35608   35611   35614   35617   35620   35623   35626   35629   35632
   35635   35638   35641   35644   35647   35650   35653   35656   35659   35662
   35665   35668   35671   35674   35677   35680   35683   35686   35689   35692
   35695   35698   35701   35704   35707   35710   35713   35716   35719   35722
   35725   35728   35731   35734   35737   35740   35743   35746   35749   35752
   35755   35758   35761   35764   35767   35770   35773   35776   35779   35782
   35785   35788   35791   35794   35797   35800   35803   35806   35809   35812
   35815   35818   35821   35824   35827   35830   35833   35836   35839   35842
   35845   35848   35851   35854   35857   35860   35863   35866   35869   35872
   35875   35878   35881   35884   35887   35890   35893   35896   35899   35902
   35905   35908   35911   35914   35917   35920   35923   35926   35929   35932
   35935   35938   35941   35944   35947   35950   35953   35956   35959   35962
   35965   35968   35971   35974   35977   35980   35983   35986   35989   35992
   35995   35998   36001   36004   36007   36010   36013   36016   36019   36022
   36025   36028   36031   36034   36037   36040   36043   36046   36049   36052
   36055   36058   36061   36064   36067   36070   36073   36076   36079   36082
   36085   36088   36091   36094   36097   36100   36103   36106   36109   36112
   36115   36118   36121   36124   36127   36130   36133   36136   36139   36142
   36145   36148   36151   36154   36157   36160   36163   36166   36169   36172
   36175   36178   36181   36184   36187   36190   36193   36196   36199   36202
   36205   36208   36211   36214   36217   36220   36223   36226   36229   36232
   36235   36238   36241   36244   36247   36250   36253   36256   36259   36262
   36265   36268   36271   36274   36277   36280   36283   36286   36289   36292
   36295   36298   36301   36304   36307   36310   36313   36316   36319   36322
   36325   36328   36331   36334   36337   36340   36343   36346   36349   36352
   36355   36358   36361   36364   36367   36370   36373   36376   36379   36382
   36385   36388   36391   36394   36397   36400   36403   36406   36409   36412
   36415   36418   36421   36424   36427   36430   36433   36436   36439   36442
   36445   36448   36451   36454   36457   36460   36463   36466   36469   36472
   36475   36478   36481   36484   36487   36490   36493   36496   36499   36502
   36505   36508   36511   36514   36517   36520   36523   36526   36529   36532
   36535   36538   36541   36544   36547   36550   36553   36556   36559   36562
   36565   36568   36571   36574   36577   36580   36583   36586   36589   36592
   36595   36598   36601   36604   36607   36610   36613   36616   36619   36622
   36625   36628   36631   36634   36637   36640   36643   36646   36649   36652
   36655   36658   36661   36664   36667   36670   36673   36676   36679   36682
   36685   36688   36691   36694   36697   36700   36703   36706   36709   36712
   36715   36718   36721   36724   36727   36730   36733   36736   36739   36742
   36745   36748   36751   36754   36757   36760   36763   36766   36769   36772
   36775   36778   36781   36784   36787   36790   36793   36796   36799   36802
   36805   36808   36811   36814   36817   36820   36823   36826   36829   36832
   36835   36838   36841   36844   36847   36850   36853   36856   36859   36862
   36865   36868   36871   36874   36877   36880   36883   36886   36889   36892
   36895   36898   36901   36904   36907   36910   36913   36916   36919   36922
   36925   36928   36931   36934   36937   36940   36943   36946   36949   36952
   36955   36958   36961   36964   36967   36970   36973   36976   36979   36982
   36985   36988   36991   36994   36997   37000   37003   37006   37009   37012
   37015   37018   37021   37024   37027   37030   37033   37036   37039   37042
   37045   37048   37051   37054   37057   37060   37063   37066   37069   37072
   37075   37078   37081   37084   37087   37090   37093   37096   37099   37102
   37105   37108   37111   37114   37117   37120   37123   37126   37129   37132
   37135   37138   37141   37144   37147   37150   37153   37156   37159   37162
   37165   37168   37171   37174   37177   37180   37183   37186   37189   37192
   37195   37198   37201   37204   37207   37210   37213   37216   37219   37222
   37225   37228   37231   37234   37237   37240   37243   37246   37249   37252
   37255   37258   37261   37264   37267   37270   37273   37276   37279   37282
   37285   37288   37291   37294   37297   37300   37303   37306   37309   37312
   37315   37318   37321   37324   37327   37330   37333   37336   37339   37342
   37345   37348   37351   37354   37357   37360   37363   37366   37369   37372
   37375   37378   37381   37384   37387   37390   37393   37396   37399   37402
   37405   37408   37411   37414   37417   37420   37423   37426   37429   37432
   37435   37438   37441   37444   37447   37450   37453   37456   37459   37462
   37465   37468   37471   37474   37477   37480   37483   37486   37489   37492
   37495   37498   37501   37504   37507   37510   37513   37516   37519   37522
   37525   37528   37531   37534   37537   37540   37543   37546   37549   37552
   37555   37558   37561   37564   37567   37570   37573   37576   37579   37582
   37585   37588   37591   37594   37597   37600   37603   37606   37609   37612
   37615   37618   37621   37624   37627   37630   37633   37636   37639   37642
   37645   37648   37651   37654   37657   37660   37663   37666   37669   37672
   37675   37678   37681   37684   37687   37690   37693   37696   37699   37702
   37705   37708   37711   37714   37717   37720   37723   37726   37729   37732
   37735   37738   37741   37744   37747   37750   37753   37756   37759   37762
   37765   37768   37771   37774   37777   37780   37783   37786   37789   37792
   37795   37798   37801   37804   37807   37810   37813   37816   37819   37822
   37825   37828   37831   37834   37837   37840   37843   37846   37849   37852
   37855   37858   37861   37864   37867   37870   37873   37876   37879   37882
   37885   37888   37891   37894   37897   37900   37903   37906   37909   37912
   37915   37918   37921   37924   37927   37930   37933   37936   37939   37942
   37945   37948   37951   37954   37957   37960   37963   37966   37969   37972
   37975   37978   37981   37984   37987   37990   37993   37996   37999   38002
   38005   38008   38011   38014   38017   38020   38023   38026   38029   38032
   38035   38038   38041   38044   38047   38050   38053   38056   38059   38062
   38065   38068   38071   38074   38077   38080   38083   38086   38089   38092
   38095   38098   38101   38104   38107   38110   38113   38116   38119   38122
   38125   38128   38131   38134   38137   38140   38143   38146   38149   38152
   38155   38158   38161   38164   38167   38170   38173   38176   38179   38182
   38185   38188   38191   38194   38197   38200   38203   38206   38209   38212
   38215   38218   38221   38224   38227   38230   38233   38236   38239   38242
   38245   38248   38251   38254   38257   38260   38263   38266   38269   38272
   38275   38278   38281   38284   38287   38290   38293   38296   38299   38302
   38305   38308   38311   38314   38317   38320   38323   38326   38329   38332
   38335   38338   38341   38344   38347   38350   38353   38356   38359   38362
   38365   38368   38371   38374   38377   38380   38383   38386   38389   38392
   38395   38398   38401   38404   38407   38410   38413   38416   38419   38422
   38425   38428   38431   38434   38437   38440   38443   38446   38449   38452
   38455   38458   38461   38464   38467   38470   38473   38476   38479   38482
   38485   38488   38491   38494   38497   38500   38503   38506   38509   38512
   38515   38518   38521   38524   38527   38530   38533   38536   38539   38542
   38545   38548   38551   38554   38557   38560   38563   38566   38569   38572
   38575   38578   38581   38584   38587   38590   38593   38596   38599   38602
   38605   38608   38611   38614   38617   38620   38623   38626   38629   38632
   38635   38638   38641   38644   38647   38650   38653   38656   38659   38662
   38665   38668   38671   38674   38677   38680   38683   38686   38689   38692
   38695   38698   38701   38704   38707   38710   38713   38716   38719   38722
   38725   38728   38731   38734   38737   38740   38743   38746   38749   38752
   38755   38758   38761   38764   38767   38770   38773   38776   38779   38782
   38785   38788   38791   38794   38797   38800   38803   38806   38809   38812
   38815   38818   38821   38824   38827   38830   38833   38836   38839   38842
   38845   38848   38851   38854   38857   38860   38863   38866   38869   38872
   38875   38878   38881   38884   38887   38890   38893   38896   38899   38902
   38905   38908   38911   38914   38917   38920   38923   38926   38929   38932
   38935   38938   38941   38944   38947   38950   38953   38956   38959   38962
   38965   38968   38971   38974   38977   38980   38983   38986   38989   38992
   38995   38998   39001   39004   39007   39010   39013   39016   39019   39022
   39025   39028   39031   39034   39037   39040   39043   39046   39049   39052
   39055   39058   39061   39064   39067   39070   39073   39076   39079   39082
   39085   39088   39091   39094   39097   39100   39103   39106   39109   39112
   39115   39118   39121   39124   39127   39130   39133   39136   39139   39142
   39145   39148   39151   39154   39157   39160   39163   39166   39169   39172
   39175   39178   39181   39184   39187   39190   39193   39196   39199   39202
   39205   39208   39211   39214   39217   39220   39223   39226   39229   39232
   39235   39238   39241   39244   39247   39250   39253   39256   39259   39262
   39265   39268   39271   39274   39277   39280   39283   39286   39289   39292
   39295   39298   39301   39304   39307   39310   39313   39316   39319   39322
   39325   39328   39331   39334   39337   39340   39343   39346   39349   39352
   39355   39358   39361   39364   39367   39370   39373   39376   39379   39382
   39385   39388   39391   39394   39397   39400   39403   39406   39409   39412
   39415   39418   39421   39424   39427   39430   39433   39436   39439   39442
   39445   39448   39451   39454   39457   39460   39463   39466   39469   39472
   39475   39478   39481   39484   39487   39490   39493   39496   39499   39502
   39505   39508   39511   39514   39517   39520   39523   39526   39529   39532
   39535   39538   39541   39544   39547   39550   39553   39556   39559   39562
   39565   39568   39571   39574   39577   39580   39583   39586   39589   39592
   39595   39598   39601   39604   39607   39610   39613   39616   39619   39622
   39625   39628   39631   39634   39637   39640   39643   39646   39649   39652
   39655   39658   39661   39664   39667   39670   39673   39676   39679   39682
   39685   39688   39691   39694   39697   39700   39703   39706   39709   39712
   39715   39718   39721   39724   39727   39730   39733   39736   39739   39742
   39745   39748   39751   39754   39757   39760   39763   39766   39769   39772
   39775   39778   39781   39784   39787   39790   39793   39796   39799   39802
   39805   39808   39811   39814   39817   39820   39823   39826   39829   39832
   39835   39838   39841   39844   39847   39850   39853   39856   39859   39862
   39865   39868   39871   39874   39877   39880   39883   39886   39889   39892
   39895   39898   39901   39904   39907   39910   39913   39916   39919   39922
   39925   39928   39931   39934   39937   39940   39943   39946   39949   39952
   39955   39958   39961   39964   39967   39970   39973   39976   39979   39982
   39985   39988   39991   39994   39997   40000   40003   40006   40009   40012
   40015   40018   40021   40024   40027   40030   40033   40036   40039   40042
   40045   40048   40051   40054   40057   40060   40063   40066   40069   40072
   40075   40078   40081   40084   40087   40090   40093   40096   40099   40102
   40105   40108   40111   40114   40117   40120   40123   40126   40129   40132
   40135   40138   40141   40144   40147   40150   40153   40156   40159   40162
   40165   40168   40171   40174   40177   40180   40183   40186   40189   40192
   40195   40198   40201   40204   40207   40210   40213   40216   40219   40222
   40225   40228   40231   40234   40237   40240   40243   40246   40249   40252
   40255   40258   40261   40264   40267   40270   40273   40276   40279   40282
   40285   40288   40291   40294   40297   40300   40303   40306   40309   40312
   40315   40318   40321   40324   40327   40330   40333   40336   40339   40342
   40345   40348   40351   40354   40357   40360   40363   40366   40369   40372
   40375   40378   40381   40384   40387   40390   40393   40396   40399   40402
   40405   40408   40411   40414   40417   40420   40423   40426   40429   40432
   40435   40438   40441   40444   40447   40450   40453   40456   40459   40462
   40465   40468   40471   40474   40477   40480   40483   40486   40489   40492
   40495   40498   40501   40504   40507   40510   40513   40516   40519   40522
   40525   40528   40531   40534   40537   40540   40543   40546   40549   40552
   40555   40558   40561   40564   40567   40570   40573   40576   40579   40582
   40585   40588   40591   40594   40597   40600   40603   40606   40609   40612
   40615   40618   40621   40624   40627   40630   40633   40636   40639   40642
   40645   40648   40651   40654   40657   40660   40663   40666   40669   40672
   40675   40678   40681   40684   40687   40690   40693   40696   40699   40702
   40705   40708   40711   40714   40717   40720   40723   40726   40729   40732
   40735   40738   40741   40744   40747   40750   40753   40756   40759   40762
   40765   40768   40771   40774   40777   40780   40783   40786   40789   40792
   40795   40798   40801   40804   40807   40810   40813   40816   40819   40822
   40825   40828   40831   40834   40837   40840   40843   40846   40849   40852
   40855   40858   40861   40864   40867   40870   40873   40876   40879   40882
   40885   40888   40891   40894   40897   40900   40903   40906   40909   40912
   40915   40918   40921   40924   40927   40930   40933   40936   40939   40942
   40945   40948   40951   40954   40957   40960   40963   40966   40969   40972
   40975   40978   40981   40984   40987   40990   40993   40996   40999   41002
   41005   41008   41011   41014   41017   41020   41023   41026   41029   41032
   41035   41038   41041   41044   41047   41050   41053   41056   41059   41062
   41065   41068   41071   41074   41077   41080   41083   41086   41089   41092
   41095   41098   41101   41104   41107   41110   41113   41116   41119   41122
   41125   41128   41131   41134   41137   41140   41143   41146   41149   41152
   41155   41158   41161   41164   41167   41170   41173   41176   41179   41182
   41185   41188   41191   41194   41197   41200   41203   41206   41209   41212
   41215   41218   41221   41224   41227   41230   41233   41236   41239   41242
   41245   41248   41251   41254   41257   41260   41263   41266   41269   41272
   41275   41278   41281   41284   41287   41290   41293   41296   41299   41302
   41305   41308   41311   41314   41317   41320   41323   41326   41329   41332
   41335   41338   41341   41344   41347   41350   41353   41356   41359   41362
   41365   41368   41371   41374   41377   41380   41383   41386   41389   41392
   41395   41398   41401   41404   41407   41410   41413   41416   41419   41422
   41425   41428   41431   41434   41437   41440   41443   41446   41449   41452
   41455   41458   41461   41464   41467   41470   41473   41476   41479   41482
   41485   41488   41491   41494   41497   41500   41503   41506   41509   41512
   41515   41518   41521   41524   41527   41530   41533   41536   41539   41542
   41545   41548   41551   41554   41557   41560   41563   41566   41569   41572
   41575   41578   41581   41584   41587   41590   41593   41596   41599   41602
   41605   41608   41611   41614   41617   41620   41623   41626   41629   41632
   41635   41638   41641   41644   41647   41650   41653   41656   41659   41662
   41665   41668   41671   41674   41677   41680   41683   41686   41689   41692
   41695   41698   41701   41704   41707   41710   41713   41716   41719   41722
   41725   41728   41731   41734   41737   41740   41743   41746   41749   41752
   41755   41758   41761   41764   41767   41770   41773   41776   41779   41782
   41785   41788   41791   41794   41797   41800   41803   41806   41809   41812
   41815   41818   41821   41824   41827   41830   41833   41836   41839   41842
   41845   41848   41851   41854   41857   41860   41863   41866   41869   41872
   41875   41878   41881   41884   41887   41890   41893   41896   41899   41902
   41905   41908   41911   41914   41917   41920   41923   41926   41929   41932
   41935   41938   41941   41944   41947   41950   41953   41956   41959   41962
   41965   41968   41971   41974   41977   41980   41983   41986   41989   41992
   41995   41998   42001   42004   42007   42010   42013   42016   42019   42022
   42025   42028   42031   42034   42037   42040   42043   42046   42049   42052
   42055   42058   42061   42064   42067   42070   42073   42076   42079   42082
   42085   42088   42091   42094   42097   42100   42103   42106   42109   42112
   42115   42118   42121   42124   42127   42130   42133   42136   42139   42142
   42145   42148   42151   42154   42157   42160   42163   42166   42169   42172
   42175   42178   42181   42184   42187   42190   42193   42196   42199   42202
   42205   42208   42211   42214   42217   42220   42223   42226   42229   42232
   42235   42238   42241   42244   42247   42250   42253   42256   42259   42262
   42265   42268   42271   42274   42277   42280   42283   42286   42289   42292
   42295   42298   42301   42304   42307   42310   42313   42316   42319   42322
   42325   42328   42331   42334   42337   42340   42343   42346   42349   42352
   42355   42358   42361   42364   42367   42370   42373   42376   42379   42382
   42385   42388   42391   42394   42397   42400   42403   42406   42409   42412
   42415   42418   42421   42424   42427   42430   42433   42436   42439   42442
   42445   42448   42451   42454   42457   42460   42463   42466   42469   42472
   42475   42478   42481   42484   42487   42490   42493   42496   42499   42502
   42505   42508   42511   42514   42517   42520   42523   42526   42529   42532
   42535   42538   42541   42544   42547   42550   42553   42556   42559   42562
   42565   42568   42571   42574   42577   42580   42583   42586   42589   42592
   42595   42598   42601   42604   42607   42610   42613   42616   42619   42622
   42625   42628   42631   42634   42637   42640   42643   42646   42649   42652
   42655   42658   42661   42664   42667   42670   42673   42676   42679   42682
   42685   42688   42691   42694   42697   42700   42703   42706   42709   42712
   42715   42718   42721   42724   42727   42730   42733   42736   42739   42742
   42745   42748   42751   42754   42757   42760   42763   42766   42769   42772
   42775   42778   42781   42784   42787   42790   42793   42796   42799   42802
   42805   42808   42811   42814   42817   42820   42823   42826   42829   42832
   42835   42838   42841   42844   42847   42850   42853   42856   42859   42862
   42865   42868   42871   42874   42877   42880   42883   42886   42889   42892
   42895   42898   42901   42904   42907   42910   42913   42916   42919   42922
   42925   42928   42931   42934   42937   42940   42943   42946   42949   42952
   42955   42958   42961   42964   42967   42970   42973   42976   42979   42982
   42985   42988   42991   42994   42997   43000   43003   43006   43009   43012
   43015   43018   43021   43024   43027   43030   43033   43036   43039   43042
   43045   43048   43051   43054   43057   43060   43063   43066   43069   43072
   43075   43078   43081   43084   43087   43090   43093   43096   43099   43102
   43105   43108   43111   43114   43117   43120   43123   43126   43129   43132
   43135   43138   43141   43144   43147   43150   43153   43156   43159   43162
   43165   43168   43171   43174   43177   43180   43183   43186   43189   43192
   43195   43198   43201   43204   43207   43210   43213   43216   43219   43222
   43225   43228   43231   43234   43237   43240   43243   43246   43249   43252
   43255   43258   43261   43264   43267   43270   43273   43276   43279   43282
   43285   43288   43291   43294   43297   43300   43303   43306   43309   43312
   43315   43318   43321   43324   43327   43330   43333   43336   43339   43342
   43345   43348   43351   43354   43357   43360   43363   43366   43369   43372
   43375   43378   43381   43384   43387   43390   43393   43396   43399   43402
   43405   43408   43411   43414   43417   43420   43423   43426   43429   43432
   43435   43438   43441   43444   43447   43450   43453   43456   43459   43462
   43465   43468   43471   43474   43477   43480   43483   43486   43489   43492
   43495   43498   43501   43504   43507   43510   43513   43516   43519   43522
   43525   43528   43531   43534   43537   43540   43543   43546   43549   43552
   43555   43558   43561   43564   43567   43570   43573   43576   43579   43582
   43585   43588   43591   43594   43597   43600   43603   43606   43609   43612
   43615   43618   43621   43624   43627   43630   43633   43636   43639   43642
   43645   43648   43651   43654   43657   43660   43663   43666   43669   43672
   43675   43678   43681   43684   43687   43690   43693   43696   43699   43702
   43705   43708   43711   43714   43717   43720   43723   43726   43729   43732
   43735   43738   43741   43744   43747   43750   43753   43756   43759   43762
   43765   43768   43771   43774   43777   43780   43783   43786   43789   43792
   43795   43798   43801   43804   43807   43810   43813   43816   43819   43822
   43825   43828   43831   43834   43837   43840   43843   43846   43849   43852
   43855   43858   43861   43864   43867   43870   43873   43876   43879   43882
   43885   43888   43891   43894   43897   43900   43903   43906   43909   43912
   43915   43918   43921   43924   43927   43930   43933   43936   43939   43942
   43945   43948   43951   43954   43957   43960   43963   43966   43969   43972
   43975   43978   43981   43984   43987   43990   43993   43996   43999   44002
   44005   44008   44011   44014   44017   44020   44023   44026   44029   44032
   44035   44038   44041   44044   44047   44050   44053   44056   44059   44062
   44065   44068   44071   44074   44077   44080   44083   44086   44089   44092
   44095   44098   44101   44104   44107   44110   44113   44116   44119   44122
   44125   44128   44131   44134   44137   44140   44143   44146   44149   44152
   44155   44158   44161   44164   44167   44170   44173   44176   44179   44182
   44185   44188   44191   44194   44197   44200   44203   44206   44209   44212
   44215   44218   44221   44224   44227   44230   44233   44236   44239   44242
   44245   44248   44251   44254   44257   44260   44263   44266   44269   44272
   44275   44278   44281   44284   44287   44290   44293   44296   44299   44302
   44305   44308   44311   44314   44317   44320   44323   44326   44329   44332
   44335   44338   44341   44344   44347   44350   44353   44356   44359   44362
   44365   44368   44371   44374   44377   44380   44383   44386   44389   44392
   44395   44398   44401   44404   44407   44410   44413   44416   44419   44422
   44425   44428   44431   44434   44437   44440   44443   44446   44449   44452
   44455   44458   44461   44464   44467   44470   44473   44476   44479   44482
   44485   44488   44491   44494   44497   44500   44503   44506   44509   44512
   44515   44518   44521   44524   44527   44530   44533   44536   44539   44542
   44545   44548   44551   44554   44557   44560   44563   44566   44569   44572
   44575   44578   44581   44584   44587   44590   44593   44596   44599   44602
   44605   44608   44611   44614   44617   44620   44623   44626   44629   44632
   44635   44638   44641   44644   44647   44650   44653   44656   44659   44662
   44665   44668   44671   44674   44677   44680   44683   44686   44689   44692
   44695   44698   44701   44704   44707   44710   44713   44716   44719   44722
   44725   44728   44731   44734   44737   44740   44743   44746   44749   44752
   44755   44758   44761   44764   44767   44770   44773   44776   44779   44782
   44785   44788   44791   44794   44797   44800   44803   44806   44809   44812
   44815   44818   44821   44824   44827   44830   44833   44836   44839   44842
   44845   44848   44851   44854   44857   44860   44863   44866   44869   44872
   44875   44878   44881   44884   44887   44890   44893   44896   44899   44902
   44905   44908   44911   44914   44917   44920   44923   44926   44929   44932
   44935   44938   44941   44944   44947   44950   44953   44956   44959   44962
   44965   44968   44971   44974   44977   44980   44983   44986   44989   44992
   44995   44998   45001   45004   45007   45010   45013   45016   45019   45022
   45025   45028   45031   45034   45037   45040   45043   45046   45049   45052
   45055   45058   45061   45064   45067   45070   45073   45076   45079   45082
   45085   45088   45091   45094   45097   45100   45103   45106   45109   45112
   45115   45118   45121   45124   45127   45130   45133   45136   45139   45142
   45145   45148   45151   45154   45157   45160   45163   45166   45169   45172
   45175   45178   45181   45184   45187   45190   45193   45196   45199   45202
   45205   45208   45211   45214   45217   45220   45223   45226   45229   45232
   45235   45238   45241   45244   45247   45250   45253   45256   45259   45262
   45265   45268   45271   45274   45277   45280   45283   45286   45289   45292
   45295   45298   45301   45304   45307   45310   45313   45316   45319   45322
   45325   45328   45331   45334   45337   45340   45343   45346   45349   45352
   45355   45358   45361   45364   45367   45370   45373   45376   45379   45382
   45385   45388   45391   45394   45397   45400   45403   45406   45409   45412
   45415   45418   45421   45424   45427   45430   45433   45436   45439   45442
   45445   45448   45451   45454   45457   45460   45463   45466   45469   45472
   45475   45478   45481   45484   45487   45490   45493   45496   45499   45502
   45505   45508   45511   45514   45517   45520   45523   45526   45529   45532
   45535   45538   45541   45544   45547   45550   45553   45556   45559   45562
   45565   45568   45571   45574   45577   45580   45583   45586   45589   45592
   45595   45598   45601   45604   45607   45610   45613   45616   45619   45622
   45625   45628   45631   45634   45637   45640   45643   45646   45649   45652
   45655   45658   45661   45664   45667   45670   45673   45676   45679   45682
   45685   45688   45691   45694   45697   45700   45703   45706   45709   45712
   45715   45718   45721   45724   45727   45730   45733   45736   45739   45742
   45745   45748   45751   45754   45757   45760   45763   45766   45769   45772
   45775   45778   45781   45784   45787   45790   45793   45796   45799   45802
   45805   45808   45811   45814   45817   45820   45823   45826   45829   45832
   45835   45838   45841   45844   45847   45850   45853   45856   45859   45862
   45865   45868   45871   45874   45877   45880   45883   45886   45889   45892
   45895   45898   45901   45904   45907   45910   45913   45916   45919   45922
   45925   45928   45931   45934   45937   45940   45943   45946   45949   45952
   45955   45958   45961   45964   45967   45970   45973   45976   45979   45982
   45985   45988   45991   45994   45997   46000   46003   46006   46009   46012
   46015   46018   46021   46024   46027   46030   46033   46036   46039   46042
   46045   46048   46051   46054   46057   46060   46063   46066   46069   46072
   46075   46078   46081   46084   46087   46090   46093   46096   46099   46102
   46105   46108   46111   46114   46117   46120   46123   46126   46129   46132
   46135   46138   46141   46144   46147   46150   46153   46156   46159   46162
   46165   46168   46171   46174   46177   46180   46183   46186   46189   46192
   46195   46198   46201   46204   46207   46210   46213   46216   46219   46222
   46225   46228   46231   46234   46237   46240   46243   46246   46249   46252
   46255   46258   46261   46264   46267   46270   46273   46276   46279   46282
   46285   46288   46291   46294   46297   46300   46303   46306   46309   46312
   46315   46318   46321   46324   46327   46330   46333   46336   46339   46342
   46345   46348   46351   46354   46357   46360   46363   46366   46369   46372
   46375   46378   46381   46384   46387   46390   46393   46396   46399   46402
   46405   46408   46411   46414   46417   46420   46423   46426   46429   46432
   46435   46438   46441   46444   46447   46450   46453   46456   46459   46462
   46465   46468   46471   46474   46477   46480   46483   46486   46489   46492
   46495   46498   46501   46504   46507   46510   46513   46516   46519   46522
   46525   46528   46531   46534   46537   46540   46543   46546   46549   46552
   46555   46558   46561   46564   46567   46570   46573   46576   46579   46582
   46585   46588   46591   46594   46597   46600   46603   46606   46609   46612
   46615   46618   46621   46624   46627   46630   46633   46636   46639   46642
   46645   46648   46651   46654   46657   46660   46663   46666   46669   46672
   46675   46678   46681   46684   46687   46690   46693   46696   46699   46702
   46705   46708   46711   46714   46717   46720   46723   46726   46729   46732
   46735   46738   46741   46744   46747   46750   46753   46756   46759   46762
   46765   46768   46771   46774   46777   46780   46783   46786   46789   46792
   46795   46798   46801   46804   46807   46810   46813   46816   46819   46822
   46825   46828   46831   46834   46837   46840   46843   46846   46849   46852
   46855   46858   46861   46864   46867   46870   46873   46876   46879   46882
   46885   46888   46891   46894   46897   46900   46903   46906   46909   46912
   46915   46918   46921   46924   46927   46930   46933   46936   46939   46942
   46945   46948   46951   46954   46957   46960   46963   46966   46969   46972
   46975   46978   46981   46984   46987   46990   46993   46996   46999   47002
   47005   47008   47011   47014   47017   47020   47023   47026   47029   47032
   47035   47038   47041   47044   47047   47050   47053   47056   47059   47062
   47065   47068   47071   47074   47077   47080   47083   47086   47089   47092
   47095   47098   47101   47104   47107   47110   47113   47116   47119   47122
   47125   47128   47131   47134   47137   47140   47143   47146   47149   47152
   47155   47158   47161   47164   47167   47170   47173   47176   47179   47182
   47185   47188   47191   47194   47197   47200   47203   47206   47209   47212
   47215   47218   47221   47224   47227   47230   47233   47236   47239   47242
   47245   47248   47251   47254   47257   47260   47263   47266   47269   47272
   47275   47278   47281   47284   47287   47290   47293   47296   47299   47302
   47305   47308   47311   47314   47317   47320   47323   47326   47329   47332
   47335   47338   47341   47344   47347   47350   47353   47356   47359   47362
   47365   47368   47371   47374   47377   47380   47383   47386   47389   47392
   47395   47398   47401   47404   47407   47410   47413   47416   47419   47422
   47425   47428   47431   47434   47437   47440   47443   47446   47449   47452
   47455   47458   47461   47464   47467   47470   47473   47476   47479   47482
   47485   47488   47491   47494   47497   47500   47503   47506   47509   47512
   47515   47518   47521   47524   47527   47530   47533   47536   47539   47542
   47545   47548   47551   47554   47557   47560   47563   47566   47569   47572
   47575   47578   47581   47584   47587   47590   47593   47596   47599   47602
   47605   47608   47611   47614   47617   47620   47623   47626   47629   47632
   47635   47638   47641   47644   47647   47650   47653   47656   47659   47662
   47665   47668   47671   47674   47677   47680   47683   47686   47689   47692
   47695   47698   47701   47704   47707   47710   47713   47716   47719   47722
   47725   47728   47731   47734   47737   47740   47743   47746   47749   47752
   47755   47758   47761   47764   47767   47770   47773   47776   47779   47782
   47785   47788   47791   47794   47797   47800   47803   47806   47809   47812
   47815   47818   47821   47824   47827   47830   47833   47836   47839   47842
   47845   47848   47851   47854   47857   47860   47863   47866   47869   47872
   47875   47878   47881   47884   47887   47890   47893   47896   47899   47902
   47905   47908   47911   47914   47917   47920   47923   47926   47929   47932
   47935   47938   47941   47944   47947   47950   47953   47956   47959   47962
   47965   47968   47971   47974   47977   47980   47983   47986   47989   47992
   47995   47998   48001   48004   48007   48010   48013   48016   48019   48022
   48025   48028   48031   48034   48037   48040   48043   48046   48049   48052
   48055   48058   48061   48064   48067   48070   48073   48076   48079   48082
   48085   48088   48091   48094   48097   48100   48103   48106   48109   48112
   48115   48118   48121   48124   48127   48130   48133   48136   48139   48142
   48145   48148   48151   48154   48157   48160   48163   48166   48169   48172
   48175   48178   48181   48184   48187   48190   48193   48196   48199   48202
   48205   48208   48211   48214   48217   48220   48223   48226   48229   48232
   48235   48238   48241   48244   48247   48250   48253   48256   48259   48262
   48265   48268   48271   48274   48277   48280   48283   48286   48289   48292
   48295   48298   48301   48304   48307   48310   48313   48316   48319   48322
   48325   48328   48331   48334   48337   48340   48343   48346   48349   48352
   48355   48358   48361   48364   48367   48370   48373   48376   48379   48382
   48385   48388   48391   48394   48397   48400   48403   48406   48409   48412
   48415   48418   48421   48424   48427   48430   48433   48436   48439   48442
   48445   48448   48451   48454   48457   48460   48463   48466   48469   48472
   48475   48478   48481   48484   48487   48490   48493   48496   48499   48502
   48505   48508   48511   48514   48517   48520   48523   48526   48529   48532
   48535   48538   48541   48544   48547   48550   48553   48556   48559   48562
   48565   48568   48571   48574   48577   48580   48583   48586   48589   48592
   48595   48598   48601   48604   48607   48610   48613   48616   48619   48622
   48625   48628   48631   48634   48637   48640   48643   48646   48649   48652
   48655   48658   48661   48664   48667   48670   48673   48676   48679   48682
   48685   48688   48691   48694   48697   48700   48703   48706   48709   48712
   48715   48718   48721   48724   48727   48730   48733   48736   48739   48742
   48745   48748   48751   48754   48757   48760   48763   48766   48769   48772
   48775   48778   48781   48784   48787   48790   48793   48796   48799   48802
   48805   48808   48811   48814   48817   48820   48823   48826   48829   48832
   48835   48838   48841   48844   48847   48850   48853   48856   48859   48862
   48865   48868   48871   48874   48877   48880   48883   48886   48889   48892
   48895   48898   48901   48904   48907   48910   48913   48916   48919   48922
   48925   48928   48931   48934   48937   48940   48943   48946   48949   48952
   48955   48958   48961   48964   48967   48970   48973   48976   48979   48982
   48985   48988   48991   48994   48997   49000   49003   49006   49009   49012
   49015   49018   49021   49024   49027   49030   49033   49036   49039   49042
   49045   49048   49051   49054   49057   49060   49063   49066   49069   49072
   49075   49078   49081   49084   49087   49090   49093   49096   49099   49102
   49105   49108   49111   49114   49117   49120   49123   49126   49129   49132
   49135   49138   49141   49144   49147   49150   49153   49156   49159   49162
   49165   49168   49171   49174   49177   49180   49183   49186   49189   49192
   49195   49198   49201   49204   49207   49210   49213   49216   49219   49222
   49225   49228   49231   49234   49237   49240   49243   49246   49249   49252
   49255   49258   49261   49264   49267   49270   49273   49276   49279   49282
   49285   49288   49291   49294   49297   49300   49303   49306   49309   49312
   49315   49318   49321   49324   49327   49330   49333   49336   49339   49342
   49345   49348   49351   49354   49357   49360   49363   49366   49369   49372
   49375   49378   49381   49384   49387   49390   49393   49396   49399   49402
   49405   49408   49411   49414   49417   49420   49423   49426   49429   49432
   49435   49438   49441   49444   49447   49450   49453   49456   49459   49462
   49465   49468   49471   49474   49477   49480   49483   49486   49489   49492
   49495   49498   49501   49504   49507   49510   49513   49516   49519   49522
   49525   49528   49531   49534   49537   49540   49543   49546   49549   49552
   49555   49558   49561   49564   49567   49570   49573   49576   49579   49582
   49585   49588   49591   49594   49597   49600   49603   49606   49609   49612
   49615   49618   49621   49624   49627   49630   49633   49636   49639   49642
   49645   49648   49651   49654   49657   49660   49663   49666   49669   49672
   49675   49678   49681   49684   49687   49690   49693   49696   49699   49702
   49705   49708   49711   49714   49717   49720   49723   49726   49729   49732
   49735   49738   49741   49744   49747   49750   49753   49756   49759   49762
   49765   49768   49771   49774   49777   49780   49783   49786   49789   49792
   49795   49798   49801   49804   49807   49810   49813   49816   49819   49822
   49825   49828   49831   49834   49837   49840   49843   49846   49849   49852
   49855   49858   49861   49864   49867   49870   49873   49876   49879   49882
   49885   49888   49891   49894   49897   49900   49903   49906   49909   49912
   49915   49918   49921   49924   49927   49930   49933   49936   49939   49942
   49945   49948   49951   49954   49957   49960   49963   49966   49969   49972
   49975   49978   49981   49984   49987   49990   49993   49996   49999   50002
   50005   50008   50011   50014   50017   50020   50023   50026   50029   50032
   50035   50038   50041   50044   50047   50050   50053   50056   50059   50062
   50065   50068   50071   50074   50077   50080   50083   50086   50089   50092
   50095   50098   50101   50104   50107   50110   50113   50116   50119   50122
   50125   50128   50131   50134   50137   50140   50143   50146   50149   50152
   50155   50158   50161   50164   50167   50170   50173   50176   50179   50182
   50185   50188   50191   50194   50197   50200   50203   50206   50209   50212
   50215   50218   50221   50224   50227   50230   50233   50236   50239   50242
   50245   50248   50251   50254   50257   50260   50263   50266   50269   50272
   50275   50278   50281   50284   50287   50290   50293   50296   50299   50302
   50305   50308   50311   50314   50317   50320   50323   50326   50329   50332
   50335   50338   50341   50344   50347   50350   50353   50356   50359   50362
   50365   50368   50371   50374   50377   50380   50383   50386   50389   50392
   50395   50398   50401   50404   50407   50410   50413   50416   50419   50422
   50425   50428   50431   50434   50437   50440   50443   50446   50449   50452
   50455   50458   50461   50464   50467   50470   50473   50476   50479   50482
   50485   50488   50491   50494   50497   50500   50503   50506   50509   50512
   50515   50518   50521   50524   50527   50530   50533   50536   50539   50542
   50545   50548   50551   50554   50557   50560   50563   50566   50569   50572
   50575   50578   50581   50584   50587   50590   50593   50596   50599   50602
   50605   50608   50611   50614   50617   50620   50623   50626   50629   50632
   50635   50638   50641   50644   50647   50650   50653   50656   50659   50662
   50665   50668   50671   50674   50677   50680   50683   50686   50689   50692
   50695   50698   50701   50704   50707   50710   50713   50716   50719   50722
   50725   50728   50731   50734   50737   50740   50743   50746   50749   50752
   50755   50758   50761   50764   50767   50770   50773   50776   50779   50782
   50785   50788   50791   50794   50797   50800   50803   50806   50809   50812
   50815   50818   50821   50824   50827   50830   50833   50836   50839   50842
   50845   50848   50851   50854   50857   50860   50863   50866   50869   50872
   50875   50878   50881   50884   50887   50890   50893   50896   50899   50902
   50905   50908   50911   50914   50917   50920   50923   50926   50929   50932
   50935   50938   50941   50944   50947   50950   50953   50956   50959   50962
   50965   50968   50971   50974   50977   50980   50983   50986   50989   50992
   50995   50998   51001   51004   51007   51010   51013   51016   51019   51022
   51025   51028   51031   51034   51037   51040   51043   51046   51049   51052
   51055   51058   51061   51064   51067   51070   51073   51076   51079   51082
   51085   51088   51091   51094   51097   51100   51103   51106   51109   51112
   51115   51118   51121   51124   51127   51130   51133   51136   51139   51142
   51145   51148   51151   51154   51157   51160   51163   51166   51169   51172
   51175   51178   51181   51184   51187   51190   51193   51196   51199   51202
   51205   51208   51211   51214   51217   51220   51223   51226   51229   51232
   51235   51238   51241   51244   51247   51250   51253   51256   51259   51262
   51265   51268   51271   51274   51277   51280   51283   51286   51289   51292
   51295   51298   51301   51304   51307   51310   51313   51316   51319   51322
   51325   51328   51331   51334   51337   51340   51343   51346   51349   51352
   51355   51358   51361   51364   51367   51370   51373   51376   51379   51382
   51385   51388   51391   51394   51397   51400   51403   51406   51409   51412
   51415   51418   51421   51424   51427   51430   51433   51436   51439   51442
   51445   51448   51451   51454   51457   51460   51463   51466   51469   51472
   51475   51478   51481   51484   51487   51490   51493   51496   51499   51502
   51505   51508   51511   51514   51517   51520   51523   51526   51529   51532
   51535   51538   51541   51544   51547   51550   51553   51556   51559   51562
   51565   51568   51571   51574   51577   51580   51583   51586   51589   51592
   51595   51598   51601   51604   51607   51610   51613   51616   51619   51622
   51625   51628   51631   51634   51637   51640   51643   51646   51649   51652
   51655   51658   51661   51664   51667   51670   51673   51676   51679   51682
   51685   51688   51691   51694   51697   51700   51703   51706   51709   51712
   51715   51718   51721   51724   51727   51730   51733   51736   51739   51742
   51745   51748   51751   51754   51757   51760   51763   51766   51769   51772
   51775   51778   51781   51784   51787   51790   51793   51796   51799   51802
   51805   51808   51811   51814   51817   51820   51823   51826   51829   51832
   51835   51838   51841   51844   51847   51850   51853   51856   51859   51862
   51865   51868   51871   51874   51877   51880   51883   51886   51889   51892
   51895   51898   51901   51904   51907   51910   51913   51916   51919   51922
   51925   51928   51931   51934   51937   51940   51943   51946   51949   51952
   51955   51958   51961   51964   51967   51970   51973   51976   51979   51982
   51985   51988   51991   51994   51997   52000   52003   52006   52009   52012
   52015   52018   52021   52024   52027   52030   52033   52036   52039   52042
   52045   52048   52051   52054   52057   52060   52063   52066   52069   52072
   52075   52078   52081   52084   52087   52090   52093   52096   52099   52102
   52105   52108   52111   52114   52117   52120   52123   52126   52129   52132
   52135   52138   52141   52144   52147   52150   52153   52156   52159   52162
   52165   52168   52171   52174   52177   52180   52183   52186   52189   52192
   52195   52198   52201   52204   52207   52210   52213   52216   52219   52222
   52225   52228   52231   52234   52237   52240   52243   52246   52249   52252
   52255   52258   52261   52264   52267   52270   52273   52276   52279   52282
   52285   52288   52291   52294   52297   52300   52303   52306   52309   52312
   52315   52318   52321   52324   52327   52330   52333   52336   52339   52342
   52345   52348   52351   52354   52357   52360   52363   52366   52369   52372
   52375   52378   52381   52384   52387   52390   52393   52396   52399   52402
   52405   52408   52411   52414   52417   52420   52423   52426   52429   52432
   52435   52438   52441   52444   52447   52450   52453   52456   52459   52462
   52465   52468   52471   52474   52477   52480   52483   52486   52489   52492
   52495   52498   52501   52504   52507   52510   52513   52516   52519   52522
   52525   52528   52531   52534   52537   52540   52543   52546   52549   52552
   52555   52558   52561   52564   52567   52570   52573   52576   52579   52582
   52585   52588   52591   52594   52597   52600   52603   52606   52609   52612
   52615   52618   52621   52624   52627   52630   52633   52636   52639   52642
   52645   52648   52651   52654   52657   52660   52663   52666   52669   52672
   52675   52678   52681   52684   52687   52690   52693   52696   52699   52702
   52705   52708   52711   52714   52717   52720   52723   52726   52729   52732
   52735   52738   52741   52744   52747   52750   52753   52756   52759   52762
   52765   52768   52771   52774   52777   52780   52783   52786   52789   52792
   52795   52798   52801   52804   52807   52810   52813   52816   52819   52822
   52825   52828   52831   52834   52837   52840   52843   52846   52849   52852
   52855   52858   52861   52864   52867   52870   52873   52876   52879   52882
   52885   52888   52891   52894   52897   52900   52903   52906   52909   52912
   52915   52918   52921   52924   52927   52930   52933   52936   52939   52942
   52945   52948   52951   52954   52957   52960   52963   52966   52969   52972
   52975   52978   52981   52984   52987   52990   52993   52996   52999   53002
   53005   53008   53011   53014   53017   53020   53023   53026   53029   53032
   53035   53038   53041   53044   53047   53050   53053   53056   53059   53062
   53065   53068   53071   53074   53077   53080   53083   53086   53089   53092
   53095   53098   53101   53104   53107   53110   53113   53116   53119   53122
   53125   53128   53131   53134   53137   53140   53143   53146   53149   53152
   53155   53158   53161   53164   53167   53170   53173   53176   53179   53182
   53185   53188   53191   53194   53197   53200   53203   53206   53209   53212
   53215   53218   53221   53224   53227   53230   53233   53236   53239   53242
   53245   53248   53251   53254   53257   53260   53263   53266   53269   53272
   53275   53278   53281   53284   53287   53290   53293   53296   53299   53302
   53305   53308   53311   53314   53317   53320   53323   53326   53329   53332
   53335   53338   53341   53344   53347   53350   53353   53356   53359   53362
   53365   53368   53371   53374   53377   53380   53383   53386   53389   53392
   53395   53398   53401   53404   53407   53410   53413   53416   53419   53422
   53425   53428   53431   53434   53437   53440   53443   53446   53449   53452
   53455   53458   53461   53464   53467   53470   53473   53476   53479   53482
   53485   53488   53491   53494   53497   53500   53503   53506   53509   53512
   53515   53518   53521   53524
%FLAG BOND_FORCE_CONSTANT                                                       
%FORMAT(5E16.8)                                                                 
  5.70000000E+02  4.90000000E+02  3.40000000E+02  3.17000000E+02  4.34000000E+02
  3.10000000E+02  3.40000000E+02  3.10000000E+02  3.17000000E+02  3.37000000E+02
  1.66000000E+02  3.40000000E+02  2.27000000E+02  5.53000000E+02  3.20000000E+02
  3.67000000E+02  4.69000000E+02  4.50000000E+02  4.69000000E+02  3.17000000E+02
  3.37000000E+02  3.67000000E+02  4.34000000E+02  4.27000000E+02  3.67000000E+02
  4.77000000E+02  4.22000000E+02  5.18000000E+02  3.17000000E+02  4.34000000E+02
  4.81000000E+02  3.37000000E+02  5.53000000E+02  5.53000000E+02
%FLAG BOND_EQUIL_VALUE                                                          
%FORMAT(5E16.8)                                                                 
  1.22900000E+00  1.33500000E+00  1.09000000E+00  1.52200000E+00  1.01000000E+00
  1.52600000E+00  1.09000000E+00  1.52600000E+00  1.52200000E+00  1.44900000E+00
  2.03800000E+00  1.09000000E+00  1.81000000E+00  9.60000000E-01  1.41000000E+00
  1.08000000E+00  1.40000000E+00  1.36400000E+00  1.40900000E+00  1.51000000E+00
  1.44900000E+00  1.08000000E+00  1.01000000E+00  1.38100000E+00  1.08000000E+00
  1.34300000E+00  1.38500000E+00  1.37100000E+00  1.50400000E+00  1.01000000E+00
  1.34000000E+00  1.46300000E+00  9.57200000E-01  1.51360000E+00
%FLAG ANGLE_FORCE_CONSTANT                                                      
%FORMAT(5E16.8)                                                                 
  8.00000000E+01  5.00000000E+01  5.00000000E+01  5.00000000E+01  3.50000000E+01
  8.00000000E+01  7.00000000E+01  3.50000000E+01  5.00000000E+01  6.30000000E+01
  6.30000000E+01  5.00000000E+01  5.00000000E+01  5.00000000E+01  4.00000000E+01
  8.00000000E+01  7.00000000E+01  5.00000000E+01  5.00000000E+01  8.00000000E+01
  6.30000000E+01  6.80000000E+01  5.00000000E+01  3.50000000E+01  5.00000000E+01
  5.00000000E+01  5.00000000E+01  5.00000000E+01  5.00000000E+01  5.50000000E+01
  5.00000000E+01  4.00000000E+01  5.00000000E+01  7.00000000E+01  5.00000000E+01
  5.00000000E+01  6.30000000E+01  6.30000000E+01  6.30000000E+01  5.00000000E+01
  7.00000000E+01  6.30000000E+01  6.00000000E+01  8.00000000E+01  8.00000000E+01
  6.30000000E+01  5.00000000E+01  5.00000000E+01  5.00000000E+01  5.00000000E+01
  5.00000000E+01  5.00000000E+01  5.00000000E+01  7.00000000E+01  7.00000000E+01
  7.00000000E+01  5.00000000E+01  7.00000000E+01  7.00000000E+01  5.00000000E+01
  5.00000000E+01  7.00000000E+01  7.00000000E+01  6.30000000E+01  3.50000000E+01
  3.50000000E+01  7.00000000E+01  5.00000000E+01  5.00000000E+01  5.00000000E+01
  5.00000000E+01  8.00000000E+01
%FLAG ANGLE_EQUIL_VALUE                                                         
%FORMAT(5E16.8)                                                                 
  2.14501057E+00  2.09439600E+00  2.12755727E+00  1.91113635E+00  1.91113635E+00
  2.10137732E+00  2.03505478E+00  2.09439600E+00  1.91113635E+00  1.93906163E+00
  1.93906163E+00  1.91113635E+00  1.91113635E+00  1.91113635E+00  1.91113635E+00
  2.10137732E+00  2.03505478E+00  2.06018753E+00  1.91113635E+00  1.91462701E+00
  1.92160833E+00  1.80990721E+00  1.91113635E+00  1.91113635E+00  1.91113635E+00
  2.00189351E+00  1.91113635E+00  1.91113635E+00  1.91113635E+00  1.89368305E+00
  1.91113635E+00  1.91113635E+00  2.09439600E+00  2.09439600E+00  1.97222290E+00
  2.09439600E+00  2.09439600E+00  2.09439600E+00  2.09439600E+00  1.91113635E+00
  2.09439600E+00  1.98967620E+00  2.33874220E+00  2.09439600E+00  1.91986300E+00
  1.93906163E+00  2.12755727E+00  2.06018753E+00  1.91113635E+00  2.09439600E+00
  2.09439600E+00  2.09439600E+00  2.09439600E+00  2.09439600E+00  2.09439600E+00
  2.09439600E+00  2.09439600E+00  2.09439600E+00  2.09439600E+00  2.09439600E+00
  1.91113635E+00  2.09439600E+00  2.09439600E+00  1.97396823E+00  1.91113635E+00
  2.09439600E+00  2.09439600E+00  2.09439600E+00  1.91113635E+00  2.06647072E+00
  2.15024656E+00  1.94080696E+00
%FLAG DIHEDRAL_FORCE_CONSTANT                                                   
%FORMAT(5E16.8)                                                                 
  2.00000000E+00  2.50000000E+00  0.00000000E+00  2.00000000E+00  4.00000000E-01
  0.00000000E+00  0.00000000E+00  2.70000000E-01  4.20000000E-01  8.00000000E-01
  8.00000000E-02  1.55555556E-01  1.50000000E-01  2.00000000E-01  2.00000000E-01
  1.60000000E-01  4.50000000E-01  1.58000000E+00  5.50000000E-01  3.33333333E-01
  3.50000000E+00  6.00000000E-01  2.50000000E-01  0.00000000E+00  1.66666667E-01
  2.00000000E-01  2.50000000E-01  1.80000000E-01  3.62500000E+00  2.30000000E+00
  1.50000000E+00  2.32500000E+00  1.40000000E+00  5.37500000E+00  2.40000000E+00
  1.05000000E+01  1.00000000E+00  1.10000000E+00
%FLAG DIHEDRAL_PERIODICITY                                                      
%FORMAT(5E16.8)                                                                 
  1.00000000E+00  2.00000000E+00  2.00000000E+00  2.00000000E+00  3.00000000E+00
  4.00000000E+00  1.00000000E+00  2.00000000E+00  3.00000000E+00  1.00000000E+00
  3.00000000E+00  3.00000000E+00  3.00000000E+00  1.00000000E+00  2.00000000E+00
  3.00000000E+00  1.00000000E+00  2.00000000E+00  3.00000000E+00  3.00000000E+00
  2.00000000E+00  3.00000000E+00  1.00000000E+00  3.00000000E+00  3.00000000E+00
  1.00000000E+00  2.00000000E+00  3.00000000E+00  2.00000000E+00  2.00000000E+00
  2.00000000E+00  2.00000000E+00  2.00000000E+00  2.00000000E+00  2.00000000E+00
  2.00000000E+00  2.00000000E+00  2.00000000E+00
%FLAG DIHEDRAL_PHASE                                                            
%FORMAT(5E16.8)                                                                 
  0.00000000E+00  3.14159400E+00  0.00000000E+00  0.00000000E+00  0.00000000E+00
  0.00000000E+00  0.00000000E+00  0.00000000E+00  0.00000000E+00  0.00000000E+00
  3.14159400E+00  0.00000000E+00  0.00000000E+00  0.00000000E+00  0.00000000E+00
  0.00000000E+00  3.14159400E+00  3.14159400E+00  3.14159400E+00  0.00000000E+00
  0.00000000E+00  0.00000000E+00  0.00000000E+00  0.00000000E+00  0.00000000E+00
  3.14159400E+00  3.14159400E+00  0.00000000E+00  3.14159400E+00  3.14159400E+00
  3.14159400E+00  3.14159400E+00  3.14159400E+00  3.14159400E+00  3.14159400E+00
  3.14159400E+00  3.14159400E+00  3.14159400E+00
%FLAG SCEE_SCALE_FACTOR                                                         
%FORMAT(5E16.8)                                                                 
  1.20000000E+00  1.20000000E+00  1.20000000E+00  1.20000000E+00  1.20000000E+00
  1.20000000E+00  1.20000000E+00  1.20000000E+00  1.20000000E+00  1.20000000E+00
  1.20000000E+00  1.20000000E+00  1.20000000E+00  1.20000000E+00  1.20000000E+00
  1.20000000E+00  1.20000000E+00  1.20000000E+00  1.20000000E+00  1.20000000E+00
  1.20000000E+00  1.20000000E+00  1.20000000E+00  1.20000000E+00  1.20000000E+00
  1.20000000E+00  1.20000000E+00  1.20000000E+00  1.20000000E+00  1.20000000E+00
  1.20000000E+00  1.20000000E+00  1.20000000E+00  1.20000000E+00  1.20000000E+00
  0.00000000E+00  0.00000000E+00  0.00000000E+00
%FLAG SCNB_SCALE_FACTOR                                                         
%FORMAT(5E16.8)                                                                 
  2.00000000E+00  2.00000000E+00  2.00000000E+00  2.00000000E+00  2.00000000E+00
  2.00000000E+00  2.00000000E+00  2.00000000E+00  2.00000000E+00  2.00000000E+00
  2.00000000E+00  2.00000000E+00  2.00000000E+00  2.00000000E+00  2.00000000E+00
  2.00000000E+00  2.00000000E+00  2.00000000E+00  2.00000000E+00  2.00000000E+00
  2.00000000E+00  2.00000000E+00  2.00000000E+00  2.00000000E+00  2.00000000E+00
  2.00000000E+00  2.00000000E+00  2.00000000E+00  2.00000000E+00  2.00000000E+00
  2.00000000E+00  2.00000000E+00  2.00000000E+00  2.00000000E+00  2.00000000E+00
  0.00000000E+00  0.00000000E+00  0.00000000E+00
%FLAG SOLTY                                                                     
%FORMAT(5E16.8)                                                                 
  0.00000000E+00  0.00000000E+00  0.00000000E+00  0.00000000E+00  0.00000000E+00
  0.00000000E+00  0.00000000E+00  0.00000000E+00  0.00000000E+00  0.00000000E+00
  0.00000000E+00  0.00000000E+00  0.00000000E+00  0.00000000E+00  0.00000000E+00
  0.00000000E+00  0.00000000E+00  0.00000000E+00  0.00000000E+00  0.00000000E+00
  0.00000000E+00  0.00000000E+00
%FLAG LENNARD_JONES_ACOEF                                                       
%FORMAT(5E16.8)                                                                 
  7.51607703E+03  9.71708117E+04  1.04308023E+06  8.61541883E+04  9.24822270E+05
  8.19971662E+05  5.44261042E+04  6.47841731E+05  5.74393458E+05  3.79876399E+05
  8.96776989E+04  9.95480466E+05  8.82619071E+05  6.06829342E+05  9.44293233E+05
  1.07193646E+02  2.56678134E+03  2.27577561E+03  1.02595236E+03  2.12601181E+03
  1.39982777E-01  4.98586848E+03  6.78771368E+04  6.01816484E+04  3.69471530E+04
  6.20665997E+04  5.94667300E+01  3.25969625E+03  2.02461849E+05  2.09861767E+06
  1.86068943E+06  1.32911052E+06  2.01562190E+06  5.97860700E+03  1.42791446E+05
  4.19430400E+06  6.82786631E+04  7.91544157E+05  7.01803794E+05  4.71003287E+05
  7.44975864E+05  1.40467023E+03  4.66922514E+04  1.61587928E+06  5.81803229E+05
  0.00000000E+00  0.00000000E+00  0.00000000E+00  0.00000000E+00  0.00000000E+00
  0.00000000E+00  0.00000000E+00  0.00000000E+00  0.00000000E+00  0.00000000E+00
  6.55825601E+03  8.59947003E+04  7.62451550E+04  4.77908183E+04  7.91627154E+04
  8.90987508E+01  4.33325458E+03  1.79647996E+05  6.00750218E+04  0.00000000E+00
  5.71629601E+03  4.33325458E+03  5.98885646E+04  5.30987710E+04  3.23283631E+04
  5.46147253E+04  4.90239937E+01  2.82099197E+03  1.26338489E+05  4.09427581E+04
  0.00000000E+00  3.76169105E+03  2.43828624E+03  5.34045360E+03  7.18621074E+04
  6.37148278E+04  3.93690817E+04  6.58473870E+04  6.63368273E+01  3.50301067E+03
  1.50848032E+05  4.96707306E+04  0.00000000E+00  4.64559155E+03  3.03448006E+03
  3.76169105E+03  6.91773368E+04  7.85890042E+05  6.96790708E+05  4.72934643E+05
  7.42364908E+05  1.52094041E+03  4.75728872E+04  1.59822324E+06  5.82511344E+05
  0.00000000E+00  6.09592309E+04  4.17832254E+04  5.05435913E+04  5.81935564E+05
%FLAG LENNARD_JONES_BCOEF                                                       
%FORMAT(5E16.8)                                                                 
  2.17257828E+01  1.26919150E+02  6.75612247E+02  1.12529845E+02  5.99015525E+02
  5.31102864E+02  1.11805549E+02  6.26720080E+02  5.55666448E+02  5.64885984E+02
  1.36131731E+02  7.36907417E+02  6.53361429E+02  6.77220874E+02  8.01323529E+02
  2.59456373E+00  2.06278363E+01  1.82891803E+01  1.53505284E+01  2.09604198E+01
  9.37598976E-02  1.76949863E+01  1.06076943E+02  9.40505980E+01  9.21192136E+01
  1.13252061E+02  1.93248820E+00  1.43076527E+01  2.25248294E+02  1.17824605E+03
  1.04466382E+03  1.10369829E+03  1.28923404E+03  3.87070358E+01  1.89165096E+02
  2.04800000E+03  1.25287818E+02  6.93079947E+02  6.14502845E+02  6.29300710E+02
  7.50714425E+02  1.79702257E+01  1.03606917E+02  1.21753341E+03  6.99746810E+02
  0.00000000E+00  0.00000000E+00  0.00000000E+00  0.00000000E+00  0.00000000E+00
  0.00000000E+00  0.00000000E+00  0.00000000E+00  0.00000000E+00  0.00000000E+00
  2.00642027E+01  1.18043746E+02  1.04660679E+02  1.03580945E+02  1.26451907E+02
  2.33864085E+00  1.63092814E+01  2.09772716E+02  1.16187983E+02  0.00000000E+00
  1.85196588E+01  1.63092814E+01  9.85097219E+01  8.73413012E+01  8.51921330E+01
  1.05031585E+02  1.73473071E+00  1.31591746E+01  1.75916126E+02  9.59185913E+01
  0.00000000E+00  1.50233639E+01  1.20953369E+01  1.81057616E+01  1.07908863E+02
  9.56748258E+01  9.40124296E+01  1.15327881E+02  2.01792524E+00  1.46638650E+01
  1.92224012E+02  1.05648788E+02  0.00000000E+00  1.66953734E+01  1.34932874E+01
  1.50233639E+01  1.16264660E+02  6.36687196E+02  5.64503554E+02  5.81361517E+02
  6.90894667E+02  1.72393904E+01  9.64152120E+01  1.11633519E+03  6.45512297E+02
  0.00000000E+00  1.07902982E+02  8.93335697E+01  9.82532117E+01  5.94825035E+02
%FLAG BONDS_INC_HYDROGEN                                                        
%FORMAT(10I8)                                                                   
       3       6       3       3       9       3       0       3       3      54
      57       5      54      60       5      39      42       3      39      45
       3      30      33       3      30      36       3      24      27       7
      18      21       5      81      84      12      81      87      12      75
      78       7      69      72       5     111     114      12     111     117
      12     105     108       7      99     102       5     159     162      14
     147     150       3     147     153       3     147     156       3     141
     144      12     135     138       7     129     132       5     192     195
      14     183     186      12     183     189      12     177     180       7
     171     174       5     243     246       3     243     249       3     243
     252       3     234     237       3     234     240       3     222     225
       3     222     228       3     222     231       3     216     219       3
     210     213       7     204     207       5     273     276      12     273
     279      12     267     270       7     261     264       5     312     315
      14     303     306      12     303     309      12     297     300       7
     291     294       5     363     366       3     363     369       3     363
     372       3     351     354       3     351     357       3     351     360
       3     345     348       3     336     339       3     336     342       3
     330     333       7     324     327       5     432     435      16     426
     429      16     420     423      14     411     414      16     405     408
      16     393     396       3     393     399       3     387     390       7
     381     384       5     480     483       5     480     486       5     465
     468       3     465     471       3     456     459       3     456     462
       3     450     453       7     444     447       5     534     537       3
     534     540       3     534     543       3     522     525       3     522
     528       3     522     531       3     516     519       3     507     510
       3     507     513       3     501     504       7     495     498       5
     588     591      14     588     600      14     585     603      14     585
     606      14     573     576       3     573     579       3     564     567
       3     564     570       3     558     561       7     552     555       5
     636     639       5     636     642       5     621     624       3     621
     627       3     615     618       7     609     612       5     702     705
      16     696     699      16     690     693      14     681     684      16
     675     678      16     663     666       3     663     669       3     657
     660       7     651     654       5     726     729      12     726     732
      12     720     723       7     714     717       5     750     753      12
     750     756      12     750     759      12     744     747       5     765
     768       3     765     771       3     762     765       3     822     825
      22     816     819      23     810     813      25     804     807      23
     792     795       3     792     798       3     786     789       7     780
     783       5     873     876       3     873     879       3     873     882
       3     861     864       3     861     867       3     861     870       3
     855     858       3     846     849       3     846     852       3     840
     843       7     834     837       5     903     906      12     903     909
      12     897     900       7     891     894       5     927     930       7
     927     933       7     921     924       5     963     966      14     954
     957      12     954     960      12     948     951       7     942     945
       5    1017    1020      22    1011    1014      23    1005    1008      25
     999    1002      23     987     990       3     987     993       3     981
     984       7     975     978       5    1068    1071       3    1068    1074
       3    1068    1077       3    1056    1059       3    1056    1062       3
    1056    1065       3    1050    1053       3    1041    1044       3    1041
    1047       3    1035    1038       7    1029    1032       5    1116    1119
       3    1116    1122       3    1116    1125       3    1104    1107       3
    1104    1110       3    1104    1113       3    1098    1101       3    1092
    1095       7    1086    1089       5    1170    1173      14    1170    1182
      14    1167    1185      14    1167    1188      14    1155    1158       3
    1155    1161       3    1146    1149       3    1146    1152       3    1140
    1143       7    1134    1137       5    1203    1206       3    1203    1209
       3    1203    1212       3    1197    1200       7    1191    1194       5
    1260    1263       3    1260    1266       3    1260    1269       3    1248
    1251       3    1248    1254       3    1248    1257       3    1242    1245
       3    1233    1236       3    1233    1239       3    1227    1230       7
    1221    1224       5    1329    1332      16    1323    1326      16    1317
    1320      14    1308    1311      16    1302    1305      16    1290    1293
       3    1290    1296       3    1284    1287       7    1278    1281       5
    1380    1383       3    1380    1386       3    1380    1389       3    1368
    1371       3    1368    1374       3    1368    1377       3    1362    1365
       3    1353    1356       3    1353    1359       3    1347    1350       7
    1341    1344       5    1428    1431       3    1428    1434       3    1428
    1437       3    1416    1419       3    1416    1422       3    1416    1425
       3    1410    1413       3    1404    1407       7    1398    1401       5
    1458    1461      12    1458    1464      12    1452    1455       7    1446
    1449       5    1482    1485       7    1482    1488       7    1476    1479
       5    1533    1536      14    1533    1545      14    1530    1548      14
    1530    1551      14    1518    1521       3    1518    1524       3    1509
    1512       3    1509    1515       3    1503    1506       7    1497    1500
       5    1611    1614      30    1611    1617      30    1602    1605      30
    1602    1608      30    1593    1596      30    1584    1587      12    1584
    1590      12    1575    1578       3    1575    1581       3    1566    1569
       3    1566    1572       3    1560    1563       7    1554    1557       5
    1632    1635       7    1632    1638       7    1626    1629       5    1695
    1698      16    1689    1692      16    1683    1686      16    1677    1680
      16    1671    1674      16    1659    1662       3    1659    1665       3
    1653    1656       7    1647    1650       5    1755    1758      16    1749
    1752      16    1743    1746      16    1737    1740      16    1731    1734
      16    1719    1722       3    1719    1725       3    1713    1716       7
    1707    1710       5    1818    1821      16    1812    1815      16    1806
    1809      14    1797    1800      16    1791    1794      16    1779    1782
       3    1779    1785       3    1773    1776       7    1767    1770       5
    1860    1863      14    1848    1851       3    1848    1854       3    1848
    1857       3    1842    1845      12    1836    1839       7    1830    1833
       5    1878    1881      12    1878    1884      12    1878    1887      12
    1872    1875       5    1893    1896       3    1893    1899       3    1890
    1893       3    1944    1947       5    1944    1950       5    1929    1932
       3    1929    1935       3    1920    1923       3    1920    1926       3
    1914    1917       7    1908    1911       5    1971    1974      12    1971
    1977      12    1965    1968       7    1959    1962       5    2001    2004
      12    2001    2007      12    1995    1998       7    1989    1992       5
    2049    2052      14    2037    2040       3    2037    2043       3    2037
    2046       3    2031    2034      12    2025    2028       7    2019    2022
       5    2082    2085      14    2073    2076      12    2073    2079      12
    2067    2070       7    2061    2064       5    2133    2136       3    2133
    2139       3    2133    2142       3    2124    2127       3    2124    2130
       3    2112    2115       3    2112    2118       3    2112    2121       3
    2106    2109       3    2100    2103       7    2094    2097       5    2163
    2166      12    2163    2169      12    2157    2160       7    2151    2154
       5    2202    2205      14    2193    2196      12    2193    2199      12
    2187    2190       7    2181    2184       5    2253    2256       3    2253
    2259       3    2253    2262       3    2241    2244       3    2241    2247
       3    2241    2250       3    2235    2238       3    2226    2229       3
    2226    2232       3    2220    2223       7    2214    2217       5    2322
    2325      16    2316    2319      16    2310    2313      14    2301    2304
      16    2295    2298      16    2283    2286       3    2283    2289       3
    2277    2280       7    2271    2274       5    2370    2373       5    2370
    2376       5    2355    2358       3    2355    2361       3    2346    2349
       3    2346    2352       3    2340    2343       7    2334    2337       5
    2424    2427       3    2424    2430       3    2424    2433       3    2412
    2415       3    2412    2418       3    2412    2421       3    2406    2409
       3    2397    2400       3    2397    2403       3    2391    2394       7
    2385    2388       5    2478    2481      14    2478    2490      14    2475
    2493      14    2475    2496      14    2463    2466       3    2463    2469
       3    2454    2457       3    2454    2460       3    2448    2451       7
    2442    2445       5    2526    2529       5    2526    2532       5    2511
    2514       3    2511    2517       3    2505    2508       7    2499    2502
       5    2592    2595      16    2586    2589      16    2580    2583      14
    2571    2574      16    2565    2568      16    2553    2556       3    2553
    2559       3    2547    2550       7    2541    2544       5    2616    2619
      12    2616    2622      12    2610    2613       7    2604    2607       5
    2640    2643      12    2640    2646      12    2640    2649      12    2634
    2637       5    2655    2658       3    2655    2661       3    2652    2655
       3    2712    2715      22    2706    2709      23    2700    2703      25
    2694    2697      23    2682    2685       3    2682    2688       3    2676
    2679       7    2670    2673       5    2763    2766       3    2763    2769
       3    2763    2772       3    2751    2754       3    2751    2757       3
    2751    2760       3    2745    2748       3    2736    2739       3    2736
    2742       3    2730    2733       7    2724    2727       5    2793    2796
      12    2793    2799      12    2787    2790       7    2781    2784       5
    2817    2820       7    2817    2823       7    2811    2814       5    2853
    2856      14    2844    2847      12    2844    2850      12    2838    2841
       7    2832    2835       5    2907    2910      22    2901    2904      23
    2895    2898      25    2889    2892      23    2877    2880       3    2877
    2883       3    2871    2874       7    2865    2868       5    2958    2961
       3    2958    2964       3    2958    2967       3    2946    2949       3
    2946    2952       3    2946    2955       3    2940    2943       3    2931
    2934       3    2931    2937       3    2925    2928       7    2919    2922
       5    3006    3009       3    3006    3012       3    3006    3015       3
    2994    2997       3    2994    3000       3    2994    3003       3    2988
    2991       3    2982    2985       7    2976    2979       5    3060    3063
      14    3060    3072      14    3057    3075      14    3057    3078      14
    3045    3048       3    3045    3051       3    3036    3039       3    3036
    3042       3    3030    3033       7    3024    3027       5    3093    3096
       3    3093    3099       3    3093    3102       3    3087    3090       7
    3081    3084       5    3150    3153       3    3150    3156       3    3150
    3159       3    3138    3141       3    3138    3144       3    3138    3147
       3    3132    3135       3    3123    3126       3    3123    3129       3
    3117    3120       7    3111    3114       5    3219    3222      16    3213
    3216      16    3207    3210      14    3198    3201      16    3192    3195
      16    3180    3183       3    3180    3186       3    3174    3177       7
    3168    3171       5    3270    3273       3    3270    3276       3    3270
    3279       3    3258    3261       3    3258    3264       3    3258    3267
       3    3252    3255       3    3243    3246       3    3243    3249       3
    3237    3240       7    3231    3234       5    3318    3321       3    3318
    3324       3    3318    3327       3    3306    3309       3    3306    3312
       3    3306    3315       3    3300    3303       3    3294    3297       7
    3288    3291       5    3348    3351      12    3348    3354      12    3342
    3345       7    3336    3339       5    3372    3375       7    3372    3378
       7    3366    3369       5    3423    3426      14    3423    3435      14
    3420    3438      14    3420    3441      14    3408    3411       3    3408
    3414       3    3399    3402       3    3399    3405       3    3393    3396
       7    3387    3390       5    3501    3504      30    3501    3507      30
    3492    3495      30    3492    3498      30    3483    3486      30    3474
    3477      12    3474    3480      12    3465    3468       3    3465    3471
       3    3456    3459       3    3456    3462       3    3450    3453       7
    3444    3447       5    3522    3525       7    3522    3528       7    3516
    3519       5    3585    3588      16    3579    3582      16    3573    3576
      16    3567    3570      16    3561    3564      16    3549    3552       3
    3549    3555       3    3543    3546       7    3537    3540       5    3645
    3648      16    3639    3642      16    3633    3636      16    3627    3630
      16    3621    3624      16    3609    3612       3    3609    3615       3
    3603    3606       7    3597    3600       5    3708    3711      16    3702
    3705      16    3696    3699      14    3687    3690      16    3681    3684
      16    3669    3672       3    3669    3675       3    3663    3666       7
    3657    3660       5    3750    3753      14    3738    3741       3    3738
    3744       3    3738    3747       3    3732    3735      12    3726    3729
       7    3720    3723       5    3768    3771      12    3768    3774      12
    3768    3777      12    3762    3765       5    3783    3786       3    3783
    3789       3    3780    3783       3    3834    3837       5    3834    3840
       5    3819    3822       3    3819    3825       3    3810    3813       3
    3810    3816       3    3804    3807       7    3798    3801       5    3861
    3864      12    3861    3867      12    3855    3858       7    3849    3852
       5    3891    3894      12    3891    3897      12    3885    3888       7
    3879    3882       5    3939    3942      14    3927    3930       3    3927
    3933       3    3927    3936       3    3921    3924      12    3915    3918
       7    3909    3912       5    3972    3975      14    3963    3966      12
    3963    3969      12    3957    3960       7    3951    3954       5    4023
    4026       3    4023    4029       3    4023    4032       3    4014    4017
       3    4014    4020       3    4002    4005       3    4002    4008       3
    4002    4011       3    3996    3999       3    3990    3993       7    3984
    3987       5    4053    4056      12    4053    4059      12    4047    4050
       7    4041    4044       5    4092    4095      14    4083    4086      12
    4083    4089      12    4077    4080       7    4071    4074       5    4143
    4146       3    4143    4149       3    4143    4152       3    4131    4134
       3    4131    4137       3    4131    4140       3    4125    4128       3
    4116    4119       3    4116    4122       3    4110    4113       7    4104
    4107       5    4212    4215      16    4206    4209      16    4200    4203
      14    4191    4194      16    4185    4188      16    4173    4176       3
    4173    4179       3    4167    4170       7    4161    4164       5    4260
    4263       5    4260    4266       5    4245    4248       3    4245    4251
       3    4236    4239       3    4236    4242       3    4230    4233       7
    4224    4227       5    4314    4317       3    4314    4320       3    4314
    4323       3    4302    4305       3    4302    4308       3    4302    4311
       3    4296    4299       3    4287    4290       3    4287    4293       3
    4281    4284       7    4275    4278       5    4368    4371      14    4368
    4380      14    4365    4383      14    4365    4386      14    4353    4356
       3    4353    4359       3    4344    4347       3    4344    4350       3
    4338    4341       7    4332    4335       5    4416    4419       5    4416
    4422       5    4401    4404       3    4401    4407       3    4395    4398
       7    4389    4392       5    4482    4485      16    4476    4479      16
    4470    4473      14    4461    4464      16    4455    4458      16    4443
    4446       3    4443    4449       3    4437    4440       7    4431    4434
       5    4506    4509      12    4506    4512      12    4500    4503       7
    4494    4497       5    4530    4533      12    4530    4536      12    4530
    4539      12    4524    4527       5    4545    4548       3    4545    4551
       3    4542    4545       3    4602    4605      22    4596    4599      23
    4590    4593      25    4584    4587      23    4572    4575       3    4572
    4578       3    4566    4569       7    4560    4563       5    4653    4656
       3    4653    4659       3    4653    4662       3    4641    4644       3
    4641    4647       3    4641    4650       3    4635    4638       3    4626
    4629       3    4626    4632       3    4620    4623       7    4614    4617
       5    4683    4686      12    4683    4689      12    4677    4680       7
    4671    4674       5    4707    4710       7    4707    4713       7    4701
    4704       5    4743    4746      14    4734    4737      12    4734    4740
      12    4728    4731       7    4722    4725       5    4797    4800      22
    4791    4794      23    4785    4788      25    4779    4782      23    4767
    4770       3    4767    4773       3    4761    4764       7    4755    4758
       5    4848    4851       3    4848    4854       3    4848    4857       3
    4836    4839       3    4836    4842       3    4836    4845       3    4830
    4833       3    4821    4824       3    4821    4827       3    4815    4818
       7    4809    4812       5    4896    4899       3    4896    4902       3
    4896    4905       3    4884    4887       3    4884    4890       3    4884
    4893       3    4878    4881       3    4872    4875       7    4866    4869
       5    4950    4953      14    4950    4962      14    4947    4965      14
    4947    4968      14    4935    4938       3    4935    4941       3    4926
    4929       3    4926    4932       3    4920    4923       7    4914    4917
       5    4983    4986       3    4983    4989       3    4983    4992       3
    4977    4980       7    4971    4974       5    5040    5043       3    5040
    5046       3    5040    5049       3    5028    5031       3    5028    5034
       3    5028    5037       3    5022    5025       3    5013    5016       3
    5013    5019       3    5007    5010       7    5001    5004       5    5109
    5112      16    5103    5106      16    5097    5100      14    5088    5091
      16    5082    5085      16    5070    5073       3    5070    5076       3
    5064    5067       7    5058    5061       5    5160    5163       3    5160
    5166       3    5160    5169       3    5148    5151       3    5148    5154
       3    5148    5157       3    5142    5145       3    5133    5136       3
    5133    5139       3    5127    5130       7    5121    5124       5    5208
    5211       3    5208    5214       3    5208    5217       3    5196    5199
       3    5196    5202       3    5196    5205       3    5190    5193       3
    5184    5187       7    5178    5181       5    5238    5241      12    5238
    5244      12    5232    5235       7    5226    5229       5    5262    5265
       7    5262    5268       7    5256    5259       5    5313    5316      14
    5313    5325      14    5310    5328      14    5310    5331      14    5298
    5301       3    5298    5304       3    5289    5292       3    5289    5295
       3    5283    5286       7    5277    5280       5    5391    5394      30
    5391    5397      30    5382    5385      30    5382    5388      30    5373
    5376      30    5364    5367      12    5364    5370      12    5355    5358
       3    5355    5361       3    5346    5349       3    5346    5352       3
    5340    5343       7    5334    5337       5    5412    5415       7    5412
    5418       7    5406    5409       5    5475    5478      16    5469    5472
      16    5463    5466      16    5457    5460      16    5451    5454      16
    5439    5442       3    5439    5445       3    5433    5436       7    5427
    5430       5    5535    5538      16    5529    5532      16    5523    5526
      16    5517    5520      16    5511    5514      16    5499    5502       3
    5499    5505       3    5493    5496       7    5487    5490       5    5598
    5601      16    5592    5595      16    5586    5589      14    5577    5580
      16    5571    5574      16    5559    5562       3    5559    5565       3
    5553    5556       7    5547    5550       5    5640    5643      14    5628
    5631       3    5628    5634       3    5628    5637       3    5622    5625
      12    5616    5619       7    5610    5613       5    5658    5661      12
    5658    5664      12    5658    5667      12    5652    5655       5    5673
    5676       3    5673    5679       3    5670    5673       3    5724    5727
       5    5724    5730       5    5709    5712       3    5709    5715       3
    5700    5703       3    5700    5706       3    5694    5697       7    5688
    5691       5    5751    5754      12    5751    5757      12    5745    5748
       7    5739    5742       5    5781    5784      12    5781    5787      12
    5775    5778       7    5769    5772       5    5829    5832      14    5817
    5820       3    5817    5823       3    5817    5826       3    5811    5814
      12    5805    5808       7    5799    5802       5    5862    5865      14
    5853    5856      12    5853    5859      12    5847    5850       7    5841
    5844       5    5913    5916       3    5913    5919       3    5913    5922
       3    5904    5907       3    5904    5910       3    5892    5895       3
    5892    5898       3    5892    5901       3    5886    5889       3    5880
    5883       7    5874    5877       5    5943    5946      12    5943    5949
      12    5937    5940       7    5931    5934       5    5982    5985      14
    5973    5976      12    5973    5979      12    5967    5970       7    5961
    5964       5    6033    6036       3    6033    6039       3    6033    6042
       3    6021    6024       3    6021    6027       3    6021    6030       3
    6015    6018       3    6006    6009       3    6006    6012       3    6000
    6003       7    5994    5997       5    6102    6105      16    6096    6099
      16    6090    6093      14    6081    6084      16    6075    6078      16
    6063    6066       3    6063    6069       3    6057    6060       7    6051
    6054       5    6150    6153       5    6150    6156       5    6135    6138
       3    6135    6141       3    6126    6129       3    6126    6132       3
    6120    6123       7    6114    6117       5    6204    6207       3    6204
    6210       3    6204    6213       3    6192    6195       3    6192    6198
       3    6192    6201       3    6186    6189       3    6177    6180       3
    6177    6183       3    6171    6174       7    6165    6168       5    6258
    6261      14    6258    6270      14    6255    6273      14    6255    6276
      14    6243    6246       3    6243    6249       3    6234    6237       3
    6234    6240       3    6228    6231       7    6222    6225       5    6306
    6309       5    6306    6312       5    6291    6294       3    6291    6297
       3    6285    6288       7    6279    6282       5    6372    6375      16
    6366    6369      16    6360    6363      14    6351    6354      16    6345
    6348      16    6333    6336       3    6333    6339       3    6327    6330
       7    6321    6324       5    6396    6399      12    6396    6402      12
    6390    6393       7    6384    6387       5    6420    6423      12    6420
    6426      12    6420    6429      12    6414    6417       5    6435    6438
       3    6435    6441       3    6432    6435       3    6492    6495      22
    6486    6489      23    6480    6483      25    6474    6477      23    6462
    6465       3    6462    6468       3    6456    6459       7    6450    6453
       5    6543    6546       3    6543    6549       3    6543    6552       3
    6531    6534       3    6531    6537       3    6531    6540       3    6525
    6528       3    6516    6519       3    6516    6522       3    6510    6513
       7    6504    6507       5    6573    6576      12    6573    6579      12
    6567    6570       7    6561    6564       5    6597    6600       7    6597
    6603       7    6591    6594       5    6633    6636      14    6624    6627
      12    6624    6630      12    6618    6621       7    6612    6615       5
    6687    6690      22    6681    6684      23    6675    6678      25    6669
    6672      23    6657    6660       3    6657    6663       3    6651    6654
       7    6645    6648       5    6738    6741       3    6738    6744       3
    6738    6747       3    6726    6729       3    6726    6732       3    6726
    6735       3    6720    6723       3    6711    6714       3    6711    6717
       3    6705    6708       7    6699    6702       5    6786    6789       3
    6786    6792       3    6786    6795       3    6774    6777       3    6774
    6780       3    6774    6783       3    6768    6771       3    6762    6765
       7    6756    6759       5    6840    6843      14    6840    6852      14
    6837    6855      14    6837    6858      14    6825    6828       3    6825
    6831       3    6816    6819       3    6816    6822       3    6810    6813
       7    6804    6807       5    6873    6876       3    6873    6879       3
    6873    6882       3    6867    6870       7    6861    6864       5    6930
    6933       3    6930    6936       3    6930    6939       3    6918    6921
       3    6918    6924       3    6918    6927       3    6912    6915       3
    6903    6906       3    6903    6909       3    6897    6900       7    6891
    6894       5    6999    7002      16    6993    6996      16    6987    6990
      14    6978    6981      16    6972    6975      16    6960    6963       3
    6960    6966       3    6954    6957       7    6948    6951       5    7050
    7053       3    7050    7056       3    7050    7059       3    7038    7041
       3    7038    7044       3    7038    7047       3    7032    7035       3
    7023    7026       3    7023    7029       3    7017    7020       7    7011
    7014       5    7098    7101       3    7098    7104       3    7098    7107
       3    7086    7089       3    7086    7092       3    7086    7095       3
    7080    7083       3    7074    7077       7    7068    7071       5    7128
    7131      12    7128    7134      12    7122    7125       7    7116    7119
       5    7152    7155       7    7152    7158       7    7146    7149       5
    7203    7206      14    7203    7215      14    7200    7218      14    7200
    7221      14    7188    7191       3    7188    7194       3    7179    7182
       3    7179    7185       3    7173    7176       7    7167    7170       5
    7281    7284      30    7281    7287      30    7272    7275      30    7272
    7278      30    7263    7266      30    7254    7257      12    7254    7260
      12    7245    7248       3    7245    7251       3    7236    7239       3
    7236    7242       3    7230    7233       7    7224    7227       5    7302
    7305       7    7302    7308       7    7296    7299       5    7365    7368
      16    7359    7362      16    7353    7356      16    7347    7350      16
    7341    7344      16    7329    7332       3    7329    7335       3    7323
    7326       7    7317    7320       5    7425    7428      16    7419    7422
      16    7413    7416      16    7407    7410      16    7401    7404      16
    7389    7392       3    7389    7395       3    7383    7386       7    7377
    7380       5    7488    7491      16    7482    7485      16    7476    7479
      14    7467    7470      16    7461    7464      16    7449    7452       3
    7449    7455       3    7443    7446       7    7437    7440       5    7530
    7533      14    7518    7521       3    7518    7524       3    7518    7527
       3    7512    7515      12    7506    7509       7    7500    7503       5
    7548    7551      12    7548    7554      12    7548    7557      12    7542
    7545       5    7563    7560      33    7566    7560      33    7566    7563
      34    7572    7569      33    7575    7569      33    7575    7572      34
    7581    7578      33    7584    7578      33    7584    7581      34    7590
    7587      33    7593    7587      33    7593    7590      34    7599    7596
      33    7602    7596      33    7602    7599      34    7608    7605      33
    7611    7605      33    7611    7608      34    7617    7614      33    7620
    7614      33    7620    7617      34    7626    7623      33    7629    7623
      33    7629    7626      34    7635    7632      33    7638    7632      33
    7638    7635      34    7644    7641      33    7647    7641      33    7647
    7644      34    7653    7650      33    7656    7650      33    7656    7653
      34    7662    7659      33    7665    7659      33    7665    7662      34
    7671    7668      33    7674    7668      33    7674    7671      34    7680
    7677      33    7683    7677      33    7683    7680      34    7689    7686
      33    7692    7686      33    7692    7689      34    7698    7695      33
    7701    7695      33    7701    7698      34    7707    7704      33    7710
    7704      33    7710    7707      34    7716    7713      33    7719    7713
      33    7719    7716      34    7725    7722      33    7728    7722      33
    7728    7725      34    7734    7731      33    7737    7731      33    7737
    7734      34    7743    7740      33    7746    7740      33    7746    7743
      34    7752    7749      33    7755    7749      33    7755    7752      34
    7761    7758      33    7764    7758      33    7764    7761      34    7770
    7767      33    7773    7767      33    7773    7770      34    7779    7776
      33    7782    7776      33    7782    7779      34    7788    7785      33
    7791    7785      33    7791    7788      34    7797    7794      33    7800
    7794      33    7800    7797      34    7806    7803      33    7809    7803
      33    7809    7806      34    7815    7812      33    7818    7812      33
    7818    7815      34    7824    7821      33    7827    7821      33    7827
    7824      34    7833    7830      33    7836    7830      33    7836    7833
      34    7842    7839      33    7845    7839      33    7845    7842      34
    7851    7848      33    7854    7848      33    7854    7851      34    7860
    7857      33    7863    7857      33    7863    7860      34    7869    7866
      33    7872    7866      33    7872    7869      34    7878    7875      33
    7881    7875      33    7881    7878      34    7887    7884      33    7890
    7884      33    7890    7887      34    7896    7893      33    7899    7893
      33    7899    7896      34    7905    7902      33    7908    7902      33
    7908    7905      34    7914    7911      33    7917    7911      33    7917
    7914      34    7923    7920      33    7926    7920      33    7926    7923
      34    7932    7929      33    7935    7929      33    7935    7932      34
    7941    7938      33    7944    7938      33    7944    7941      34    7950
    7947      33    7953    7947      33    7953    7950      34    7959    7956
      33    7962    7956      33    7962    7959      34    7968    7965      33
    7971    7965      33    7971    7968      34    7977    7974      33    7980
    7974      33    7980    7977      34    7986    7983      33    7989    7983
      33    7989    7986      34    7995    7992      33    7998    7992      33
    7998    7995      34    8004    8001      33    8007    8001      33    8007
    8004      34    8013    8010      33    8016    8010      33    8016    8013
      34    8022    8019      33    8025    8019      33    8025    8022      34
    8031    8028      33    8034    8028      33    8034    8031      34    8040
    8037      33    8043    8037      33    8043    8040      34    8049    8046
      33    8052    8046      33    8052    8049      34    8058    8055      33
    8061    8055      33    8061    8058      34    8067    8064      33    8070
    8064      33    8070    8067      34    8076    8073      33    8079    8073
      33    8079    8076      34    8085    8082      33    8088    8082      33
    8088    8085      34    8094    8091      33    8097    8091      33    8097
    8094      34    8103    8100      33    8106    8100      33    8106    8103
      34    8112    8109      33    8115    8109      33    8115    8112      34
    8121    8118      33    8124    8118      33    8124    8121      34    8130
    8127      33    8133    8127      33    8133    8130      34    8139    8136
      33    8142    8136      33    8142    8139      34    8148    8145      33
    8151    8145      33    8151    8148      34    8157    8154      33    8160
    8154      33    8160    8157      34    8166    8163      33    8169    8163
      33    8169    8166      34    8175    8172      33    8178    8172      33
    8178    8175      34    8184    8181      33    8187    8181      33    8187
    8184      34    8193    8190      33    8196    8190      33    8196    8193
      34    8202    8199      33    8205    8199      33    8205    8202      34
    8211    8208      33    8214    8208      33    8214    8211      34    8220
    8217      33    8223    8217      33    8223    8220      34    8229    8226
      33    8232    8226      33    8232    8229      34    8238    8235      33
    8241    8235      33    8241    8238      34    8247    8244      33    8250
    8244      33    8250    8247      34    8256    8253      33    8259    8253
      33    8259    8256      34    8265    8262      33    8268    8262      33
    8268    8265      34    8274    8271      33    8277    8271      33    8277
    8274      34    8283    8280      33    8286    8280      33    8286    8283
      34    8292    8289      33    8295    8289      33    8295    8292      34
    8301    8298      33    8304    8298      33    8304    8301      34    8310
    8307      33    8313    8307      33    8313    8310      34    8319    8316
      33    8322    8316      33    8322    8319      34    8328    8325      33
    8331    8325      33    8331    8328      34    8337    8334      33    8340
    8334      33    8340    8337      34    8346    8343      33    8349    8343
      33    8349    8346      34    8355    8352      33    8358    8352      33
    8358    8355      34    8364    8361      33    8367    8361      33    8367
    8364      34    8373    8370      33    8376    8370      33    8376    8373
      34    8382    8379      33    8385    8379      33    8385    8382      34
    8391    8388      33    8394    8388      33    8394    8391      34    8400
    8397      33    8403    8397      33    8403    8400      34    8409    8406
      33    8412    8406      33    8412    8409      34    8418    8415      33
    8421    8415      33    8421    8418      34    8427    8424      33    8430
    8424      33    8430    8427      34    8436    8433      33    8439    8433
      33    8439    8436      34    8445    8442      33    8448    8442      33
    8448    8445      34    8454    8451      33    8457    8451      33    8457
    8454      34    8463    8460      33    8466    8460      33    8466    8463
      34    8472    8469      33    8475    8469      33    8475    8472      34
    8481    8478      33    8484    8478      33    8484    8481      34    8490
    8487      33    8493    8487      33    8493    8490      34    8499    8496
      33    8502    8496      33    8502    8499      34    8508    8505      33
    8511    8505      33    8511    8508      34    8517    8514      33    8520
    8514      33    8520    8517      34    8526    8523      33    8529    8523
      33    8529    8526      34    8535    8532      33    8538    8532      33
    8538    8535      34    8544    8541      33    8547    8541      33    8547
    8544      34    8553    8550      33    8556    8550      33    8556    8553
      34    8562    8559      33    8565    8559      33    8565    8562      34
    8571    8568      33    8574    8568      33    8574    8571      34    8580
    8577      33    8583    8577      33    8583    8580      34    8589    8586
      33    8592    8586      33    8592    8589      34    8598    8595      33
    8601    8595      33    8601    8598      34    8607    8604      33    8610
    8604      33    8610    8607      34    8616    8613      33    8619    8613
      33    8619    8616      34    8625    8622      33    8628    8622      33
    8628    8625      34    8634    8631      33    8637    8631      33    8637
    8634      34    8643    8640      33    8646    8640      33    8646    8643
      34    8652    8649      33    8655    8649      33    8655    8652      34
    8661    8658      33    8664    8658      33    8664    8661      34    8670
    8667      33    8673    8667      33    8673    8670      34    8679    8676
      33    8682    8676      33    8682    8679      34    8688    8685      33
    8691    8685      33    8691    8688      34    8697    8694      33    8700
    8694      33    8700    8697      34    8706    8703      33    8709    8703
      33    8709    8706      34    8715    8712      33    8718    8712      33
    8718    8715      34    8724    8721      33    8727    8721      33    8727
    8724      34    8733    8730      33    8736    8730      33    8736    8733
      34    8742    8739      33    8745    8739      33    8745    8742      34
    8751    8748      33    8754    8748      33    8754    8751      34    8760
    8757      33    8763    8757      33    8763    8760      34    8769    8766
      33    8772    8766      33    8772    8769      34    8778    8775      33
    8781    8775      33    8781    8778      34    8787    8784      33    8790
    8784      33    8790    8787      34    8796    8793      33    8799    8793
      33    8799    8796      34    8805    8802      33    8808    8802      33
    8808    8805      34    8814    8811      33    8817    8811      33    8817
    8814      34    8823    8820      33    8826    8820      33    8826    8823
      34    8832    8829      33    8835    8829      33    8835    8832      34
    8841    8838      33    8844    8838      33    8844    8841      34    8850
    8847      33    8853    8847      33    8853    8850      34    8859    8856
      33    8862    8856      33    8862    8859      34    8868    8865      33
    8871    8865      33    8871    8868      34    8877    8874      33    8880
    8874      33    8880    8877      34    8886    8883      33    8889    8883
      33    8889    8886      34    8895    8892      33    8898    8892      33
    8898    8895      34    8904    8901      33    8907    8901      33    8907
    8904      34    8913    8910      33    8916    8910      33    8916    8913
      34    8922    8919      33    8925    8919      33    8925    8922      34
    8931    8928      33    8934    8928      33    8934    8931      34    8940
    8937      33    8943    8937      33    8943    8940      34    8949    8946
      33    8952    8946      33    8952    8949      34    8958    8955      33
    8961    8955      33    8961    8958      34    8967    8964      33    8970
    8964      33    8970    8967      34    8976    8973      33    8979    8973
      33    8979    8976      34    8985    8982      33    8988    8982      33
    8988    8985      34    8994    8991      33    8997    8991      33    8997
    8994      34    9003    9000      33    9006    9000      33    9006    9003
      34    9012    9009      33    9015    9009      33    9015    9012      34
    9021    9018      33    9024    9018      33    9024    9021      34    9030
    9027      33    9033    9027      33    9033    9030      34    9039    9036
      33    9042    9036      33    9042    9039      34    9048    9045      33
    9051    9045      33    9051    9048      34    9057    9054      33    9060
    9054      33    9060    9057      34    9066    9063      33    9069    9063
      33    9069    9066      34    9075    9072      33    9078    9072      33
    9078    9075      34    9084    9081      33    9087    9081      33    9087
    9084      34    9093    9090      33    9096    9090      33    9096    9093
      34    9102    9099      33    9105    9099      33    9105    9102      34
    9111    9108      33    9114    9108      33    9114    9111      34    9120
    9117      33    9123    9117      33    9123    9120      34    9129    9126
      33    9132    9126      33    9132    9129      34    9138    9135      33
    9141    9135      33    9141    9138      34    9147    9144      33    9150
    9144      33    9150    9147      34    9156    9153      33    9159    9153
      33    9159    9156      34    9165    9162      33    9168    9162      33
    9168    9165      34    9174    9171      33    9177    9171      33    9177
    9174      34    9183    9180      33    9186    9180      33    9186    9183
      34    9192    9189      33    9195    9189      33    9195    9192      34
    9201    9198      33    9204    9198      33    9204    9201      34    9210
    9207      33    9213    9207      33    9213    9210      34    9219    9216
      33    9222    9216      33    9222    9219      34    9228    9225      33
    9231    9225      33    9231    9228      34    9237    9234      33    9240
    9234      33    9240    9237      34    9246    9243      33    9249    9243
      33    9249    9246      34    9255    9252      33    9258    9252      33
    9258    9255      34    9264    9261      33    9267    9261      33    9267
    9264      34    9273    9270      33    9276    9270      33    9276    9273
      34    9282    9279      33    9285    9279      33    9285    9282      34
    9291    9288      33    9294    9288      33    9294    9291      34    9300
    9297      33    9303    9297      33    9303    9300      34    9309    9306
      33    9312    9306      33    9312    9309      34    9318    9315      33
    9321    9315      33    9321    9318      34    9327    9324      33    9330
    9324      33    9330    9327      34    9336    9333      33    9339    9333
      33    9339    9336      34    9345    9342      33    9348    9342      33
    9348    9345      34    9354    9351      33    9357    9351      33    9357
    9354      34    9363    9360      33    9366    9360      33    9366    9363
      34    9372    9369      33    9375    9369      33    9375    9372      34
    9381    9378      33    9384    9378      33    9384    9381      34    9390
    9387      33    9393    9387      33    9393    9390      34    9399    9396
      33    9402    9396      33    9402    9399      34    9408    9405      33
    9411    9405      33    9411    9408      34    9417    9414      33    9420
    9414      33    9420    9417      34    9426    9423      33    9429    9423
      33    9429    9426      34    9435    9432      33    9438    9432      33
    9438    9435      34    9444    9441      33    9447    9441      33    9447
    9444      34    9453    9450      33    9456    9450      33    9456    9453
      34    9462    9459      33    9465    9459      33    9465    9462      34
    9471    9468      33    9474    9468      33    9474    9471      34    9480
    9477      33    9483    9477      33    9483    9480      34    9489    9486
      33    9492    9486      33    9492    9489      34    9498    9495      33
    9501    9495      33    9501    9498      34    9507    9504      33    9510
    9504      33    9510    9507      34    9516    9513      33    9519    9513
      33    9519    9516      34    9525    9522      33    9528    9522      33
    9528    9525      34    9534    9531      33    9537    9531      33    9537
    9534      34    9543    9540      33    9546    9540      33    9546    9543
      34    9552    9549      33    9555    9549      33    9555    9552      34
    9561    9558      33    9564    9558      33    9564    9561      34    9570
    9567      33    9573    9567      33    9573    9570      34    9579    9576
      33    9582    9576      33    9582    9579      34    9588    9585      33
    9591    9585      33    9591    9588      34    9597    9594      33    9600
    9594      33    9600    9597      34    9606    9603      33    9609    9603
      33    9609    9606      34    9615    9612      33    9618    9612      33
    9618    9615      34    9624    9621      33    9627    9621      33    9627
    9624      34    9633    9630      33    9636    9630      33    9636    9633
      34    9642    9639      33    9645    9639      33    9645    9642      34
    9651    9648      33    9654    9648      33    9654    9651      34    9660
    9657      33    9663    9657      33    9663    9660      34    9669    9666
      33    9672    9666      33    9672    9669      34    9678    9675      33
    9681    9675      33    9681    9678      34    9687    9684      33    9690
    9684      33    9690    9687      34    9696    9693      33    9699    9693
      33    9699    9696      34    9705    9702      33    9708    9702      33
    9708    9705      34    9714    9711      33    9717    9711      33    9717
    9714      34    9723    9720      33    9726    9720      33    9726    9723
      34    9732    9729      33    9735    9729      33    9735    9732      34
    9741    9738      33    9744    9738      33    9744    9741      34    9750
    9747      33    9753    9747      33    9753    9750      34    9759    9756
      33    9762    9756      33    9762    9759      34    9768    9765      33
    9771    9765      33    9771    9768      34    9777    9774      33    9780
    9774      33    9780    9777      34    9786    9783      33    9789    9783
      33    9789    9786      34    9795    9792      33    9798    9792      33
    9798    9795      34    9804    9801      33    9807    9801      33    9807
    9804      34    9813    9810      33    9816    9810      33    9816    9813
      34    9822    9819      33    9825    9819      33    9825    9822      34
    9831    9828      33    9834    9828      33    9834    9831      34    9840
    9837      33    9843    9837      33    9843    9840      34    9849    9846
      33    9852    9846      33    9852    9849      34    9858    9855      33
    9861    9855      33    9861    9858      34    9867    9864      33    9870
    9864      33    9870    9867      34    9876    9873      33    9879    9873
      33    9879    9876      34    9885    9882      33    9888    9882      33
    9888    9885      34    9894    9891      33    9897    9891      33    9897
    9894      34    9903    9900      33    9906    9900      33    9906    9903
      34    9912    9909      33    9915    9909      33    9915    9912      34
    9921    9918      33    9924    9918      33    9924    9921      34    9930
    9927      33    9933    9927      33    9933    9930      34    9939    9936
      33    9942    9936      33    9942    9939      34    9948    9945      33
    9951    9945      33    9951    9948      34    9957    9954      33    9960
    9954      33    9960    9957      34    9966    9963      33    9969    9963
      33    9969    9966      34    9975    9972      33    9978    9972      33
    9978    9975      34    9984    9981      33    9987    9981      33    9987
    9984      34    9993    9990      33    9996    9990      33    9996    9993
      34   10002    9999      33   10005    9999      33   10005   10002      34
   10011   10008      33   10014   10008      33   10014   10011      34   10020
   10017      33   10023   10017      33   10023   10020      34   10029   10026
      33   10032   10026      33   10032   10029      34   10038   10035      33
   10041   10035      33   10041   10038      34   10047   10044      33   10050
   10044      33   10050   10047      34   10056   10053      33   10059   10053
      33   10059   10056      34   10065   10062      33   10068   10062      33
   10068   10065      34   10074   10071      33   10077   10071      33   10077
   10074      34   10083   10080      33   10086   10080      33   10086   10083
      34   10092   10089      33   10095   10089      33   10095   10092      34
   10101   10098      33   10104   10098      33   10104   10101      34   10110
   10107      33   10113   10107      33   10113   10110      34   10119   10116
      33   10122   10116      33   10122   10119      34   10128   10125      33
   10131   10125      33   10131   10128      34   10137   10134      33   10140
   10134      33   10140   10137      34   10146   10143      33   10149   10143
      33   10149   10146      34   10155   10152      33   10158   10152      33
   10158   10155      34   10164   10161      33   10167   10161      33   10167
   10164      34   10173   10170      33   10176   10170      33   10176   10173
      34   10182   10179      33   10185   10179      33   10185   10182      34
   10191   10188      33   10194   10188      33   10194   10191      34   10200
   10197      33   10203   10197      33   10203   10200      34   10209   10206
      33   10212   10206      33   10212   10209      34   10218   10215      33
   10221   10215      33   10221   10218      34   10227   10224      33   10230
   10224      33   10230   10227      34   10236   10233      33   10239   10233
      33   10239   10236      34   10245   10242      33   10248   10242      33
   10248   10245      34   10254   10251      33   10257   10251      33   10257
   10254      34   10263   10260      33   10266   10260      33   10266   10263
      34   10272   10269      33   10275   10269      33   10275   10272      34
   10281   10278      33   10284   10278      33   10284   10281      34   10290
   10287      33   10293   10287      33   10293   10290      34   10299   10296
      33   10302   10296      33   10302   10299      34   10308   10305      33
   10311   10305      33   10311   10308      34   10317   10314      33   10320
   10314      33   10320   10317      34   10326   10323      33   10329   10323
      33   10329   10326      34   10335   10332      33   10338   10332      33
   10338   10335      34   10344   10341      33   10347   10341      33   10347
   10344      34   10353   10350      33   10356   10350      33   10356   10353
      34   10362   10359      33   10365   10359      33   10365   10362      34
   10371   10368      33   10374   10368      33   10374   10371      34   10380
   10377      33   10383   10377      33   10383   10380      34   10389   10386
      33   10392   10386      33   10392   10389      34   10398   10395      33
   10401   10395      33   10401   10398      34   10407   10404      33   10410
   10404      33   10410   10407      34   10416   10413      33   10419   10413
      33   10419   10416      34   10425   10422      33   10428   10422      33
   10428   10425      34   10434   10431      33   10437   10431      33   10437
   10434      34   10443   10440      33   10446   10440      33   10446   10443
      34   10452   10449      33   10455   10449      33   10455   10452      34
   10461   10458      33   10464   10458      33   10464   10461      34   10470
   10467      33   10473   10467      33   10473   10470      34   10479   10476
      33   10482   10476      33   10482   10479      34   10488   10485      33
   10491   10485      33   10491   10488      34   10497   10494      33   10500
   10494      33   10500   10497      34   10506   10503      33   10509   10503
      33   10509   10506      34   10515   10512      33   10518   10512      33
   10518   10515      34   10524   10521      33   10527   10521      33   10527
   10524      34   10533   10530      33   10536   10530      33   10536   10533
      34   10542   10539      33   10545   10539      33   10545   10542      34
   10551   10548      33   10554   10548      33   10554   10551      34   10560
   10557      33   10563   10557      33   10563   10560      34   10569   10566
      33   10572   10566      33   10572   10569      34   10578   10575      33
   10581   10575      33   10581   10578      34   10587   10584      33   10590
   10584      33   10590   10587      34   10596   10593      33   10599   10593
      33   10599   10596      34   10605   10602      33   10608   10602      33
   10608   10605      34   10614   10611      33   10617   10611      33   10617
   10614      34   10623   10620      33   10626   10620      33   10626   10623
      34   10632   10629      33   10635   10629      33   10635   10632      34
   10641   10638      33   10644   10638      33   10644   10641      34   10650
   10647      33   10653   10647      33   10653   10650      34   10659   10656
      33   10662   10656      33   10662   10659      34   10668   10665      33
   10671   10665      33   10671   10668      34   10677   10674      33   10680
   10674      33   10680   10677      34   10686   10683      33   10689   10683
      33   10689   10686      34   10695   10692      33   10698   10692      33
   10698   10695      34   10704   10701      33   10707   10701      33   10707
   10704      34   10713   10710      33   10716   10710      33   10716   10713
      34   10722   10719      33   10725   10719      33   10725   10722      34
   10731   10728      33   10734   10728      33   10734   10731      34   10740
   10737      33   10743   10737      33   10743   10740      34   10749   10746
      33   10752   10746      33   10752   10749      34   10758   10755      33
   10761   10755      33   10761   10758      34   10767   10764      33   10770
   10764      33   10770   10767      34   10776   10773      33   10779   10773
      33   10779   10776      34   10785   10782      33   10788   10782      33
   10788   10785      34   10794   10791      33   10797   10791      33   10797
   10794      34   10803   10800      33   10806   10800      33   10806   10803
      34   10812   10809      33   10815   10809      33   10815   10812      34
   10821   10818      33   10824   10818      33   10824   10821      34   10830
   10827      33   10833   10827      33   10833   10830      34   10839   10836
      33   10842   10836      33   10842   10839      34   10848   10845      33
   10851   10845      33   10851   10848      34   10857   10854      33   10860
   10854      33   10860   10857      34   10866   10863      33   10869   10863
      33   10869   10866      34   10875   10872      33   10878   10872      33
   10878   10875      34   10884   10881      33   10887   10881      33   10887
   10884      34   10893   10890      33   10896   10890      33   10896   10893
      34   10902   10899      33   10905   10899      33   10905   10902      34
   10911   10908      33   10914   10908      33   10914   10911      34   10920
   10917      33   10923   10917      33   10923   10920      34   10929   10926
      33   10932   10926      33   10932   10929      34   10938   10935      33
   10941   10935      33   10941   10938      34   10947   10944      33   10950
   10944      33   10950   10947      34   10956   10953      33   10959   10953
      33   10959   10956      34   10965   10962      33   10968   10962      33
   10968   10965      34   10974   10971      33   10977   10971      33   10977
   10974      34   10983   10980      33   10986   10980      33   10986   10983
      34   10992   10989      33   10995   10989      33   10995   10992      34
   11001   10998      33   11004   10998      33   11004   11001      34   11010
   11007      33   11013   11007      33   11013   11010      34   11019   11016
      33   11022   11016      33   11022   11019      34   11028   11025      33
   11031   11025      33   11031   11028      34   11037   11034      33   11040
   11034      33   11040   11037      34   11046   11043      33   11049   11043
      33   11049   11046      34   11055   11052      33   11058   11052      33
   11058   11055      34   11064   11061      33   11067   11061      33   11067
   11064      34   11073   11070      33   11076   11070      33   11076   11073
      34   11082   11079      33   11085   11079      33   11085   11082      34
   11091   11088      33   11094   11088      33   11094   11091      34   11100
   11097      33   11103   11097      33   11103   11100      34   11109   11106
      33   11112   11106      33   11112   11109      34   11118   11115      33
   11121   11115      33   11121   11118      34   11127   11124      33   11130
   11124      33   11130   11127      34   11136   11133      33   11139   11133
      33   11139   11136      34   11145   11142      33   11148   11142      33
   11148   11145      34   11154   11151      33   11157   11151      33   11157
   11154      34   11163   11160      33   11166   11160      33   11166   11163
      34   11172   11169      33   11175   11169      33   11175   11172      34
   11181   11178      33   11184   11178      33   11184   11181      34   11190
   11187      33   11193   11187      33   11193   11190      34   11199   11196
      33   11202   11196      33   11202   11199      34   11208   11205      33
   11211   11205      33   11211   11208      34   11217   11214      33   11220
   11214      33   11220   11217      34   11226   11223      33   11229   11223
      33   11229   11226      34   11235   11232      33   11238   11232      33
   11238   11235      34   11244   11241      33   11247   11241      33   11247
   11244      34   11253   11250      33   11256   11250      33   11256   11253
      34   11262   11259      33   11265   11259      33   11265   11262      34
   11271   11268      33   11274   11268      33   11274   11271      34   11280
   11277      33   11283   11277      33   11283   11280      34   11289   11286
      33   11292   11286      33   11292   11289      34   11298   11295      33
   11301   11295      33   11301   11298      34   11307   11304      33   11310
   11304      33   11310   11307      34   11316   11313      33   11319   11313
      33   11319   11316      34   11325   11322      33   11328   11322      33
   11328   11325      34   11334   11331      33   11337   11331      33   11337
   11334      34   11343   11340      33   11346   11340      33   11346   11343
      34   11352   11349      33   11355   11349      33   11355   11352      34
   11361   11358      33   11364   11358      33   11364   11361      34   11370
   11367      33   11373   11367      33   11373   11370      34   11379   11376
      33   11382   11376      33   11382   11379      34   11388   11385      33
   11391   11385      33   11391   11388      34   11397   11394      33   11400
   11394      33   11400   11397      34   11406   11403      33   11409   11403
      33   11409   11406      34   11415   11412      33   11418   11412      33
   11418   11415      34   11424   11421      33   11427   11421      33   11427
   11424      34   11433   11430      33   11436   11430      33   11436   11433
      34   11442   11439      33   11445   11439      33   11445   11442      34
   11451   11448      33   11454   11448      33   11454   11451      34   11460
   11457      33   11463   11457      33   11463   11460      34   11469   11466
      33   11472   11466      33   11472   11469      34   11478   11475      33
   11481   11475      33   11481   11478      34   11487   11484      33   11490
   11484      33   11490   11487      34   11496   11493      33   11499   11493
      33   11499   11496      34   11505   11502      33   11508   11502      33
   11508   11505      34   11514   11511      33   11517   11511      33   11517
   11514      34   11523   11520      33   11526   11520      33   11526   11523
      34   11532   11529      33   11535   11529      33   11535   11532      34
   11541   11538      33   11544   11538      33   11544   11541      34   11550
   11547      33   11553   11547      33   11553   11550      34   11559   11556
      33   11562   11556      33   11562   11559      34   11568   11565      33
   11571   11565      33   11571   11568      34   11577   11574      33   11580
   11574      33   11580   11577      34   11586   11583      33   11589   11583
      33   11589   11586      34   11595   11592      33   11598   11592      33
   11598   11595      34   11604   11601      33   11607   11601      33   11607
   11604      34   11613   11610      33   11616   11610      33   11616   11613
      34   11622   11619      33   11625   11619      33   11625   11622      34
   11631   11628      33   11634   11628      33   11634   11631      34   11640
   11637      33   11643   11637      33   11643   11640      34   11649   11646
      33   11652   11646      33   11652   11649      34   11658   11655      33
   11661   11655      33   11661   11658      34   11667   11664      33   11670
   11664      33   11670   11667      34   11676   11673      33   11679   11673
      33   11679   11676      34   11685   11682      33   11688   11682      33
   11688   11685      34   11694   11691      33   11697   11691      33   11697
   11694      34   11703   11700      33   11706   11700      33   11706   11703
      34   11712   11709      33   11715   11709      33   11715   11712      34
   11721   11718      33   11724   11718      33   11724   11721      34   11730
   11727      33   11733   11727      33   11733   11730      34   11739   11736
      33   11742   11736      33   11742   11739      34   11748   11745      33
   11751   11745      33   11751   11748      34   11757   11754      33   11760
   11754      33   11760   11757      34   11766   11763      33   11769   11763
      33   11769   11766      34   11775   11772      33   11778   11772      33
   11778   11775      34   11784   11781      33   11787   11781      33   11787
   11784      34   11793   11790      33   11796   11790      33   11796   11793
      34   11802   11799      33   11805   11799      33   11805   11802      34
   11811   11808      33   11814   11808      33   11814   11811      34   11820
   11817      33   11823   11817      33   11823   11820      34   11829   11826
      33   11832   11826      33   11832   11829      34   11838   11835      33
   11841   11835      33   11841   11838      34   11847   11844      33   11850
   11844      33   11850   11847      34   11856   11853      33   11859   11853
      33   11859   11856      34   11865   11862      33   11868   11862      33
   11868   11865      34   11874   11871      33   11877   11871      33   11877
   11874      34   11883   11880      33   11886   11880      33   11886   11883
      34   11892   11889      33   11895   11889      33   11895   11892      34
   11901   11898      33   11904   11898      33   11904   11901      34   11910
   11907      33   11913   11907      33   11913   11910      34   11919   11916
      33   11922   11916      33   11922   11919      34   11928   11925      33
   11931   11925      33   11931   11928      34   11937   11934      33   11940
   11934      33   11940   11937      34   11946   11943      33   11949   11943
      33   11949   11946      34   11955   11952      33   11958   11952      33
   11958   11955      34   11964   11961      33   11967   11961      33   11967
   11964      34   11973   11970      33   11976   11970      33   11976   11973
      34   11982   11979      33   11985   11979      33   11985   11982      34
   11991   11988      33   11994   11988      33   11994   11991      34   12000
   11997      33   12003   11997      33   12003   12000      34   12009   12006
      33   12012   12006      33   12012   12009      34   12018   12015      33
   12021   12015      33   12021   12018      34   12027   12024      33   12030
   12024      33   12030   12027      34   12036   12033      33   12039   12033
      33   12039   12036      34   12045   12042      33   12048   12042      33
   12048   12045      34   12054   12051      33   12057   12051      33   12057
   12054      34   12063   12060      33   12066   12060      33   12066   12063
      34   12072   12069      33   12075   12069      33   12075   12072      34
   12081   12078      33   12084   12078      33   12084   12081      34   12090
   12087      33   12093   12087      33   12093   12090      34   12099   12096
      33   12102   12096      33   12102   12099      34   12108   12105      33
   12111   12105      33   12111   12108      34   12117   12114      33   12120
   12114      33   12120   12117      34   12126   12123      33   12129   12123
      33   12129   12126      34   12135   12132      33   12138   12132      33
   12138   12135      34   12144   12141      33   12147   12141      33   12147
   12144      34   12153   12150      33   12156   12150      33   12156   12153
      34   12162   12159      33   12165   12159      33   12165   12162      34
   12171   12168      33   12174   12168      33   12174   12171      34   12180
   12177      33   12183   12177      33   12183   12180      34   12189   12186
      33   12192   12186      33   12192   12189      34   12198   12195      33
   12201   12195      33   12201   12198      34   12207   12204      33   12210
   12204      33   12210   12207      34   12216   12213      33   12219   12213
      33   12219   12216      34   12225   12222      33   12228   12222      33
   12228   12225      34   12234   12231      33   12237   12231      33   12237
   12234      34   12243   12240      33   12246   12240      33   12246   12243
      34   12252   12249      33   12255   12249      33   12255   12252      34
   12261   12258      33   12264   12258      33   12264   12261      34   12270
   12267      33   12273   12267      33   12273   12270      34   12279   12276
      33   12282   12276      33   12282   12279      34   12288   12285      33
   12291   12285      33   12291   12288      34   12297   12294      33   12300
   12294      33   12300   12297      34   12306   12303      33   12309   12303
      33   12309   12306      34   12315   12312      33   12318   12312      33
   12318   12315      34   12324   12321      33   12327   12321      33   12327
   12324      34   12333   12330      33   12336   12330      33   12336   12333
      34   12342   12339      33   12345   12339      33   12345   12342      34
   12351   12348      33   12354   12348      33   12354   12351      34   12360
   12357      33   12363   12357      33   12363   12360      34   12369   12366
      33   12372   12366      33   12372   12369      34   12378   12375      33
   12381   12375      33   12381   12378      34   12387   12384      33   12390
   12384      33   12390   12387      34   12396   12393      33   12399   12393
      33   12399   12396      34   12405   12402      33   12408   12402      33
   12408   12405      34   12414   12411      33   12417   12411      33   12417
   12414      34   12423   12420      33   12426   12420      33   12426   12423
      34   12432   12429      33   12435   12429      33   12435   12432      34
   12441   12438      33   12444   12438      33   12444   12441      34   12450
   12447      33   12453   12447      33   12453   12450      34   12459   12456
      33   12462   12456      33   12462   12459      34   12468   12465      33
   12471   12465      33   12471   12468      34   12477   12474      33   12480
   12474      33   12480   12477      34   12486   12483      33   12489   12483
      33   12489   12486      34   12495   12492      33   12498   12492      33
   12498   12495      34   12504   12501      33   12507   12501      33   12507
   12504      34   12513   12510      33   12516   12510      33   12516   12513
      34   12522   12519      33   12525   12519      33   12525   12522      34
   12531   12528      33   12534   12528      33   12534   12531      34   12540
   12537      33   12543   12537      33   12543   12540      34   12549   12546
      33   12552   12546      33   12552   12549      34   12558   12555      33
   12561   12555      33   12561   12558      34   12567   12564      33   12570
   12564      33   12570   12567      34   12576   12573      33   12579   12573
      33   12579   12576      34   12585   12582      33   12588   12582      33
   12588   12585      34   12594   12591      33   12597   12591      33   12597
   12594      34   12603   12600      33   12606   12600      33   12606   12603
      34   12612   12609      33   12615   12609      33   12615   12612      34
   12621   12618      33   12624   12618      33   12624   12621      34   12630
   12627      33   12633   12627      33   12633   12630      34   12639   12636
      33   12642   12636      33   12642   12639      34   12648   12645      33
   12651   12645      33   12651   12648      34   12657   12654      33   12660
   12654      33   12660   12657      34   12666   12663      33   12669   12663
      33   12669   12666      34   12675   12672      33   12678   12672      33
   12678   12675      34   12684   12681      33   12687   12681      33   12687
   12684      34   12693   12690      33   12696   12690      33   12696   12693
      34   12702   12699      33   12705   12699      33   12705   12702      34
   12711   12708      33   12714   12708      33   12714   12711      34   12720
   12717      33   12723   12717      33   12723   12720      34   12729   12726
      33   12732   12726      33   12732   12729      34   12738   12735      33
   12741   12735      33   12741   12738      34   12747   12744      33   12750
   12744      33   12750   12747      34   12756   12753      33   12759   12753
      33   12759   12756      34   12765   12762      33   12768   12762      33
   12768   12765      34   12774   12771      33   12777   12771      33   12777
   12774      34   12783   12780      33   12786   12780      33   12786   12783
      34   12792   12789      33   12795   12789      33   12795   12792      34
   12801   12798      33   12804   12798      33   12804   12801      34   12810
   12807      33   12813   12807      33   12813   12810      34   12819   12816
      33   12822   12816      33   12822   12819      34   12828   12825      33
   12831   12825      33   12831   12828      34   12837   12834      33   12840
   12834      33   12840   12837      34   12846   12843      33   12849   12843
      33   12849   12846      34   12855   12852      33   12858   12852      33
   12858   12855      34   12864   12861      33   12867   12861      33   12867
   12864      34   12873   12870      33   12876   12870      33   12876   12873
      34   12882   12879      33   12885   12879      33   12885   12882      34
   12891   12888      33   12894   12888      33   12894   12891      34   12900
   12897      33   12903   12897      33   12903   12900      34   12909   12906
      33   12912   12906      33   12912   12909      34   12918   12915      33
   12921   12915      33   12921   12918      34   12927   12924      33   12930
   12924      33   12930   12927      34   12936   12933      33   12939   12933
      33   12939   12936      34   12945   12942      33   12948   12942      33
   12948   12945      34   12954   12951      33   12957   12951      33   12957
   12954      34   12963   12960      33   12966   12960      33   12966   12963
      34   12972   12969      33   12975   12969      33   12975   12972      34
   12981   12978      33   12984   12978      33   12984   12981      34   12990
   12987      33   12993   12987      33   12993   12990      34   12999   12996
      33   13002   12996      33   13002   12999      34   13008   13005      33
   13011   13005      33   13011   13008      34   13017   13014      33   13020
   13014      33   13020   13017      34   13026   13023      33   13029   13023
      33   13029   13026      34   13035   13032      33   13038   13032      33
   13038   13035      34   13044   13041      33   13047   13041      33   13047
   13044      34   13053   13050      33   13056   13050      33   13056   13053
      34   13062   13059      33   13065   13059      33   13065   13062      34
   13071   13068      33   13074   13068      33   13074   13071      34   13080
   13077      33   13083   13077      33   13083   13080      34   13089   13086
      33   13092   13086      33   13092   13089      34   13098   13095      33
   13101   13095      33   13101   13098      34   13107   13104      33   13110
   13104      33   13110   13107      34   13116   13113      33   13119   13113
      33   13119   13116      34   13125   13122      33   13128   13122      33
   13128   13125      34   13134   13131      33   13137   13131      33   13137
   13134      34   13143   13140      33   13146   13140      33   13146   13143
      34   13152   13149      33   13155   13149      33   13155   13152      34
   13161   13158      33   13164   13158      33   13164   13161      34   13170
   13167      33   13173   13167      33   13173   13170      34   13179   13176
      33   13182   13176      33   13182   13179      34   13188   13185      33
   13191   13185      33   13191   13188      34   13197   13194      33   13200
   13194      33   13200   13197      34   13206   13203      33   13209   13203
      33   13209   13206      34   13215   13212      33   13218   13212      33
   13218   13215      34   13224   13221      33   13227   13221      33   13227
   13224      34   13233   13230      33   13236   13230      33   13236   13233
      34   13242   13239      33   13245   13239      33   13245   13242      34
   13251   13248      33   13254   13248      33   13254   13251      34   13260
   13257      33   13263   13257      33   13263   13260      34   13269   13266
      33   13272   13266      33   13272   13269      34   13278   13275      33
   13281   13275      33   13281   13278      34   13287   13284      33   13290
   13284      33   13290   13287      34   13296   13293      33   13299   13293
      33   13299   13296      34   13305   13302      33   13308   13302      33
   13308   13305      34   13314   13311      33   13317   13311      33   13317
   13314      34   13323   13320      33   13326   13320      33   13326   13323
      34   13332   13329      33   13335   13329      33   13335   13332      34
   13341   13338      33   13344   13338      33   13344   13341      34   13350
   13347      33   13353   13347      33   13353   13350      34   13359   13356
      33   13362   13356      33   13362   13359      34   13368   13365      33
   13371   13365      33   13371   13368      34   13377   13374      33   13380
   13374      33   13380   13377      34   13386   13383      33   13389   13383
      33   13389   13386      34   13395   13392      33   13398   13392      33
   13398   13395      34   13404   13401      33   13407   13401      33   13407
   13404      34   13413   13410      33   13416   13410      33   13416   13413
      34   13422   13419      33   13425   13419      33   13425   13422      34
   13431   13428      33   13434   13428      33   13434   13431      34   13440
   13437      33   13443   13437      33   13443   13440      34   13449   13446
      33   13452   13446      33   13452   13449      34   13458   13455      33
   13461   13455      33   13461   13458      34   13467   13464      33   13470
   13464      33   13470   13467      34   13476   13473      33   13479   13473
      33   13479   13476      34   13485   13482      33   13488   13482      33
   13488   13485      34   13494   13491      33   13497   13491      33   13497
   13494      34   13503   13500      33   13506   13500      33   13506   13503
      34   13512   13509      33   13515   13509      33   13515   13512      34
   13521   13518      33   13524   13518      33   13524   13521      34   13530
   13527      33   13533   13527      33   13533   13530      34   13539   13536
      33   13542   13536      33   13542   13539      34   13548   13545      33
   13551   13545      33   13551   13548      34   13557   13554      33   13560
   13554      33   13560   13557      34   13566   13563      33   13569   13563
      33   13569   13566      34   13575   13572      33   13578   13572      33
   13578   13575      34   13584   13581      33   13587   13581      33   13587
   13584      34   13593   13590      33   13596   13590      33   13596   13593
      34   13602   13599      33   13605   13599      33   13605   13602      34
   13611   13608      33   13614   13608      33   13614   13611      34   13620
   13617      33   13623   13617      33   13623   13620      34   13629   13626
      33   13632   13626      33   13632   13629      34   13638   13635      33
   13641   13635      33   13641   13638      34   13647   13644      33   13650
   13644      33   13650   13647      34   13656   13653      33   13659   13653
      33   13659   13656      34   13665   13662      33   13668   13662      33
   13668   13665      34   13674   13671      33   13677   13671      33   13677
   13674      34   13683   13680      33   13686   13680      33   13686   13683
      34   13692   13689      33   13695   13689      33   13695   13692      34
   13701   13698      33   13704   13698      33   13704   13701      34   13710
   13707      33   13713   13707      33   13713   13710      34   13719   13716
      33   13722   13716      33   13722   13719      34   13728   13725      33
   13731   13725      33   13731   13728      34   13737   13734      33   13740
   13734      33   13740   13737      34   13746   13743      33   13749   13743
      33   13749   13746      34   13755   13752      33   13758   13752      33
   13758   13755      34   13764   13761      33   13767   13761      33   13767
   13764      34   13773   13770      33   13776   13770      33   13776   13773
      34   13782   13779      33   13785   13779      33   13785   13782      34
   13791   13788      33   13794   13788      33   13794   13791      34   13800
   13797      33   13803   13797      33   13803   13800      34   13809   13806
      33   13812   13806      33   13812   13809      34   13818   13815      33
   13821   13815      33   13821   13818      34   13827   13824      33   13830
   13824      33   13830   13827      34   13836   13833      33   13839   13833
      33   13839   13836      34   13845   13842      33   13848   13842      33
   13848   13845      34   13854   13851      33   13857   13851      33   13857
   13854      34   13863   13860      33   13866   13860      33   13866   13863
      34   13872   13869      33   13875   13869      33   13875   13872      34
   13881   13878      33   13884   13878      33   13884   13881      34   13890
   13887      33   13893   13887      33   13893   13890      34   13899   13896
      33   13902   13896      33   13902   13899      34   13908   13905      33
   13911   13905      33   13911   13908      34   13917   13914      33   13920
   13914      33   13920   13917      34   13926   13923      33   13929   13923
      33   13929   13926      34   13935   13932      33   13938   13932      33
   13938   13935      34   13944   13941      33   13947   13941      33   13947
   13944      34   13953   13950      33   13956   13950      33   13956   13953
      34   13962   13959      33   13965   13959      33   13965   13962      34
   13971   13968      33   13974   13968      33   13974   13971      34   13980
   13977      33   13983   13977      33   13983   13980      34   13989   13986
      33   13992   13986      33   13992   13989      34   13998   13995      33
   14001   13995      33   14001   13998      34   14007   14004      33   14010
   14004      33   14010   14007      34   14016   14013      33   14019   14013
      33   14019   14016      34   14025   14022      33   14028   14022      33
   14028   14025      34   14034   14031      33   14037   14031      33   14037
   14034      34   14043   14040      33   14046   14040      33   14046   14043
      34   14052   14049      33   14055   14049      33   14055   14052      34
   14061   14058      33   14064   14058      33   14064   14061      34   14070
   14067      33   14073   14067      33   14073   14070      34   14079   14076
      33   14082   14076      33   14082   14079      34   14088   14085      33
   14091   14085      33   14091   14088      34   14097   14094      33   14100
   14094      33   14100   14097      34   14106   14103      33   14109   14103
      33   14109   14106      34   14115   14112      33   14118   14112      33
   14118   14115      34   14124   14121      33   14127   14121      33   14127
   14124      34   14133   14130      33   14136   14130      33   14136   14133
      34   14142   14139      33   14145   14139      33   14145   14142      34
   14151   14148      33   14154   14148      33   14154   14151      34   14160
   14157      33   14163   14157      33   14163   14160      34   14169   14166
      33   14172   14166      33   14172   14169      34   14178   14175      33
   14181   14175      33   14181   14178      34   14187   14184      33   14190
   14184      33   14190   14187      34   14196   14193      33   14199   14193
      33   14199   14196      34   14205   14202      33   14208   14202      33
   14208   14205      34   14214   14211      33   14217   14211      33   14217
   14214      34   14223   14220      33   14226   14220      33   14226   14223
      34   14232   14229      33   14235   14229      33   14235   14232      34
   14241   14238      33   14244   14238      33   14244   14241      34   14250
   14247      33   14253   14247      33   14253   14250      34   14259   14256
      33   14262   14256      33   14262   14259      34   14268   14265      33
   14271   14265      33   14271   14268      34   14277   14274      33   14280
   14274      33   14280   14277      34   14286   14283      33   14289   14283
      33   14289   14286      34   14295   14292      33   14298   14292      33
   14298   14295      34   14304   14301      33   14307   14301      33   14307
   14304      34   14313   14310      33   14316   14310      33   14316   14313
      34   14322   14319      33   14325   14319      33   14325   14322      34
   14331   14328      33   14334   14328      33   14334   14331      34   14340
   14337      33   14343   14337      33   14343   14340      34   14349   14346
      33   14352   14346      33   14352   14349      34   14358   14355      33
   14361   14355      33   14361   14358      34   14367   14364      33   14370
   14364      33   14370   14367      34   14376   14373      33   14379   14373
      33   14379   14376      34   14385   14382      33   14388   14382      33
   14388   14385      34   14394   14391      33   14397   14391      33   14397
   14394      34   14403   14400      33   14406   14400      33   14406   14403
      34   14412   14409      33   14415   14409      33   14415   14412      34
   14421   14418      33   14424   14418      33   14424   14421      34   14430
   14427      33   14433   14427      33   14433   14430      34   14439   14436
      33   14442   14436      33   14442   14439      34   14448   14445      33
   14451   14445      33   14451   14448      34   14457   14454      33   14460
   14454      33   14460   14457      34   14466   14463      33   14469   14463
      33   14469   14466      34   14475   14472      33   14478   14472      33
   14478   14475      34   14484   14481      33   14487   14481      33   14487
   14484      34   14493   14490      33   14496   14490      33   14496   14493
      34   14502   14499      33   14505   14499      33   14505   14502      34
   14511   14508      33   14514   14508      33   14514   14511      34   14520
   14517      33   14523   14517      33   14523   14520      34   14529   14526
      33   14532   14526      33   14532   14529      34   14538   14535      33
   14541   14535      33   14541   14538      34   14547   14544      33   14550
   14544      33   14550   14547      34   14556   14553      33   14559   14553
      33   14559   14556      34   14565   14562      33   14568   14562      33
   14568   14565      34   14574   14571      33   14577   14571      33   14577
   14574      34   14583   14580      33   14586   14580      33   14586   14583
      34   14592   14589      33   14595   14589      33   14595   14592      34
   14601   14598      33   14604   14598      33   14604   14601      34   14610
   14607      33   14613   14607      33   14613   14610      34   14619   14616
      33   14622   14616      33   14622   14619      34   14628   14625      33
   14631   14625      33   14631   14628      34   14637   14634      33   14640
   14634      33   14640   14637      34   14646   14643      33   14649   14643
      33   14649   14646      34   14655   14652      33   14658   14652      33
   14658   14655      34   14664   14661      33   14667   14661      33   14667
   14664      34   14673   14670      33   14676   14670      33   14676   14673
      34   14682   14679      33   14685   14679      33   14685   14682      34
   14691   14688      33   14694   14688      33   14694   14691      34   14700
   14697      33   14703   14697      33   14703   14700      34   14709   14706
      33   14712   14706      33   14712   14709      34   14718   14715      33
   14721   14715      33   14721   14718      34   14727   14724      33   14730
   14724      33   14730   14727      34   14736   14733      33   14739   14733
      33   14739   14736      34   14745   14742      33   14748   14742      33
   14748   14745      34   14754   14751      33   14757   14751      33   14757
   14754      34   14763   14760      33   14766   14760      33   14766   14763
      34   14772   14769      33   14775   14769      33   14775   14772      34
   14781   14778      33   14784   14778      33   14784   14781      34   14790
   14787      33   14793   14787      33   14793   14790      34   14799   14796
      33   14802   14796      33   14802   14799      34   14808   14805      33
   14811   14805      33   14811   14808      34   14817   14814      33   14820
   14814      33   14820   14817      34   14826   14823      33   14829   14823
      33   14829   14826      34   14835   14832      33   14838   14832      33
   14838   14835      34   14844   14841      33   14847   14841      33   14847
   14844      34   14853   14850      33   14856   14850      33   14856   14853
      34   14862   14859      33   14865   14859      33   14865   14862      34
   14871   14868      33   14874   14868      33   14874   14871      34   14880
   14877      33   14883   14877      33   14883   14880      34   14889   14886
      33   14892   14886      33   14892   14889      34   14898   14895      33
   14901   14895      33   14901   14898      34   14907   14904      33   14910
   14904      33   14910   14907      34   14916   14913      33   14919   14913
      33   14919   14916      34   14925   14922      33   14928   14922      33
   14928   14925      34   14934   14931      33   14937   14931      33   14937
   14934      34   14943   14940      33   14946   14940      33   14946   14943
      34   14952   14949      33   14955   14949      33   14955   14952      34
   14961   14958      33   14964   14958      33   14964   14961      34   14970
   14967      33   14973   14967      33   14973   14970      34   14979   14976
      33   14982   14976      33   14982   14979      34   14988   14985      33
   14991   14985      33   14991   14988      34   14997   14994      33   15000
   14994      33   15000   14997      34   15006   15003      33   15009   15003
      33   15009   15006      34   15015   15012      33   15018   15012      33
   15018   15015      34   15024   15021      33   15027   15021      33   15027
   15024      34   15033   15030      33   15036   15030      33   15036   15033
      34   15042   15039      33   15045   15039      33   15045   15042      34
   15051   15048      33   15054   15048      33   15054   15051      34   15060
   15057      33   15063   15057      33   15063   15060      34   15069   15066
      33   15072   15066      33   15072   15069      34   15078   15075      33
   15081   15075      33   15081   15078      34   15087   15084      33   15090
   15084      33   15090   15087      34   15096   15093      33   15099   15093
      33   15099   15096      34   15105   15102      33   15108   15102      33
   15108   15105      34   15114   15111      33   15117   15111      33   15117
   15114      34   15123   15120      33   15126   15120      33   15126   15123
      34   15132   15129      33   15135   15129      33   15135   15132      34
   15141   15138      33   15144   15138      33   15144   15141      34   15150
   15147      33   15153   15147      33   15153   15150      34   15159   15156
      33   15162   15156      33   15162   15159      34   15168   15165      33
   15171   15165      33   15171   15168      34   15177   15174      33   15180
   15174      33   15180   15177      34   15186   15183      33   15189   15183
      33   15189   15186      34   15195   15192      33   15198   15192      33
   15198   15195      34   15204   15201      33   15207   15201      33   15207
   15204      34   15213   15210      33   15216   15210      33   15216   15213
      34   15222   15219      33   15225   15219      33   15225   15222      34
   15231   15228      33   15234   15228      33   15234   15231      34   15240
   15237      33   15243   15237      33   15243   15240      34   15249   15246
      33   15252   15246      33   15252   15249      34   15258   15255      33
   15261   15255      33   15261   15258      34   15267   15264      33   15270
   15264      33   15270   15267      34   15276   15273      33   15279   15273
      33   15279   15276      34   15285   15282      33   15288   15282      33
   15288   15285      34   15294   15291      33   15297   15291      33   15297
   15294      34   15303   15300      33   15306   15300      33   15306   15303
      34   15312   15309      33   15315   15309      33   15315   15312      34
   15321   15318      33   15324   15318      33   15324   15321      34   15330
   15327      33   15333   15327      33   15333   15330      34   15339   15336
      33   15342   15336      33   15342   15339      34   15348   15345      33
   15351   15345      33   15351   15348      34   15357   15354      33   15360
   15354      33   15360   15357      34   15366   15363      33   15369   15363
      33   15369   15366      34   15375   15372      33   15378   15372      33
   15378   15375      34   15384   15381      33   15387   15381      33   15387
   15384      34   15393   15390      33   15396   15390      33   15396   15393
      34   15402   15399      33   15405   15399      33   15405   15402      34
   15411   15408      33   15414   15408      33   15414   15411      34   15420
   15417      33   15423   15417      33   15423   15420      34   15429   15426
      33   15432   15426      33   15432   15429      34   15438   15435      33
   15441   15435      33   15441   15438      34   15447   15444      33   15450
   15444      33   15450   15447      34   15456   15453      33   15459   15453
      33   15459   15456      34   15465   15462      33   15468   15462      33
   15468   15465      34   15474   15471      33   15477   15471      33   15477
   15474      34   15483   15480      33   15486   15480      33   15486   15483
      34   15492   15489      33   15495   15489      33   15495   15492      34
   15501   15498      33   15504   15498      33   15504   15501      34   15510
   15507      33   15513   15507      33   15513   15510      34   15519   15516
      33   15522   15516      33   15522   15519      34   15528   15525      33
   15531   15525      33   15531   15528      34   15537   15534      33   15540
   15534      33   15540   15537      34   15546   15543      33   15549   15543
      33   15549   15546      34   15555   15552      33   15558   15552      33
   15558   15555      34   15564   15561      33   15567   15561      33   15567
   15564      34   15573   15570      33   15576   15570      33   15576   15573
      34   15582   15579      33   15585   15579      33   15585   15582      34
   15591   15588      33   15594   15588      33   15594   15591      34   15600
   15597      33   15603   15597      33   15603   15600      34   15609   15606
      33   15612   15606      33   15612   15609      34   15618   15615      33
   15621   15615      33   15621   15618      34   15627   15624      33   15630
   15624      33   15630   15627      34   15636   15633      33   15639   15633
      33   15639   15636      34   15645   15642      33   15648   15642      33
   15648   15645      34   15654   15651      33   15657   15651      33   15657
   15654      34   15663   15660      33   15666   15660      33   15666   15663
      34   15672   15669      33   15675   15669      33   15675   15672      34
   15681   15678      33   15684   15678      33   15684   15681      34   15690
   15687      33   15693   15687      33   15693   15690      34   15699   15696
      33   15702   15696      33   15702   15699      34   15708   15705      33
   15711   15705      33   15711   15708      34   15717   15714      33   15720
   15714      33   15720   15717      34   15726   15723      33   15729   15723
      33   15729   15726      34   15735   15732      33   15738   15732      33
   15738   15735      34   15744   15741      33   15747   15741      33   15747
   15744      34   15753   15750      33   15756   15750      33   15756   15753
      34   15762   15759      33   15765   15759      33   15765   15762      34
   15771   15768      33   15774   15768      33   15774   15771      34   15780
   15777      33   15783   15777      33   15783   15780      34   15789   15786
      33   15792   15786      33   15792   15789      34   15798   15795      33
   15801   15795      33   15801   15798      34   15807   15804      33   15810
   15804      33   15810   15807      34   15816   15813      33   15819   15813
      33   15819   15816      34   15825   15822      33   15828   15822      33
   15828   15825      34   15834   15831      33   15837   15831      33   15837
   15834      34   15843   15840      33   15846   15840      33   15846   15843
      34   15852   15849      33   15855   15849      33   15855   15852      34
   15861   15858      33   15864   15858      33   15864   15861      34   15870
   15867      33   15873   15867      33   15873   15870      34   15879   15876
      33   15882   15876      33   15882   15879      34   15888   15885      33
   15891   15885      33   15891   15888      34   15897   15894      33   15900
   15894      33   15900   15897      34   15906   15903      33   15909   15903
      33   15909   15906      34   15915   15912      33   15918   15912      33
   15918   15915      34   15924   15921      33   15927   15921      33   15927
   15924      34   15933   15930      33   15936   15930      33   15936   15933
      34   15942   15939      33   15945   15939      33   15945   15942      34
   15951   15948      33   15954   15948      33   15954   15951      34   15960
   15957      33   15963   15957      33   15963   15960      34   15969   15966
      33   15972   15966      33   15972   15969      34   15978   15975      33
   15981   15975      33   15981   15978      34   15987   15984      33   15990
   15984      33   15990   15987      34   15996   15993      33   15999   15993
      33   15999   15996      34   16005   16002      33   16008   16002      33
   16008   16005      34   16014   16011      33   16017   16011      33   16017
   16014      34   16023   16020      33   16026   16020      33   16026   16023
      34   16032   16029      33   16035   16029      33   16035   16032      34
   16041   16038      33   16044   16038      33   16044   16041      34   16050
   16047      33   16053   16047      33   16053   16050      34   16059   16056
      33   16062   16056      33   16062   16059      34   16068   16065      33
   16071   16065      33   16071   16068      34   16077   16074      33   16080
   16074      33   16080   16077      34   16086   16083      33   16089   16083
      33   16089   16086      34   16095   16092      33   16098   16092      33
   16098   16095      34   16104   16101      33   16107   16101      33   16107
   16104      34   16113   16110      33   16116   16110      33   16116   16113
      34   16122   16119      33   16125   16119      33   16125   16122      34
   16131   16128      33   16134   16128      33   16134   16131      34   16140
   16137      33   16143   16137      33   16143   16140      34   16149   16146
      33   16152   16146      33   16152   16149      34   16158   16155      33
   16161   16155      33   16161   16158      34   16167   16164      33   16170
   16164      33   16170   16167      34   16176   16173      33   16179   16173
      33   16179   16176      34   16185   16182      33   16188   16182      33
   16188   16185      34   16194   16191      33   16197   16191      33   16197
   16194      34   16203   16200      33   16206   16200      33   16206   16203
      34   16212   16209      33   16215   16209      33   16215   16212      34
   16221   16218      33   16224   16218      33   16224   16221      34   16230
   16227      33   16233   16227      33   16233   16230      34   16239   16236
      33   16242   16236      33   16242   16239      34   16248   16245      33
   16251   16245      33   16251   16248      34   16257   16254      33   16260
   16254      33   16260   16257      34   16266   16263      33   16269   16263
      33   16269   16266      34   16275   16272      33   16278   16272      33
   16278   16275      34   16284   16281      33   16287   16281      33   16287
   16284      34   16293   16290      33   16296   16290      33   16296   16293
      34   16302   16299      33   16305   16299      33   16305   16302      34
   16311   16308      33   16314   16308      33   16314   16311      34   16320
   16317      33   16323   16317      33   16323   16320      34   16329   16326
      33   16332   16326      33   16332   16329      34   16338   16335      33
   16341   16335      33   16341   16338      34   16347   16344      33   16350
   16344      33   16350   16347      34   16356   16353      33   16359   16353
      33   16359   16356      34   16365   16362      33   16368   16362      33
   16368   16365      34   16374   16371      33   16377   16371      33   16377
   16374      34   16383   16380      33   16386   16380      33   16386   16383
      34   16392   16389      33   16395   16389      33   16395   16392      34
   16401   16398      33   16404   16398      33   16404   16401      34   16410
   16407      33   16413   16407      33   16413   16410      34   16419   16416
      33   16422   16416      33   16422   16419      34   16428   16425      33
   16431   16425      33   16431   16428      34   16437   16434      33   16440
   16434      33   16440   16437      34   16446   16443      33   16449   16443
      33   16449   16446      34   16455   16452      33   16458   16452      33
   16458   16455      34   16464   16461      33   16467   16461      33   16467
   16464      34   16473   16470      33   16476   16470      33   16476   16473
      34   16482   16479      33   16485   16479      33   16485   16482      34
   16491   16488      33   16494   16488      33   16494   16491      34   16500
   16497      33   16503   16497      33   16503   16500      34   16509   16506
      33   16512   16506      33   16512   16509      34   16518   16515      33
   16521   16515      33   16521   16518      34   16527   16524      33   16530
   16524      33   16530   16527      34   16536   16533      33   16539   16533
      33   16539   16536      34   16545   16542      33   16548   16542      33
   16548   16545      34   16554   16551      33   16557   16551      33   16557
   16554      34   16563   16560      33   16566   16560      33   16566   16563
      34   16572   16569      33   16575   16569      33   16575   16572      34
   16581   16578      33   16584   16578      33   16584   16581      34   16590
   16587      33   16593   16587      33   16593   16590      34   16599   16596
      33   16602   16596      33   16602   16599      34   16608   16605      33
   16611   16605      33   16611   16608      34   16617   16614      33   16620
   16614      33   16620   16617      34   16626   16623      33   16629   16623
      33   16629   16626      34   16635   16632      33   16638   16632      33
   16638   16635      34   16644   16641      33   16647   16641      33   16647
   16644      34   16653   16650      33   16656   16650      33   16656   16653
      34   16662   16659      33   16665   16659      33   16665   16662      34
   16671   16668      33   16674   16668      33   16674   16671      34   16680
   16677      33   16683   16677      33   16683   16680      34   16689   16686
      33   16692   16686      33   16692   16689      34   16698   16695      33
   16701   16695      33   16701   16698      34   16707   16704      33   16710
   16704      33   16710   16707      34   16716   16713      33   16719   16713
      33   16719   16716      34   16725   16722      33   16728   16722      33
   16728   16725      34   16734   16731      33   16737   16731      33   16737
   16734      34   16743   16740      33   16746   16740      33   16746   16743
      34   16752   16749      33   16755   16749      33   16755   16752      34
   16761   16758      33   16764   16758      33   16764   16761      34   16770
   16767      33   16773   16767      33   16773   16770      34   16779   16776
      33   16782   16776      33   16782   16779      34   16788   16785      33
   16791   16785      33   16791   16788      34   16797   16794      33   16800
   16794      33   16800   16797      34   16806   16803      33   16809   16803
      33   16809   16806      34   16815   16812      33   16818   16812      33
   16818   16815      34   16824   16821      33   16827   16821      33   16827
   16824      34   16833   16830      33   16836   16830      33   16836   16833
      34   16842   16839      33   16845   16839      33   16845   16842      34
   16851   16848      33   16854   16848      33   16854   16851      34   16860
   16857      33   16863   16857      33   16863   16860      34   16869   16866
      33   16872   16866      33   16872   16869      34   16878   16875      33
   16881   16875      33   16881   16878      34   16887   16884      33   16890
   16884      33   16890   16887      34   16896   16893      33   16899   16893
      33   16899   16896      34   16905   16902      33   16908   16902      33
   16908   16905      34   16914   16911      33   16917   16911      33   16917
   16914      34   16923   16920      33   16926   16920      33   16926   16923
      34   16932   16929      33   16935   16929      33   16935   16932      34
   16941   16938      33   16944   16938      33   16944   16941      34   16950
   16947      33   16953   16947      33   16953   16950      34   16959   16956
      33   16962   16956      33   16962   16959      34   16968   16965      33
   16971   16965      33   16971   16968      34   16977   16974      33   16980
   16974      33   16980   16977      34   16986   16983      33   16989   16983
      33   16989   16986      34   16995   16992      33   16998   16992      33
   16998   16995      34   17004   17001      33   17007   17001      33   17007
   17004      34   17013   17010      33   17016   17010      33   17016   17013
      34   17022   17019      33   17025   17019      33   17025   17022      34
   17031   17028      33   17034   17028      33   17034   17031      34   17040
   17037      33   17043   17037      33   17043   17040      34   17049   17046
      33   17052   17046      33   17052   17049      34   17058   17055      33
   17061   17055      33   17061   17058      34   17067   17064      33   17070
   17064      33   17070   17067      34   17076   17073      33   17079   17073
      33   17079   17076      34   17085   17082      33   17088   17082      33
   17088   17085      34   17094   17091      33   17097   17091      33   17097
   17094      34   17103   17100      33   17106   17100      33   17106   17103
      34   17112   17109      33   17115   17109      33   17115   17112      34
   17121   17118      33   17124   17118      33   17124   17121      34   17130
   17127      33   17133   17127      33   17133   17130      34   17139   17136
      33   17142   17136      33   17142   17139      34   17148   17145      33
   17151   17145      33   17151   17148      34   17157   17154      33   17160
   17154      33   17160   17157      34   17166   17163      33   17169   17163
      33   17169   17166      34   17175   17172      33   17178   17172      33
   17178   17175      34   17184   17181      33   17187   17181      33   17187
   17184      34   17193   17190      33   17196   17190      33   17196   17193
      34   17202   17199      33   17205   17199      33   17205   17202      34
   17211   17208      33   17214   17208      33   17214   17211      34   17220
   17217      33   17223   17217      33   17223   17220      34   17229   17226
      33   17232   17226      33   17232   17229      34   17238   17235      33
   17241   17235      33   17241   17238      34   17247   17244      33   17250
   17244      33   17250   17247      34   17256   17253      33   17259   17253
      33   17259   17256      34   17265   17262      33   17268   17262      33
   17268   17265      34   17274   17271      33   17277   17271      33   17277
   17274      34   17283   17280      33   17286   17280      33   17286   17283
      34   17292   17289      33   17295   17289      33   17295   17292      34
   17301   17298      33   17304   17298      33   17304   17301      34   17310
   17307      33   17313   17307      33   17313   17310      34   17319   17316
      33   17322   17316      33   17322   17319      34   17328   17325      33
   17331   17325      33   17331   17328      34   17337   17334      33   17340
   17334      33   17340   17337      34   17346   17343      33   17349   17343
      33   17349   17346      34   17355   17352      33   17358   17352      33
   17358   17355      34   17364   17361      33   17367   17361      33   17367
   17364      34   17373   17370      33   17376   17370      33   17376   17373
      34   17382   17379      33   17385   17379      33   17385   17382      34
   17391   17388      33   17394   17388      33   17394   17391      34   17400
   17397      33   17403   17397      33   17403   17400      34   17409   17406
      33   17412   17406      33   17412   17409      34   17418   17415      33
   17421   17415      33   17421   17418      34   17427   17424      33   17430
   17424      33   17430   17427      34   17436   17433      33   17439   17433
      33   17439   17436      34   17445   17442      33   17448   17442      33
   17448   17445      34   17454   17451      33   17457   17451      33   17457
   17454      34   17463   17460      33   17466   17460      33   17466   17463
      34   17472   17469      33   17475   17469      33   17475   17472      34
   17481   17478      33   17484   17478      33   17484   17481      34   17490
   17487      33   17493   17487      33   17493   17490      34   17499   17496
      33   17502   17496      33   17502   17499      34   17508   17505      33
   17511   17505      33   17511   17508      34   17517   17514      33   17520
   17514      33   17520   17517      34   17526   17523      33   17529   17523
      33   17529   17526      34   17535   17532      33   17538   17532      33
   17538   17535      34   17544   17541      33   17547   17541      33   17547
   17544      34   17553   17550      33   17556   17550      33   17556   17553
      34   17562   17559      33   17565   17559      33   17565   17562      34
   17571   17568      33   17574   17568      33   17574   17571      34   17580
   17577      33   17583   17577      33   17583   17580      34   17589   17586
      33   17592   17586      33   17592   17589      34   17598   17595      33
   17601   17595      33   17601   17598      34   17607   17604      33   17610
   17604      33   17610   17607      34   17616   17613      33   17619   17613
      33   17619   17616      34   17625   17622      33   17628   17622      33
   17628   17625      34   17634   17631      33   17637   17631      33   17637
   17634      34   17643   17640      33   17646   17640      33   17646   17643
      34   17652   17649      33   17655   17649      33   17655   17652      34
   17661   17658      33   17664   17658      33   17664   17661      34   17670
   17667      33   17673   17667      33   17673   17670      34   17679   17676
      33   17682   17676      33   17682   17679      34   17688   17685      33
   17691   17685      33   17691   17688      34   17697   17694      33   17700
   17694      33   17700   17697      34   17706   17703      33   17709   17703
      33   17709   17706      34   17715   17712      33   17718   17712      33
   17718   17715      34   17724   17721      33   17727   17721      33   17727
   17724      34   17733   17730      33   17736   17730      33   17736   17733
      34   17742   17739      33   17745   17739      33   17745   17742      34
   17751   17748      33   17754   17748      33   17754   17751      34   17760
   17757      33   17763   17757      33   17763   17760      34   17769   17766
      33   17772   17766      33   17772   17769      34   17778   17775      33
   17781   17775      33   17781   17778      34   17787   17784      33   17790
   17784      33   17790   17787      34   17796   17793      33   17799   17793
      33   17799   17796      34   17805   17802      33   17808   17802      33
   17808   17805      34   17814   17811      33   17817   17811      33   17817
   17814      34   17823   17820      33   17826   17820      33   17826   17823
      34   17832   17829      33   17835   17829      33   17835   17832      34
   17841   17838      33   17844   17838      33   17844   17841      34   17850
   17847      33   17853   17847      33   17853   17850      34   17859   17856
      33   17862   17856      33   17862   17859      34   17868   17865      33
   17871   17865      33   17871   17868      34   17877   17874      33   17880
   17874      33   17880   17877      34   17886   17883      33   17889   17883
      33   17889   17886      34   17895   17892      33   17898   17892      33
   17898   17895      34   17904   17901      33   17907   17901      33   17907
   17904      34   17913   17910      33   17916   17910      33   17916   17913
      34   17922   17919      33   17925   17919      33   17925   17922      34
   17931   17928      33   17934   17928      33   17934   17931      34   17940
   17937      33   17943   17937      33   17943   17940      34   17949   17946
      33   17952   17946      33   17952   17949      34   17958   17955      33
   17961   17955      33   17961   17958      34   17967   17964      33   17970
   17964      33   17970   17967      34   17976   17973      33   17979   17973
      33   17979   17976      34   17985   17982      33   17988   17982      33
   17988   17985      34   17994   17991      33   17997   17991      33   17997
   17994      34   18003   18000      33   18006   18000      33   18006   18003
      34   18012   18009      33   18015   18009      33   18015   18012      34
   18021   18018      33   18024   18018      33   18024   18021      34   18030
   18027      33   18033   18027      33   18033   18030      34   18039   18036
      33   18042   18036      33   18042   18039      34   18048   18045      33
   18051   18045      33   18051   18048      34   18057   18054      33   18060
   18054      33   18060   18057      34   18066   18063      33   18069   18063
      33   18069   18066      34   18075   18072      33   18078   18072      33
   18078   18075      34   18084   18081      33   18087   18081      33   18087
   18084      34   18093   18090      33   18096   18090      33   18096   18093
      34   18102   18099      33   18105   18099      33   18105   18102      34
   18111   18108      33   18114   18108      33   18114   18111      34   18120
   18117      33   18123   18117      33   18123   18120      34   18129   18126
      33   18132   18126      33   18132   18129      34   18138   18135      33
   18141   18135      33   18141   18138      34   18147   18144      33   18150
   18144      33   18150   18147      34   18156   18153      33   18159   18153
      33   18159   18156      34   18165   18162      33   18168   18162      33
   18168   18165      34   18174   18171      33   18177   18171      33   18177
   18174      34   18183   18180      33   18186   18180      33   18186   18183
      34   18192   18189      33   18195   18189      33   18195   18192      34
   18201   18198      33   18204   18198      33   18204   18201      34   18210
   18207      33   18213   18207      33   18213   18210      34   18219   18216
      33   18222   18216      33   18222   18219      34   18228   18225      33
   18231   18225      33   18231   18228      34   18237   18234      33   18240
   18234      33   18240   18237      34   18246   18243      33   18249   18243
      33   18249   18246      34   18255   18252      33   18258   18252      33
   18258   18255      34   18264   18261      33   18267   18261      33   18267
   18264      34   18273   18270      33   18276   18270      33   18276   18273
      34   18282   18279      33   18285   18279      33   18285   18282      34
   18291   18288      33   18294   18288      33   18294   18291      34   18300
   18297      33   18303   18297      33   18303   18300      34   18309   18306
      33   18312   18306      33   18312   18309      34   18318   18315      33
   18321   18315      33   18321   18318      34   18327   18324      33   18330
   18324      33   18330   18327      34   18336   18333      33   18339   18333
      33   18339   18336      34   18345   18342      33   18348   18342      33
   18348   18345      34   18354   18351      33   18357   18351      33   18357
   18354      34   18363   18360      33   18366   18360      33   18366   18363
      34   18372   18369      33   18375   18369      33   18375   18372      34
   18381   18378      33   18384   18378      33   18384   18381      34   18390
   18387      33   18393   18387      33   18393   18390      34   18399   18396
      33   18402   18396      33   18402   18399      34   18408   18405      33
   18411   18405      33   18411   18408      34   18417   18414      33   18420
   18414      33   18420   18417      34   18426   18423      33   18429   18423
      33   18429   18426      34   18435   18432      33   18438   18432      33
   18438   18435      34   18444   18441      33   18447   18441      33   18447
   18444      34   18453   18450      33   18456   18450      33   18456   18453
      34   18462   18459      33   18465   18459      33   18465   18462      34
   18471   18468      33   18474   18468      33   18474   18471      34   18480
   18477      33   18483   18477      33   18483   18480      34   18489   18486
      33   18492   18486      33   18492   18489      34   18498   18495      33
   18501   18495      33   18501   18498      34   18507   18504      33   18510
   18504      33   18510   18507      34   18516   18513      33   18519   18513
      33   18519   18516      34   18525   18522      33   18528   18522      33
   18528   18525      34   18534   18531      33   18537   18531      33   18537
   18534      34   18543   18540      33   18546   18540      33   18546   18543
      34   18552   18549      33   18555   18549      33   18555   18552      34
   18561   18558      33   18564   18558      33   18564   18561      34   18570
   18567      33   18573   18567      33   18573   18570      34   18579   18576
      33   18582   18576      33   18582   18579      34   18588   18585      33
   18591   18585      33   18591   18588      34   18597   18594      33   18600
   18594      33   18600   18597      34   18606   18603      33   18609   18603
      33   18609   18606      34   18615   18612      33   18618   18612      33
   18618   18615      34   18624   18621      33   18627   18621      33   18627
   18624      34   18633   18630      33   18636   18630      33   18636   18633
      34   18642   18639      33   18645   18639      33   18645   18642      34
   18651   18648      33   18654   18648      33   18654   18651      34   18660
   18657      33   18663   18657      33   18663   18660      34   18669   18666
      33   18672   18666      33   18672   18669      34   18678   18675      33
   18681   18675      33   18681   18678      34   18687   18684      33   18690
   18684      33   18690   18687      34   18696   18693      33   18699   18693
      33   18699   18696      34   18705   18702      33   18708   18702      33
   18708   18705      34   18714   18711      33   18717   18711      33   18717
   18714      34   18723   18720      33   18726   18720      33   18726   18723
      34   18732   18729      33   18735   18729      33   18735   18732      34
   18741   18738      33   18744   18738      33   18744   18741      34   18750
   18747      33   18753   18747      33   18753   18750      34   18759   18756
      33   18762   18756      33   18762   18759      34   18768   18765      33
   18771   18765      33   18771   18768      34   18777   18774      33   18780
   18774      33   18780   18777      34   18786   18783      33   18789   18783
      33   18789   18786      34   18795   18792      33   18798   18792      33
   18798   18795      34   18804   18801      33   18807   18801      33   18807
   18804      34   18813   18810      33   18816   18810      33   18816   18813
      34   18822   18819      33   18825   18819      33   18825   18822      34
   18831   18828      33   18834   18828      33   18834   18831      34   18840
   18837      33   18843   18837      33   18843   18840      34   18849   18846
      33   18852   18846      33   18852   18849      34   18858   18855      33
   18861   18855      33   18861   18858      34   18867   18864      33   18870
   18864      33   18870   18867      34   18876   18873      33   18879   18873
      33   18879   18876      34   18885   18882      33   18888   18882      33
   18888   18885      34   18894   18891      33   18897   18891      33   18897
   18894      34   18903   18900      33   18906   18900      33   18906   18903
      34   18912   18909      33   18915   18909      33   18915   18912      34
   18921   18918      33   18924   18918      33   18924   18921      34   18930
   18927      33   18933   18927      33   18933   18930      34   18939   18936
      33   18942   18936      33   18942   18939      34   18948   18945      33
   18951   18945      33   18951   18948      34   18957   18954      33   18960
   18954      33   18960   18957      34   18966   18963      33   18969   18963
      33   18969   18966      34   18975   18972      33   18978   18972      33
   18978   18975      34   18984   18981      33   18987   18981      33   18987
   18984      34   18993   18990      33   18996   18990      33   18996   18993
      34   19002   18999      33   19005   18999      33   19005   19002      34
   19011   19008      33   19014   19008      33   19014   19011      34   19020
   19017      33   19023   19017      33   19023   19020      34   19029   19026
      33   19032   19026      33   19032   19029      34   19038   19035      33
   19041   19035      33   19041   19038      34   19047   19044      33   19050
   19044      33   19050   19047      34   19056   19053      33   19059   19053
      33   19059   19056      34   19065   19062      33   19068   19062      33
   19068   19065      34   19074   19071      33   19077   19071      33   19077
   19074      34   19083   19080      33   19086   19080      33   19086   19083
      34   19092   19089      33   19095   19089      33   19095   19092      34
   19101   19098      33   19104   19098      33   19104   19101      34   19110
   19107      33   19113   19107      33   19113   19110      34   19119   19116
      33   19122   19116      33   19122   19119      34   19128   19125      33
   19131   19125      33   19131   19128      34   19137   19134      33   19140
   19134      33   19140   19137      34   19146   19143      33   19149   19143
      33   19149   19146      34   19155   19152      33   19158   19152      33
   19158   19155      34   19164   19161      33   19167   19161      33   19167
   19164      34   19173   19170      33   19176   19170      33   19176   19173
      34   19182   19179      33   19185   19179      33   19185   19182      34
   19191   19188      33   19194   19188      33   19194   19191      34   19200
   19197      33   19203   19197      33   19203   19200      34   19209   19206
      33   19212   19206      33   19212   19209      34   19218   19215      33
   19221   19215      33   19221   19218      34   19227   19224      33   19230
   19224      33   19230   19227      34   19236   19233      33   19239   19233
      33   19239   19236      34   19245   19242      33   19248   19242      33
   19248   19245      34   19254   19251      33   19257   19251      33   19257
   19254      34   19263   19260      33   19266   19260      33   19266   19263
      34   19272   19269      33   19275   19269      33   19275   19272      34
   19281   19278      33   19284   19278      33   19284   19281      34   19290
   19287      33   19293   19287      33   19293   19290      34   19299   19296
      33   19302   19296      33   19302   19299      34   19308   19305      33
   19311   19305      33   19311   19308      34   19317   19314      33   19320
   19314      33   19320   19317      34   19326   19323      33   19329   19323
      33   19329   19326      34   19335   19332      33   19338   19332      33
   19338   19335      34   19344   19341      33   19347   19341      33   19347
   19344      34   19353   19350      33   19356   19350      33   19356   19353
      34   19362   19359      33   19365   19359      33   19365   19362      34
   19371   19368      33   19374   19368      33   19374   19371      34   19380
   19377      33   19383   19377      33   19383   19380      34   19389   19386
      33   19392   19386      33   19392   19389      34   19398   19395      33
   19401   19395      33   19401   19398      34   19407   19404      33   19410
   19404      33   19410   19407      34   19416   19413      33   19419   19413
      33   19419   19416      34   19425   19422      33   19428   19422      33
   19428   19425      34   19434   19431      33   19437   19431      33   19437
   19434      34   19443   19440      33   19446   19440      33   19446   19443
      34   19452   19449      33   19455   19449      33   19455   19452      34
   19461   19458      33   19464   19458      33   19464   19461      34   19470
   19467      33   19473   19467      33   19473   19470      34   19479   19476
      33   19482   19476      33   19482   19479      34   19488   19485      33
   19491   19485      33   19491   19488      34   19497   19494      33   19500
   19494      33   19500   19497      34   19506   19503      33   19509   19503
      33   19509   19506      34   19515   19512      33   19518   19512      33
   19518   19515      34   19524   19521      33   19527   19521      33   19527
   19524      34   19533   19530      33   19536   19530      33   19536   19533
      34   19542   19539      33   19545   19539      33   19545   19542      34
   19551   19548      33   19554   19548      33   19554   19551      34   19560
   19557      33   19563   19557      33   19563   19560      34   19569   19566
      33   19572   19566      33   19572   19569      34   19578   19575      33
   19581   19575      33   19581   19578      34   19587   19584      33   19590
   19584      33   19590   19587      34   19596   19593      33   19599   19593
      33   19599   19596      34   19605   19602      33   19608   19602      33
   19608   19605      34   19614   19611      33   19617   19611      33   19617
   19614      34   19623   19620      33   19626   19620      33   19626   19623
      34   19632   19629      33   19635   19629      33   19635   19632      34
   19641   19638      33   19644   19638      33   19644   19641      34   19650
   19647      33   19653   19647      33   19653   19650      34   19659   19656
      33   19662   19656      33   19662   19659      34   19668   19665      33
   19671   19665      33   19671   19668      34   19677   19674      33   19680
   19674      33   19680   19677      34   19686   19683      33   19689   19683
      33   19689   19686      34   19695   19692      33   19698   19692      33
   19698   19695      34   19704   19701      33   19707   19701      33   19707
   19704      34   19713   19710      33   19716   19710      33   19716   19713
      34   19722   19719      33   19725   19719      33   19725   19722      34
   19731   19728      33   19734   19728      33   19734   19731      34   19740
   19737      33   19743   19737      33   19743   19740      34   19749   19746
      33   19752   19746      33   19752   19749      34   19758   19755      33
   19761   19755      33   19761   19758      34   19767   19764      33   19770
   19764      33   19770   19767      34   19776   19773      33   19779   19773
      33   19779   19776      34   19785   19782      33   19788   19782      33
   19788   19785      34   19794   19791      33   19797   19791      33   19797
   19794      34   19803   19800      33   19806   19800      33   19806   19803
      34   19812   19809      33   19815   19809      33   19815   19812      34
   19821   19818      33   19824   19818      33   19824   19821      34   19830
   19827      33   19833   19827      33   19833   19830      34   19839   19836
      33   19842   19836      33   19842   19839      34   19848   19845      33
   19851   19845      33   19851   19848      34   19857   19854      33   19860
   19854      33   19860   19857      34   19866   19863      33   19869   19863
      33   19869   19866      34   19875   19872      33   19878   19872      33
   19878   19875      34   19884   19881      33   19887   19881      33   19887
   19884      34   19893   19890      33   19896   19890      33   19896   19893
      34   19902   19899      33   19905   19899      33   19905   19902      34
   19911   19908      33   19914   19908      33   19914   19911      34   19920
   19917      33   19923   19917      33   19923   19920      34   19929   19926
      33   19932   19926      33   19932   19929      34   19938   19935      33
   19941   19935      33   19941   19938      34   19947   19944      33   19950
   19944      33   19950   19947      34   19956   19953      33   19959   19953
      33   19959   19956      34   19965   19962      33   19968   19962      33
   19968   19965      34   19974   19971      33   19977   19971      33   19977
   19974      34   19983   19980      33   19986   19980      33   19986   19983
      34   19992   19989      33   19995   19989      33   19995   19992      34
   20001   19998      33   20004   19998      33   20004   20001      34   20010
   20007      33   20013   20007      33   20013   20010      34   20019   20016
      33   20022   20016      33   20022   20019      34   20028   20025      33
   20031   20025      33   20031   20028      34   20037   20034      33   20040
   20034      33   20040   20037      34   20046   20043      33   20049   20043
      33   20049   20046      34   20055   20052      33   20058   20052      33
   20058   20055      34   20064   20061      33   20067   20061      33   20067
   20064      34   20073   20070      33   20076   20070      33   20076   20073
      34   20082   20079      33   20085   20079      33   20085   20082      34
   20091   20088      33   20094   20088      33   20094   20091      34   20100
   20097      33   20103   20097      33   20103   20100      34   20109   20106
      33   20112   20106      33   20112   20109      34   20118   20115      33
   20121   20115      33   20121   20118      34   20127   20124      33   20130
   20124      33   20130   20127      34   20136   20133      33   20139   20133
      33   20139   20136      34   20145   20142      33   20148   20142      33
   20148   20145      34   20154   20151      33   20157   20151      33   20157
   20154      34   20163   20160      33   20166   20160      33   20166   20163
      34   20172   20169      33   20175   20169      33   20175   20172      34
   20181   20178      33   20184   20178      33   20184   20181      34   20190
   20187      33   20193   20187      33   20193   20190      34   20199   20196
      33   20202   20196      33   20202   20199      34   20208   20205      33
   20211   20205      33   20211   20208      34   20217   20214      33   20220
   20214      33   20220   20217      34   20226   20223      33   20229   20223
      33   20229   20226      34   20235   20232      33   20238   20232      33
   20238   20235      34   20244   20241      33   20247   20241      33   20247
   20244      34   20253   20250      33   20256   20250      33   20256   20253
      34   20262   20259      33   20265   20259      33   20265   20262      34
   20271   20268      33   20274   20268      33   20274   20271      34   20280
   20277      33   20283   20277      33   20283   20280      34   20289   20286
      33   20292   20286      33   20292   20289      34   20298   20295      33
   20301   20295      33   20301   20298      34   20307   20304      33   20310
   20304      33   20310   20307      34   20316   20313      33   20319   20313
      33   20319   20316      34   20325   20322      33   20328   20322      33
   20328   20325      34   20334   20331      33   20337   20331      33   20337
   20334      34   20343   20340      33   20346   20340      33   20346   20343
      34   20352   20349      33   20355   20349      33   20355   20352      34
   20361   20358      33   20364   20358      33   20364   20361      34   20370
   20367      33   20373   20367      33   20373   20370      34   20379   20376
      33   20382   20376      33   20382   20379      34   20388   20385      33
   20391   20385      33   20391   20388      34   20397   20394      33   20400
   20394      33   20400   20397      34   20406   20403      33   20409   20403
      33   20409   20406      34   20415   20412      33   20418   20412      33
   20418   20415      34   20424   20421      33   20427   20421      33   20427
   20424      34   20433   20430      33   20436   20430      33   20436   20433
      34   20442   20439      33   20445   20439      33   20445   20442      34
   20451   20448      33   20454   20448      33   20454   20451      34   20460
   20457      33   20463   20457      33   20463   20460      34   20469   20466
      33   20472   20466      33   20472   20469      34   20478   20475      33
   20481   20475      33   20481   20478      34   20487   20484      33   20490
   20484      33   20490   20487      34   20496   20493      33   20499   20493
      33   20499   20496      34   20505   20502      33   20508   20502      33
   20508   20505      34   20514   20511      33   20517   20511      33   20517
   20514      34   20523   20520      33   20526   20520      33   20526   20523
      34   20532   20529      33   20535   20529      33   20535   20532      34
   20541   20538      33   20544   20538      33   20544   20541      34   20550
   20547      33   20553   20547      33   20553   20550      34   20559   20556
      33   20562   20556      33   20562   20559      34   20568   20565      33
   20571   20565      33   20571   20568      34   20577   20574      33   20580
   20574      33   20580   20577      34   20586   20583      33   20589   20583
      33   20589   20586      34   20595   20592      33   20598   20592      33
   20598   20595      34   20604   20601      33   20607   20601      33   20607
   20604      34   20613   20610      33   20616   20610      33   20616   20613
      34   20622   20619      33   20625   20619      33   20625   20622      34
   20631   20628      33   20634   20628      33   20634   20631      34   20640
   20637      33   20643   20637      33   20643   20640      34   20649   20646
      33   20652   20646      33   20652   20649      34   20658   20655      33
   20661   20655      33   20661   20658      34   20667   20664      33   20670
   20664      33   20670   20667      34   20676   20673      33   20679   20673
      33   20679   20676      34   20685   20682      33   20688   20682      33
   20688   20685      34   20694   20691      33   20697   20691      33   20697
   20694      34   20703   20700      33   20706   20700      33   20706   20703
      34   20712   20709      33   20715   20709      33   20715   20712      34
   20721   20718      33   20724   20718      33   20724   20721      34   20730
   20727      33   20733   20727      33   20733   20730      34   20739   20736
      33   20742   20736      33   20742   20739      34   20748   20745      33
   20751   20745      33   20751   20748      34   20757   20754      33   20760
   20754      33   20760   20757      34   20766   20763      33   20769   20763
      33   20769   20766      34   20775   20772      33   20778   20772      33
   20778   20775      34   20784   20781      33   20787   20781      33   20787
   20784      34   20793   20790      33   20796   20790      33   20796   20793
      34   20802   20799      33   20805   20799      33   20805   20802      34
   20811   20808      33   20814   20808      33   20814   20811      34   20820
   20817      33   20823   20817      33   20823   20820      34   20829   20826
      33   20832   20826      33   20832   20829      34   20838   20835      33
   20841   20835      33   20841   20838      34   20847   20844      33   20850
   20844      33   20850   20847      34   20856   20853      33   20859   20853
      33   20859   20856      34   20865   20862      33   20868   20862      33
   20868   20865      34   20874   20871      33   20877   20871      33   20877
   20874      34   20883   20880      33   20886   20880      33   20886   20883
      34   20892   20889      33   20895   20889      33   20895   20892      34
   20901   20898      33   20904   20898      33   20904   20901      34   20910
   20907      33   20913   20907      33   20913   20910      34   20919   20916
      33   20922   20916      33   20922   20919      34   20928   20925      33
   20931   20925      33   20931   20928      34   20937   20934      33   20940
   20934      33   20940   20937      34   20946   20943      33   20949   20943
      33   20949   20946      34   20955   20952      33   20958   20952      33
   20958   20955      34   20964   20961      33   20967   20961      33   20967
   20964      34   20973   20970      33   20976   20970      33   20976   20973
      34   20982   20979      33   20985   20979      33   20985   20982      34
   20991   20988      33   20994   20988      33   20994   20991      34   21000
   20997      33   21003   20997      33   21003   21000      34   21009   21006
      33   21012   21006      33   21012   21009      34   21018   21015      33
   21021   21015      33   21021   21018      34   21027   21024      33   21030
   21024      33   21030   21027      34   21036   21033      33   21039   21033
      33   21039   21036      34   21045   21042      33   21048   21042      33
   21048   21045      34   21054   21051      33   21057   21051      33   21057
   21054      34   21063   21060      33   21066   21060      33   21066   21063
      34   21072   21069      33   21075   21069      33   21075   21072      34
   21081   21078      33   21084   21078      33   21084   21081      34   21090
   21087      33   21093   21087      33   21093   21090      34   21099   21096
      33   21102   21096      33   21102   21099      34   21108   21105      33
   21111   21105      33   21111   21108      34   21117   21114      33   21120
   21114      33   21120   21117      34   21126   21123      33   21129   21123
      33   21129   21126      34   21135   21132      33   21138   21132      33
   21138   21135      34   21144   21141      33   21147   21141      33   21147
   21144      34   21153   21150      33   21156   21150      33   21156   21153
      34   21162   21159      33   21165   21159      33   21165   21162      34
   21171   21168      33   21174   21168      33   21174   21171      34   21180
   21177      33   21183   21177      33   21183   21180      34   21189   21186
      33   21192   21186      33   21192   21189      34   21198   21195      33
   21201   21195      33   21201   21198      34   21207   21204      33   21210
   21204      33   21210   21207      34   21216   21213      33   21219   21213
      33   21219   21216      34   21225   21222      33   21228   21222      33
   21228   21225      34   21234   21231      33   21237   21231      33   21237
   21234      34   21243   21240      33   21246   21240      33   21246   21243
      34   21252   21249      33   21255   21249      33   21255   21252      34
   21261   21258      33   21264   21258      33   21264   21261      34   21270
   21267      33   21273   21267      33   21273   21270      34   21279   21276
      33   21282   21276      33   21282   21279      34   21288   21285      33
   21291   21285      33   21291   21288      34   21297   21294      33   21300
   21294      33   21300   21297      34   21306   21303      33   21309   21303
      33   21309   21306      34   21315   21312      33   21318   21312      33
   21318   21315      34   21324   21321      33   21327   21321      33   21327
   21324      34   21333   21330      33   21336   21330      33   21336   21333
      34   21342   21339      33   21345   21339      33   21345   21342      34
   21351   21348      33   21354   21348      33   21354   21351      34   21360
   21357      33   21363   21357      33   21363   21360      34   21369   21366
      33   21372   21366      33   21372   21369      34   21378   21375      33
   21381   21375      33   21381   21378      34   21387   21384      33   21390
   21384      33   21390   21387      34   21396   21393      33   21399   21393
      33   21399   21396      34   21405   21402      33   21408   21402      33
   21408   21405      34   21414   21411      33   21417   21411      33   21417
   21414      34   21423   21420      33   21426   21420      33   21426   21423
      34   21432   21429      33   21435   21429      33   21435   21432      34
   21441   21438      33   21444   21438      33   21444   21441      34   21450
   21447      33   21453   21447      33   21453   21450      34   21459   21456
      33   21462   21456      33   21462   21459      34   21468   21465      33
   21471   21465      33   21471   21468      34   21477   21474      33   21480
   21474      33   21480   21477      34   21486   21483      33   21489   21483
      33   21489   21486      34   21495   21492      33   21498   21492      33
   21498   21495      34   21504   21501      33   21507   21501      33   21507
   21504      34   21513   21510      33   21516   21510      33   21516   21513
      34   21522   21519      33   21525   21519      33   21525   21522      34
   21531   21528      33   21534   21528      33   21534   21531      34   21540
   21537      33   21543   21537      33   21543   21540      34   21549   21546
      33   21552   21546      33   21552   21549      34   21558   21555      33
   21561   21555      33   21561   21558      34   21567   21564      33   21570
   21564      33   21570   21567      34   21576   21573      33   21579   21573
      33   21579   21576      34   21585   21582      33   21588   21582      33
   21588   21585      34   21594   21591      33   21597   21591      33   21597
   21594      34   21603   21600      33   21606   21600      33   21606   21603
      34   21612   21609      33   21615   21609      33   21615   21612      34
   21621   21618      33   21624   21618      33   21624   21621      34   21630
   21627      33   21633   21627      33   21633   21630      34   21639   21636
      33   21642   21636      33   21642   21639      34   21648   21645      33
   21651   21645      33   21651   21648      34   21657   21654      33   21660
   21654      33   21660   21657      34   21666   21663      33   21669   21663
      33   21669   21666      34   21675   21672      33   21678   21672      33
   21678   21675      34   21684   21681      33   21687   21681      33   21687
   21684      34   21693   21690      33   21696   21690      33   21696   21693
      34   21702   21699      33   21705   21699      33   21705   21702      34
   21711   21708      33   21714   21708      33   21714   21711      34   21720
   21717      33   21723   21717      33   21723   21720      34   21729   21726
      33   21732   21726      33   21732   21729      34   21738   21735      33
   21741   21735      33   21741   21738      34   21747   21744      33   21750
   21744      33   21750   21747      34   21756   21753      33   21759   21753
      33   21759   21756      34   21765   21762      33   21768   21762      33
   21768   21765      34   21774   21771      33   21777   21771      33   21777
   21774      34   21783   21780      33   21786   21780      33   21786   21783
      34   21792   21789      33   21795   21789      33   21795   21792      34
   21801   21798      33   21804   21798      33   21804   21801      34   21810
   21807      33   21813   21807      33   21813   21810      34   21819   21816
      33   21822   21816      33   21822   21819      34   21828   21825      33
   21831   21825      33   21831   21828      34   21837   21834      33   21840
   21834      33   21840   21837      34   21846   21843      33   21849   21843
      33   21849   21846      34   21855   21852      33   21858   21852      33
   21858   21855      34   21864   21861      33   21867   21861      33   21867
   21864      34   21873   21870      33   21876   21870      33   21876   21873
      34   21882   21879      33   21885   21879      33   21885   21882      34
   21891   21888      33   21894   21888      33   21894   21891      34   21900
   21897      33   21903   21897      33   21903   21900      34   21909   21906
      33   21912   21906      33   21912   21909      34   21918   21915      33
   21921   21915      33   21921   21918      34   21927   21924      33   21930
   21924      33   21930   21927      34   21936   21933      33   21939   21933
      33   21939   21936      34   21945   21942      33   21948   21942      33
   21948   21945      34   21954   21951      33   21957   21951      33   21957
   21954      34   21963   21960      33   21966   21960      33   21966   21963
      34   21972   21969      33   21975   21969      33   21975   21972      34
   21981   21978      33   21984   21978      33   21984   21981      34   21990
   21987      33   21993   21987      33   21993   21990      34   21999   21996
      33   22002   21996      33   22002   21999      34   22008   22005      33
   22011   22005      33   22011   22008      34   22017   22014      33   22020
   22014      33   22020   22017      34   22026   22023      33   22029   22023
      33   22029   22026      34   22035   22032      33   22038   22032      33
   22038   22035      34   22044   22041      33   22047   22041      33   22047
   22044      34   22053   22050      33   22056   22050      33   22056   22053
      34   22062   22059      33   22065   22059      33   22065   22062      34
   22071   22068      33   22074   22068      33   22074   22071      34   22080
   22077      33   22083   22077      33   22083   22080      34   22089   22086
      33   22092   22086      33   22092   22089      34   22098   22095      33
   22101   22095      33   22101   22098      34   22107   22104      33   22110
   22104      33   22110   22107      34   22116   22113      33   22119   22113
      33   22119   22116      34   22125   22122      33   22128   22122      33
   22128   22125      34   22134   22131      33   22137   22131      33   22137
   22134      34   22143   22140      33   22146   22140      33   22146   22143
      34   22152   22149      33   22155   22149      33   22155   22152      34
   22161   22158      33   22164   22158      33   22164   22161      34   22170
   22167      33   22173   22167      33   22173   22170      34   22179   22176
      33   22182   22176      33   22182   22179      34   22188   22185      33
   22191   22185      33   22191   22188      34   22197   22194      33   22200
   22194      33   22200   22197      34   22206   22203      33   22209   22203
      33   22209   22206      34   22215   22212      33   22218   22212      33
   22218   22215      34   22224   22221      33   22227   22221      33   22227
   22224      34   22233   22230      33   22236   22230      33   22236   22233
      34   22242   22239      33   22245   22239      33   22245   22242      34
   22251   22248      33   22254   22248      33   22254   22251      34   22260
   22257      33   22263   22257      33   22263   22260      34   22269   22266
      33   22272   22266      33   22272   22269      34   22278   22275      33
   22281   22275      33   22281   22278      34   22287   22284      33   22290
   22284      33   22290   22287      34   22296   22293      33   22299   22293
      33   22299   22296      34   22305   22302      33   22308   22302      33
   22308   22305      34   22314   22311      33   22317   22311      33   22317
   22314      34   22323   22320      33   22326   22320      33   22326   22323
      34   22332   22329      33   22335   22329      33   22335   22332      34
   22341   22338      33   22344   22338      33   22344   22341      34   22350
   22347      33   22353   22347      33   22353   22350      34   22359   22356
      33   22362   22356      33   22362   22359      34   22368   22365      33
   22371   22365      33   22371   22368      34   22377   22374      33   22380
   22374      33   22380   22377      34   22386   22383      33   22389   22383
      33   22389   22386      34   22395   22392      33   22398   22392      33
   22398   22395      34   22404   22401      33   22407   22401      33   22407
   22404      34   22413   22410      33   22416   22410      33   22416   22413
      34   22422   22419      33   22425   22419      33   22425   22422      34
   22431   22428      33   22434   22428      33   22434   22431      34   22440
   22437      33   22443   22437      33   22443   22440      34   22449   22446
      33   22452   22446      33   22452   22449      34   22458   22455      33
   22461   22455      33   22461   22458      34   22467   22464      33   22470
   22464      33   22470   22467      34   22476   22473      33   22479   22473
      33   22479   22476      34   22485   22482      33   22488   22482      33
   22488   22485      34   22494   22491      33   22497   22491      33   22497
   22494      34   22503   22500      33   22506   22500      33   22506   22503
      34   22512   22509      33   22515   22509      33   22515   22512      34
   22521   22518      33   22524   22518      33   22524   22521      34   22530
   22527      33   22533   22527      33   22533   22530      34   22539   22536
      33   22542   22536      33   22542   22539      34   22548   22545      33
   22551   22545      33   22551   22548      34   22557   22554      33   22560
   22554      33   22560   22557      34   22566   22563      33   22569   22563
      33   22569   22566      34   22575   22572      33   22578   22572      33
   22578   22575      34   22584   22581      33   22587   22581      33   22587
   22584      34   22593   22590      33   22596   22590      33   22596   22593
      34   22602   22599      33   22605   22599      33   22605   22602      34
   22611   22608      33   22614   22608      33   22614   22611      34   22620
   22617      33   22623   22617      33   22623   22620      34   22629   22626
      33   22632   22626      33   22632   22629      34   22638   22635      33
   22641   22635      33   22641   22638      34   22647   22644      33   22650
   22644      33   22650   22647      34   22656   22653      33   22659   22653
      33   22659   22656      34   22665   22662      33   22668   22662      33
   22668   22665      34   22674   22671      33   22677   22671      33   22677
   22674      34   22683   22680      33   22686   22680      33   22686   22683
      34   22692   22689      33   22695   22689      33   22695   22692      34
   22701   22698      33   22704   22698      33   22704   22701      34   22710
   22707      33   22713   22707      33   22713   22710      34   22719   22716
      33   22722   22716      33   22722   22719      34   22728   22725      33
   22731   22725      33   22731   22728      34   22737   22734      33   22740
   22734      33   22740   22737      34   22746   22743      33   22749   22743
      33   22749   22746      34   22755   22752      33   22758   22752      33
   22758   22755      34   22764   22761      33   22767   22761      33   22767
   22764      34   22773   22770      33   22776   22770      33   22776   22773
      34   22782   22779      33   22785   22779      33   22785   22782      34
   22791   22788      33   22794   22788      33   22794   22791      34   22800
   22797      33   22803   22797      33   22803   22800      34   22809   22806
      33   22812   22806      33   22812   22809      34   22818   22815      33
   22821   22815      33   22821   22818      34   22827   22824      33   22830
   22824      33   22830   22827      34   22836   22833      33   22839   22833
      33   22839   22836      34   22845   22842      33   22848   22842      33
   22848   22845      34   22854   22851      33   22857   22851      33   22857
   22854      34   22863   22860      33   22866   22860      33   22866   22863
      34   22872   22869      33   22875   22869      33   22875   22872      34
   22881   22878      33   22884   22878      33   22884   22881      34   22890
   22887      33   22893   22887      33   22893   22890      34   22899   22896
      33   22902   22896      33   22902   22899      34   22908   22905      33
   22911   22905      33   22911   22908      34   22917   22914      33   22920
   22914      33   22920   22917      34   22926   22923      33   22929   22923
      33   22929   22926      34   22935   22932      33   22938   22932      33
   22938   22935      34   22944   22941      33   22947   22941      33   22947
   22944      34   22953   22950      33   22956   22950      33   22956   22953
      34   22962   22959      33   22965   22959      33   22965   22962      34
   22971   22968      33   22974   22968      33   22974   22971      34   22980
   22977      33   22983   22977      33   22983   22980      34   22989   22986
      33   22992   22986      33   22992   22989      34   22998   22995      33
   23001   22995      33   23001   22998      34   23007   23004      33   23010
   23004      33   23010   23007      34   23016   23013      33   23019   23013
      33   23019   23016      34   23025   23022      33   23028   23022      33
   23028   23025      34   23034   23031      33   23037   23031      33   23037
   23034      34   23043   23040      33   23046   23040      33   23046   23043
      34   23052   23049      33   23055   23049      33   23055   23052      34
   23061   23058      33   23064   23058      33   23064   23061      34   23070
   23067      33   23073   23067      33   23073   23070      34   23079   23076
      33   23082   23076      33   23082   23079      34   23088   23085      33
   23091   23085      33   23091   23088      34   23097   23094      33   23100
   23094      33   23100   23097      34   23106   23103      33   23109   23103
      33   23109   23106      34   23115   23112      33   23118   23112      33
   23118   23115      34   23124   23121      33   23127   23121      33   23127
   23124      34   23133   23130      33   23136   23130      33   23136   23133
      34   23142   23139      33   23145   23139      33   23145   23142      34
   23151   23148      33   23154   23148      33   23154   23151      34   23160
   23157      33   23163   23157      33   23163   23160      34   23169   23166
      33   23172   23166      33   23172   23169      34   23178   23175      33
   23181   23175      33   23181   23178      34   23187   23184      33   23190
   23184      33   23190   23187      34   23196   23193      33   23199   23193
      33   23199   23196      34   23205   23202      33   23208   23202      33
   23208   23205      34   23214   23211      33   23217   23211      33   23217
   23214      34   23223   23220      33   23226   23220      33   23226   23223
      34   23232   23229      33   23235   23229      33   23235   23232      34
   23241   23238      33   23244   23238      33   23244   23241      34   23250
   23247      33   23253   23247      33   23253   23250      34   23259   23256
      33   23262   23256      33   23262   23259      34   23268   23265      33
   23271   23265      33   23271   23268      34   23277   23274      33   23280
   23274      33   23280   23277      34   23286   23283      33   23289   23283
      33   23289   23286      34   23295   23292      33   23298   23292      33
   23298   23295      34   23304   23301      33   23307   23301      33   23307
   23304      34   23313   23310      33   23316   23310      33   23316   23313
      34   23322   23319      33   23325   23319      33   23325   23322      34
   23331   23328      33   23334   23328      33   23334   23331      34   23340
   23337      33   23343   23337      33   23343   23340      34   23349   23346
      33   23352   23346      33   23352   23349      34   23358   23355      33
   23361   23355      33   23361   23358      34   23367   23364      33   23370
   23364      33   23370   23367      34   23376   23373      33   23379   23373
      33   23379   23376      34   23385   23382      33   23388   23382      33
   23388   23385      34   23394   23391      33   23397   23391      33   23397
   23394      34   23403   23400      33   23406   23400      33   23406   23403
      34   23412   23409      33   23415   23409      33   23415   23412      34
   23421   23418      33   23424   23418      33   23424   23421      34   23430
   23427      33   23433   23427      33   23433   23430      34   23439   23436
      33   23442   23436      33   23442   23439      34   23448   23445      33
   23451   23445      33   23451   23448      34   23457   23454      33   23460
   23454      33   23460   23457      34   23466   23463      33   23469   23463
      33   23469   23466      34   23475   23472      33   23478   23472      33
   23478   23475      34   23484   23481      33   23487   23481      33   23487
   23484      34   23493   23490      33   23496   23490      33   23496   23493
      34   23502   23499      33   23505   23499      33   23505   23502      34
   23511   23508      33   23514   23508      33   23514   23511      34   23520
   23517      33   23523   23517      33   23523   23520      34   23529   23526
      33   23532   23526      33   23532   23529      34   23538   23535      33
   23541   23535      33   23541   23538      34   23547   23544      33   23550
   23544      33   23550   23547      34   23556   23553      33   23559   23553
      33   23559   23556      34   23565   23562      33   23568   23562      33
   23568   23565      34   23574   23571      33   23577   23571      33   23577
   23574      34   23583   23580      33   23586   23580      33   23586   23583
      34   23592   23589      33   23595   23589      33   23595   23592      34
   23601   23598      33   23604   23598      33   23604   23601      34   23610
   23607      33   23613   23607      33   23613   23610      34   23619   23616
      33   23622   23616      33   23622   23619      34   23628   23625      33
   23631   23625      33   23631   23628      34   23637   23634      33   23640
   23634      33   23640   23637      34   23646   23643      33   23649   23643
      33   23649   23646      34   23655   23652      33   23658   23652      33
   23658   23655      34   23664   23661      33   23667   23661      33   23667
   23664      34   23673   23670      33   23676   23670      33   23676   23673
      34   23682   23679      33   23685   23679      33   23685   23682      34
   23691   23688      33   23694   23688      33   23694   23691      34   23700
   23697      33   23703   23697      33   23703   23700      34   23709   23706
      33   23712   23706      33   23712   23709      34   23718   23715      33
   23721   23715      33   23721   23718      34   23727   23724      33   23730
   23724      33   23730   23727      34   23736   23733      33   23739   23733
      33   23739   23736      34   23745   23742      33   23748   23742      33
   23748   23745      34   23754   23751      33   23757   23751      33   23757
   23754      34   23763   23760      33   23766   23760      33   23766   23763
      34   23772   23769      33   23775   23769      33   23775   23772      34
   23781   23778      33   23784   23778      33   23784   23781      34   23790
   23787      33   23793   23787      33   23793   23790      34   23799   23796
      33   23802   23796      33   23802   23799      34   23808   23805      33
   23811   23805      33   23811   23808      34   23817   23814      33   23820
   23814      33   23820   23817      34   23826   23823      33   23829   23823
      33   23829   23826      34   23835   23832      33   23838   23832      33
   23838   23835      34   23844   23841      33   23847   23841      33   23847
   23844      34   23853   23850      33   23856   23850      33   23856   23853
      34   23862   23859      33   23865   23859      33   23865   23862      34
   23871   23868      33   23874   23868      33   23874   23871      34   23880
   23877      33   23883   23877      33   23883   23880      34   23889   23886
      33   23892   23886      33   23892   23889      34   23898   23895      33
   23901   23895      33   23901   23898      34   23907   23904      33   23910
   23904      33   23910   23907      34   23916   23913      33   23919   23913
      33   23919   23916      34   23925   23922      33   23928   23922      33
   23928   23925      34   23934   23931      33   23937   23931      33   23937
   23934      34   23943   23940      33   23946   23940      33   23946   23943
      34   23952   23949      33   23955   23949      33   23955   23952      34
   23961   23958      33   23964   23958      33   23964   23961      34   23970
   23967      33   23973   23967      33   23973   23970      34   23979   23976
      33   23982   23976      33   23982   23979      34   23988   23985      33
   23991   23985      33   23991   23988      34   23997   23994      33   24000
   23994      33   24000   23997      34   24006   24003      33   24009   24003
      33   24009   24006      34   24015   24012      33   24018   24012      33
   24018   24015      34   24024   24021      33   24027   24021      33   24027
   24024      34   24033   24030      33   24036   24030      33   24036   24033
      34   24042   24039      33   24045   24039      33   24045   24042      34
   24051   24048      33   24054   24048      33   24054   24051      34   24060
   24057      33   24063   24057      33   24063   24060      34   24069   24066
      33   24072   24066      33   24072   24069      34   24078   24075      33
   24081   24075      33   24081   24078      34   24087   24084      33   24090
   24084      33   24090   24087      34   24096   24093      33   24099   24093
      33   24099   24096      34   24105   24102      33   24108   24102      33
   24108   24105      34   24114   24111      33   24117   24111      33   24117
   24114      34   24123   24120      33   24126   24120      33   24126   24123
      34   24132   24129      33   24135   24129      33   24135   24132      34
   24141   24138      33   24144   24138      33   24144   24141      34   24150
   24147      33   24153   24147      33   24153   24150      34   24159   24156
      33   24162   24156      33   24162   24159      34   24168   24165      33
   24171   24165      33   24171   24168      34   24177   24174      33   24180
   24174      33   24180   24177      34   24186   24183      33   24189   24183
      33   24189   24186      34   24195   24192      33   24198   24192      33
   24198   24195      34   24204   24201      33   24207   24201      33   24207
   24204      34   24213   24210      33   24216   24210      33   24216   24213
      34   24222   24219      33   24225   24219      33   24225   24222      34
   24231   24228      33   24234   24228      33   24234   24231      34   24240
   24237      33   24243   24237      33   24243   24240      34   24249   24246
      33   24252   24246      33   24252   24249      34   24258   24255      33
   24261   24255      33   24261   24258      34   24267   24264      33   24270
   24264      33   24270   24267      34   24276   24273      33   24279   24273
      33   24279   24276      34   24285   24282      33   24288   24282      33
   24288   24285      34   24294   24291      33   24297   24291      33   24297
   24294      34   24303   24300      33   24306   24300      33   24306   24303
      34   24312   24309      33   24315   24309      33   24315   24312      34
   24321   24318      33   24324   24318      33   24324   24321      34   24330
   24327      33   24333   24327      33   24333   24330      34   24339   24336
      33   24342   24336      33   24342   24339      34   24348   24345      33
   24351   24345      33   24351   24348      34   24357   24354      33   24360
   24354      33   24360   24357      34   24366   24363      33   24369   24363
      33   24369   24366      34   24375   24372      33   24378   24372      33
   24378   24375      34   24384   24381      33   24387   24381      33   24387
   24384      34   24393   24390      33   24396   24390      33   24396   24393
      34   24402   24399      33   24405   24399      33   24405   24402      34
   24411   24408      33   24414   24408      33   24414   24411      34   24420
   24417      33   24423   24417      33   24423   24420      34   24429   24426
      33   24432   24426      33   24432   24429      34   24438   24435      33
   24441   24435      33   24441   24438      34   24447   24444      33   24450
   24444      33   24450   24447      34   24456   24453      33   24459   24453
      33   24459   24456      34   24465   24462      33   24468   24462      33
   24468   24465      34   24474   24471      33   24477   24471      33   24477
   24474      34   24483   24480      33   24486   24480      33   24486   24483
      34   24492   24489      33   24495   24489      33   24495   24492      34
   24501   24498      33   24504   24498      33   24504   24501      34   24510
   24507      33   24513   24507      33   24513   24510      34   24519   24516
      33   24522   24516      33   24522   24519      34   24528   24525      33
   24531   24525      33   24531   24528      34   24537   24534      33   24540
   24534      33   24540   24537      34   24546   24543      33   24549   24543
      33   24549   24546      34   24555   24552      33   24558   24552      33
   24558   24555      34   24564   24561      33   24567   24561      33   24567
   24564      34   24573   24570      33   24576   24570      33   24576   24573
      34   24582   24579      33   24585   24579      33   24585   24582      34
   24591   24588      33   24594   24588      33   24594   24591      34   24600
   24597      33   24603   24597      33   24603   24600      34   24609   24606
      33   24612   24606      33   24612   24609      34   24618   24615      33
   24621   24615      33   24621   24618      34   24627   24624      33   24630
   24624      33   24630   24627      34   24636   24633      33   24639   24633
      33   24639   24636      34   24645   24642      33   24648   24642      33
   24648   24645      34   24654   24651      33   24657   24651      33   24657
   24654      34   24663   24660      33   24666   24660      33   24666   24663
      34   24672   24669      33   24675   24669      33   24675   24672      34
   24681   24678      33   24684   24678      33   24684   24681      34   24690
   24687      33   24693   24687      33   24693   24690      34   24699   24696
      33   24702   24696      33   24702   24699      34   24708   24705      33
   24711   24705      33   24711   24708      34   24717   24714      33   24720
   24714      33   24720   24717      34   24726   24723      33   24729   24723
      33   24729   24726      34   24735   24732      33   24738   24732      33
   24738   24735      34   24744   24741      33   24747   24741      33   24747
   24744      34   24753   24750      33   24756   24750      33   24756   24753
      34   24762   24759      33   24765   24759      33   24765   24762      34
   24771   24768      33   24774   24768      33   24774   24771      34   24780
   24777      33   24783   24777      33   24783   24780      34   24789   24786
      33   24792   24786      33   24792   24789      34   24798   24795      33
   24801   24795      33   24801   24798      34   24807   24804      33   24810
   24804      33   24810   24807      34   24816   24813      33   24819   24813
      33   24819   24816      34   24825   24822      33   24828   24822      33
   24828   24825      34   24834   24831      33   24837   24831      33   24837
   24834      34   24843   24840      33   24846   24840      33   24846   24843
      34   24852   24849      33   24855   24849      33   24855   24852      34
   24861   24858      33   24864   24858      33   24864   24861      34   24870
   24867      33   24873   24867      33   24873   24870      34   24879   24876
      33   24882   24876      33   24882   24879      34   24888   24885      33
   24891   24885      33   24891   24888      34   24897   24894      33   24900
   24894      33   24900   24897      34   24906   24903      33   24909   24903
      33   24909   24906      34   24915   24912      33   24918   24912      33
   24918   24915      34   24924   24921      33   24927   24921      33   24927
   24924      34   24933   24930      33   24936   24930      33   24936   24933
      34   24942   24939      33   24945   24939      33   24945   24942      34
   24951   24948      33   24954   24948      33   24954   24951      34   24960
   24957      33   24963   24957      33   24963   24960      34   24969   24966
      33   24972   24966      33   24972   24969      34   24978   24975      33
   24981   24975      33   24981   24978      34   24987   24984      33   24990
   24984      33   24990   24987      34   24996   24993      33   24999   24993
      33   24999   24996      34   25005   25002      33   25008   25002      33
   25008   25005      34   25014   25011      33   25017   25011      33   25017
   25014      34   25023   25020      33   25026   25020      33   25026   25023
      34   25032   25029      33   25035   25029      33   25035   25032      34
   25041   25038      33   25044   25038      33   25044   25041      34   25050
   25047      33   25053   25047      33   25053   25050      34   25059   25056
      33   25062   25056      33   25062   25059      34   25068   25065      33
   25071   25065      33   25071   25068      34   25077   25074      33   25080
   25074      33   25080   25077      34   25086   25083      33   25089   25083
      33   25089   25086      34   25095   25092      33   25098   25092      33
   25098   25095      34   25104   25101      33   25107   25101      33   25107
   25104      34   25113   25110      33   25116   25110      33   25116   25113
      34   25122   25119      33   25125   25119      33   25125   25122      34
   25131   25128      33   25134   25128      33   25134   25131      34   25140
   25137      33   25143   25137      33   25143   25140      34   25149   25146
      33   25152   25146      33   25152   25149      34   25158   25155      33
   25161   25155      33   25161   25158      34   25167   25164      33   25170
   25164      33   25170   25167      34   25176   25173      33   25179   25173
      33   25179   25176      34   25185   25182      33   25188   25182      33
   25188   25185      34   25194   25191      33   25197   25191      33   25197
   25194      34   25203   25200      33   25206   25200      33   25206   25203
      34   25212   25209      33   25215   25209      33   25215   25212      34
   25221   25218      33   25224   25218      33   25224   25221      34   25230
   25227      33   25233   25227      33   25233   25230      34   25239   25236
      33   25242   25236      33   25242   25239      34   25248   25245      33
   25251   25245      33   25251   25248      34   25257   25254      33   25260
   25254      33   25260   25257      34   25266   25263      33   25269   25263
      33   25269   25266      34   25275   25272      33   25278   25272      33
   25278   25275      34   25284   25281      33   25287   25281      33   25287
   25284      34   25293   25290      33   25296   25290      33   25296   25293
      34   25302   25299      33   25305   25299      33   25305   25302      34
   25311   25308      33   25314   25308      33   25314   25311      34   25320
   25317      33   25323   25317      33   25323   25320      34   25329   25326
      33   25332   25326      33   25332   25329      34   25338   25335      33
   25341   25335      33   25341   25338      34   25347   25344      33   25350
   25344      33   25350   25347      34   25356   25353      33   25359   25353
      33   25359   25356      34   25365   25362      33   25368   25362      33
   25368   25365      34   25374   25371      33   25377   25371      33   25377
   25374      34   25383   25380      33   25386   25380      33   25386   25383
      34   25392   25389      33   25395   25389      33   25395   25392      34
   25401   25398      33   25404   25398      33   25404   25401      34   25410
   25407      33   25413   25407      33   25413   25410      34   25419   25416
      33   25422   25416      33   25422   25419      34   25428   25425      33
   25431   25425      33   25431   25428      34   25437   25434      33   25440
   25434      33   25440   25437      34   25446   25443      33   25449   25443
      33   25449   25446      34   25455   25452      33   25458   25452      33
   25458   25455      34   25464   25461      33   25467   25461      33   25467
   25464      34   25473   25470      33   25476   25470      33   25476   25473
      34   25482   25479      33   25485   25479      33   25485   25482      34
   25491   25488      33   25494   25488      33   25494   25491      34   25500
   25497      33   25503   25497      33   25503   25500      34   25509   25506
      33   25512   25506      33   25512   25509      34   25518   25515      33
   25521   25515      33   25521   25518      34   25527   25524      33   25530
   25524      33   25530   25527      34   25536   25533      33   25539   25533
      33   25539   25536      34   25545   25542      33   25548   25542      33
   25548   25545      34   25554   25551      33   25557   25551      33   25557
   25554      34   25563   25560      33   25566   25560      33   25566   25563
      34   25572   25569      33   25575   25569      33   25575   25572      34
   25581   25578      33   25584   25578      33   25584   25581      34   25590
   25587      33   25593   25587      33   25593   25590      34   25599   25596
      33   25602   25596      33   25602   25599      34   25608   25605      33
   25611   25605      33   25611   25608      34   25617   25614      33   25620
   25614      33   25620   25617      34   25626   25623      33   25629   25623
      33   25629   25626      34   25635   25632      33   25638   25632      33
   25638   25635      34   25644   25641      33   25647   25641      33   25647
   25644      34   25653   25650      33   25656   25650      33   25656   25653
      34   25662   25659      33   25665   25659      33   25665   25662      34
   25671   25668      33   25674   25668      33   25674   25671      34   25680
   25677      33   25683   25677      33   25683   25680      34   25689   25686
      33   25692   25686      33   25692   25689      34   25698   25695      33
   25701   25695      33   25701   25698      34   25707   25704      33   25710
   25704      33   25710   25707      34   25716   25713      33   25719   25713
      33   25719   25716      34   25725   25722      33   25728   25722      33
   25728   25725      34   25734   25731      33   25737   25731      33   25737
   25734      34   25743   25740      33   25746   25740      33   25746   25743
      34   25752   25749      33   25755   25749      33   25755   25752      34
   25761   25758      33   25764   25758      33   25764   25761      34   25770
   25767      33   25773   25767      33   25773   25770      34   25779   25776
      33   25782   25776      33   25782   25779      34   25788   25785      33
   25791   25785      33   25791   25788      34   25797   25794      33   25800
   25794      33   25800   25797      34   25806   25803      33   25809   25803
      33   25809   25806      34   25815   25812      33   25818   25812      33
   25818   25815      34   25824   25821      33   25827   25821      33   25827
   25824      34   25833   25830      33   25836   25830      33   25836   25833
      34   25842   25839      33   25845   25839      33   25845   25842      34
   25851   25848      33   25854   25848      33   25854   25851      34   25860
   25857      33   25863   25857      33   25863   25860      34   25869   25866
      33   25872   25866      33   25872   25869      34   25878   25875      33
   25881   25875      33   25881   25878      34   25887   25884      33   25890
   25884      33   25890   25887      34   25896   25893      33   25899   25893
      33   25899   25896      34   25905   25902      33   25908   25902      33
   25908   25905      34   25914   25911      33   25917   25911      33   25917
   25914      34   25923   25920      33   25926   25920      33   25926   25923
      34   25932   25929      33   25935   25929      33   25935   25932      34
   25941   25938      33   25944   25938      33   25944   25941      34   25950
   25947      33   25953   25947      33   25953   25950      34   25959   25956
      33   25962   25956      33   25962   25959      34   25968   25965      33
   25971   25965      33   25971   25968      34   25977   25974      33   25980
   25974      33   25980   25977      34   25986   25983      33   25989   25983
      33   25989   25986      34   25995   25992      33   25998   25992      33
   25998   25995      34   26004   26001      33   26007   26001      33   26007
   26004      34   26013   26010      33   26016   26010      33   26016   26013
      34   26022   26019      33   26025   26019      33   26025   26022      34
   26031   26028      33   26034   26028      33   26034   26031      34   26040
   26037      33   26043   26037      33   26043   26040      34   26049   26046
      33   26052   26046      33   26052   26049      34   26058   26055      33
   26061   26055      33   26061   26058      34   26067   26064      33   26070
   26064      33   26070   26067      34   26076   26073      33   26079   26073
      33   26079   26076      34   26085   26082      33   26088   26082      33
   26088   26085      34   26094   26091      33   26097   26091      33   26097
   26094      34   26103   26100      33   26106   26100      33   26106   26103
      34   26112   26109      33   26115   26109      33   26115   26112      34
   26121   26118      33   26124   26118      33   26124   26121      34   26130
   26127      33   26133   26127      33   26133   26130      34   26139   26136
      33   26142   26136      33   26142   26139      34   26148   26145      33
   26151   26145      33   26151   26148      34   26157   26154      33   26160
   26154      33   26160   26157      34   26166   26163      33   26169   26163
      33   26169   26166      34   26175   26172      33   26178   26172      33
   26178   26175      34   26184   26181      33   26187   26181      33   26187
   26184      34   26193   26190      33   26196   26190      33   26196   26193
      34   26202   26199      33   26205   26199      33   26205   26202      34
   26211   26208      33   26214   26208      33   26214   26211      34   26220
   26217      33   26223   26217      33   26223   26220      34   26229   26226
      33   26232   26226      33   26232   26229      34   26238   26235      33
   26241   26235      33   26241   26238      34   26247   26244      33   26250
   26244      33   26250   26247      34   26256   26253      33   26259   26253
      33   26259   26256      34   26265   26262      33   26268   26262      33
   26268   26265      34   26274   26271      33   26277   26271      33   26277
   26274      34   26283   26280      33   26286   26280      33   26286   26283
      34   26292   26289      33   26295   26289      33   26295   26292      34
   26301   26298      33   26304   26298      33   26304   26301      34   26310
   26307      33   26313   26307      33   26313   26310      34   26319   26316
      33   26322   26316      33   26322   26319      34   26328   26325      33
   26331   26325      33   26331   26328      34   26337   26334      33   26340
   26334      33   26340   26337      34   26346   26343      33   26349   26343
      33   26349   26346      34   26355   26352      33   26358   26352      33
   26358   26355      34   26364   26361      33   26367   26361      33   26367
   26364      34   26373   26370      33   26376   26370      33   26376   26373
      34   26382   26379      33   26385   26379      33   26385   26382      34
   26391   26388      33   26394   26388      33   26394   26391      34   26400
   26397      33   26403   26397      33   26403   26400      34   26409   26406
      33   26412   26406      33   26412   26409      34   26418   26415      33
   26421   26415      33   26421   26418      34   26427   26424      33   26430
   26424      33   26430   26427      34   26436   26433      33   26439   26433
      33   26439   26436      34   26445   26442      33   26448   26442      33
   26448   26445      34   26454   26451      33   26457   26451      33   26457
   26454      34   26463   26460      33   26466   26460      33   26466   26463
      34   26472   26469      33   26475   26469      33   26475   26472      34
   26481   26478      33   26484   26478      33   26484   26481      34   26490
   26487      33   26493   26487      33   26493   26490      34   26499   26496
      33   26502   26496      33   26502   26499      34   26508   26505      33
   26511   26505      33   26511   26508      34   26517   26514      33   26520
   26514      33   26520   26517      34   26526   26523      33   26529   26523
      33   26529   26526      34   26535   26532      33   26538   26532      33
   26538   26535      34   26544   26541      33   26547   26541      33   26547
   26544      34   26553   26550      33   26556   26550      33   26556   26553
      34   26562   26559      33   26565   26559      33   26565   26562      34
   26571   26568      33   26574   26568      33   26574   26571      34   26580
   26577      33   26583   26577      33   26583   26580      34   26589   26586
      33   26592   26586      33   26592   26589      34   26598   26595      33
   26601   26595      33   26601   26598      34   26607   26604      33   26610
   26604      33   26610   26607      34   26616   26613      33   26619   26613
      33   26619   26616      34   26625   26622      33   26628   26622      33
   26628   26625      34   26634   26631      33   26637   26631      33   26637
   26634      34   26643   26640      33   26646   26640      33   26646   26643
      34   26652   26649      33   26655   26649      33   26655   26652      34
   26661   26658      33   26664   26658      33   26664   26661      34   26670
   26667      33   26673   26667      33   26673   26670      34   26679   26676
      33   26682   26676      33   26682   26679      34   26688   26685      33
   26691   26685      33   26691   26688      34   26697   26694      33   26700
   26694      33   26700   26697      34   26706   26703      33   26709   26703
      33   26709   26706      34   26715   26712      33   26718   26712      33
   26718   26715      34   26724   26721      33   26727   26721      33   26727
   26724      34   26733   26730      33   26736   26730      33   26736   26733
      34   26742   26739      33   26745   26739      33   26745   26742      34
   26751   26748      33   26754   26748      33   26754   26751      34   26760
   26757      33   26763   26757      33   26763   26760      34   26769   26766
      33   26772   26766      33   26772   26769      34   26778   26775      33
   26781   26775      33   26781   26778      34   26787   26784      33   26790
   26784      33   26790   26787      34   26796   26793      33   26799   26793
      33   26799   26796      34   26805   26802      33   26808   26802      33
   26808   26805      34   26814   26811      33   26817   26811      33   26817
   26814      34   26823   26820      33   26826   26820      33   26826   26823
      34   26832   26829      33   26835   26829      33   26835   26832      34
   26841   26838      33   26844   26838      33   26844   26841      34   26850
   26847      33   26853   26847      33   26853   26850      34   26859   26856
      33   26862   26856      33   26862   26859      34   26868   26865      33
   26871   26865      33   26871   26868      34   26877   26874      33   26880
   26874      33   26880   26877      34   26886   26883      33   26889   26883
      33   26889   26886      34   26895   26892      33   26898   26892      33
   26898   26895      34   26904   26901      33   26907   26901      33   26907
   26904      34   26913   26910      33   26916   26910      33   26916   26913
      34   26922   26919      33   26925   26919      33   26925   26922      34
   26931   26928      33   26934   26928      33   26934   26931      34   26940
   26937      33   26943   26937      33   26943   26940      34   26949   26946
      33   26952   26946      33   26952   26949      34   26958   26955      33
   26961   26955      33   26961   26958      34   26967   26964      33   26970
   26964      33   26970   26967      34   26976   26973      33   26979   26973
      33   26979   26976      34   26985   26982      33   26988   26982      33
   26988   26985      34   26994   26991      33   26997   26991      33   26997
   26994      34   27003   27000      33   27006   27000      33   27006   27003
      34   27012   27009      33   27015   27009      33   27015   27012      34
   27021   27018      33   27024   27018      33   27024   27021      34   27030
   27027      33   27033   27027      33   27033   27030      34   27039   27036
      33   27042   27036      33   27042   27039      34   27048   27045      33
   27051   27045      33   27051   27048      34   27057   27054      33   27060
   27054      33   27060   27057      34   27066   27063      33   27069   27063
      33   27069   27066      34   27075   27072      33   27078   27072      33
   27078   27075      34   27084   27081      33   27087   27081      33   27087
   27084      34   27093   27090      33   27096   27090      33   27096   27093
      34   27102   27099      33   27105   27099      33   27105   27102      34
   27111   27108      33   27114   27108      33   27114   27111      34   27120
   27117      33   27123   27117      33   27123   27120      34   27129   27126
      33   27132   27126      33   27132   27129      34   27138   27135      33
   27141   27135      33   27141   27138      34   27147   27144      33   27150
   27144      33   27150   27147      34   27156   27153      33   27159   27153
      33   27159   27156      34   27165   27162      33   27168   27162      33
   27168   27165      34   27174   27171      33   27177   27171      33   27177
   27174      34   27183   27180      33   27186   27180      33   27186   27183
      34   27192   27189      33   27195   27189      33   27195   27192      34
   27201   27198      33   27204   27198      33   27204   27201      34   27210
   27207      33   27213   27207      33   27213   27210      34   27219   27216
      33   27222   27216      33   27222   27219      34   27228   27225      33
   27231   27225      33   27231   27228      34   27237   27234      33   27240
   27234      33   27240   27237      34   27246   27243      33   27249   27243
      33   27249   27246      34   27255   27252      33   27258   27252      33
   27258   27255      34   27264   27261      33   27267   27261      33   27267
   27264      34   27273   27270      33   27276   27270      33   27276   27273
      34   27282   27279      33   27285   27279      33   27285   27282      34
   27291   27288      33   27294   27288      33   27294   27291      34   27300
   27297      33   27303   27297      33   27303   27300      34   27309   27306
      33   27312   27306      33   27312   27309      34   27318   27315      33
   27321   27315      33   27321   27318      34   27327   27324      33   27330
   27324      33   27330   27327      34   27336   27333      33   27339   27333
      33   27339   27336      34   27345   27342      33   27348   27342      33
   27348   27345      34   27354   27351      33   27357   27351      33   27357
   27354      34   27363   27360      33   27366   27360      33   27366   27363
      34   27372   27369      33   27375   27369      33   27375   27372      34
   27381   27378      33   27384   27378      33   27384   27381      34   27390
   27387      33   27393   27387      33   27393   27390      34   27399   27396
      33   27402   27396      33   27402   27399      34   27408   27405      33
   27411   27405      33   27411   27408      34   27417   27414      33   27420
   27414      33   27420   27417      34   27426   27423      33   27429   27423
      33   27429   27426      34   27435   27432      33   27438   27432      33
   27438   27435      34   27444   27441      33   27447   27441      33   27447
   27444      34   27453   27450      33   27456   27450      33   27456   27453
      34   27462   27459      33   27465   27459      33   27465   27462      34
   27471   27468      33   27474   27468      33   27474   27471      34   27480
   27477      33   27483   27477      33   27483   27480      34   27489   27486
      33   27492   27486      33   27492   27489      34   27498   27495      33
   27501   27495      33   27501   27498      34   27507   27504      33   27510
   27504      33   27510   27507      34   27516   27513      33   27519   27513
      33   27519   27516      34   27525   27522      33   27528   27522      33
   27528   27525      34   27534   27531      33   27537   27531      33   27537
   27534      34   27543   27540      33   27546   27540      33   27546   27543
      34   27552   27549      33   27555   27549      33   27555   27552      34
   27561   27558      33   27564   27558      33   27564   27561      34   27570
   27567      33   27573   27567      33   27573   27570      34   27579   27576
      33   27582   27576      33   27582   27579      34   27588   27585      33
   27591   27585      33   27591   27588      34   27597   27594      33   27600
   27594      33   27600   27597      34   27606   27603      33   27609   27603
      33   27609   27606      34   27615   27612      33   27618   27612      33
   27618   27615      34   27624   27621      33   27627   27621      33   27627
   27624      34   27633   27630      33   27636   27630      33   27636   27633
      34   27642   27639      33   27645   27639      33   27645   27642      34
   27651   27648      33   27654   27648      33   27654   27651      34   27660
   27657      33   27663   27657      33   27663   27660      34   27669   27666
      33   27672   27666      33   27672   27669      34   27678   27675      33
   27681   27675      33   27681   27678      34   27687   27684      33   27690
   27684      33   27690   27687      34   27696   27693      33   27699   27693
      33   27699   27696      34   27705   27702      33   27708   27702      33
   27708   27705      34   27714   27711      33   27717   27711      33   27717
   27714      34   27723   27720      33   27726   27720      33   27726   27723
      34   27732   27729      33   27735   27729      33   27735   27732      34
   27741   27738      33   27744   27738      33   27744   27741      34   27750
   27747      33   27753   27747      33   27753   27750      34   27759   27756
      33   27762   27756      33   27762   27759      34   27768   27765      33
   27771   27765      33   27771   27768      34   27777   27774      33   27780
   27774      33   27780   27777      34   27786   27783      33   27789   27783
      33   27789   27786      34   27795   27792      33   27798   27792      33
   27798   27795      34   27804   27801      33   27807   27801      33   27807
   27804      34   27813   27810      33   27816   27810      33   27816   27813
      34   27822   27819      33   27825   27819      33   27825   27822      34
   27831   27828      33   27834   27828      33   27834   27831      34   27840
   27837      33   27843   27837      33   27843   27840      34   27849   27846
      33   27852   27846      33   27852   27849      34   27858   27855      33
   27861   27855      33   27861   27858      34   27867   27864      33   27870
   27864      33   27870   27867      34   27876   27873      33   27879   27873
      33   27879   27876      34   27885   27882      33   27888   27882      33
   27888   27885      34   27894   27891      33   27897   27891      33   27897
   27894      34   27903   27900      33   27906   27900      33   27906   27903
      34   27912   27909      33   27915   27909      33   27915   27912      34
   27921   27918      33   27924   27918      33   27924   27921      34   27930
   27927      33   27933   27927      33   27933   27930      34   27939   27936
      33   27942   27936      33   27942   27939      34   27948   27945      33
   27951   27945      33   27951   27948      34   27957   27954      33   27960
   27954      33   27960   27957      34   27966   27963      33   27969   27963
      33   27969   27966      34   27975   27972      33   27978   27972      33
   27978   27975      34   27984   27981      33   27987   27981      33   27987
   27984      34   27993   27990      33   27996   27990      33   27996   27993
      34   28002   27999      33   28005   27999      33   28005   28002      34
   28011   28008      33   28014   28008      33   28014   28011      34   28020
   28017      33   28023   28017      33   28023   28020      34   28029   28026
      33   28032   28026      33   28032   28029      34   28038   28035      33
   28041   28035      33   28041   28038      34   28047   28044      33   28050
   28044      33   28050   28047      34   28056   28053      33   28059   28053
      33   28059   28056      34   28065   28062      33   28068   28062      33
   28068   28065      34   28074   28071      33   28077   28071      33   28077
   28074      34   28083   28080      33   28086   28080      33   28086   28083
      34   28092   28089      33   28095   28089      33   28095   28092      34
   28101   28098      33   28104   28098      33   28104   28101      34   28110
   28107      33   28113   28107      33   28113   28110      34   28119   28116
      33   28122   28116      33   28122   28119      34   28128   28125      33
   28131   28125      33   28131   28128      34   28137   28134      33   28140
   28134      33   28140   28137      34   28146   28143      33   28149   28143
      33   28149   28146      34   28155   28152      33   28158   28152      33
   28158   28155      34   28164   28161      33   28167   28161      33   28167
   28164      34   28173   28170      33   28176   28170      33   28176   28173
      34   28182   28179      33   28185   28179      33   28185   28182      34
   28191   28188      33   28194   28188      33   28194   28191      34   28200
   28197      33   28203   28197      33   28203   28200      34   28209   28206
      33   28212   28206      33   28212   28209      34   28218   28215      33
   28221   28215      33   28221   28218      34   28227   28224      33   28230
   28224      33   28230   28227      34   28236   28233      33   28239   28233
      33   28239   28236      34   28245   28242      33   28248   28242      33
   28248   28245      34   28254   28251      33   28257   28251      33   28257
   28254      34   28263   28260      33   28266   28260      33   28266   28263
      34   28272   28269      33   28275   28269      33   28275   28272      34
   28281   28278      33   28284   28278      33   28284   28281      34   28290
   28287      33   28293   28287      33   28293   28290      34   28299   28296
      33   28302   28296      33   28302   28299      34   28308   28305      33
   28311   28305      33   28311   28308      34   28317   28314      33   28320
   28314      33   28320   28317      34   28326   28323      33   28329   28323
      33   28329   28326      34   28335   28332      33   28338   28332      33
   28338   28335      34   28344   28341      33   28347   28341      33   28347
   28344      34   28353   28350      33   28356   28350      33   28356   28353
      34   28362   28359      33   28365   28359      33   28365   28362      34
   28371   28368      33   28374   28368      33   28374   28371      34   28380
   28377      33   28383   28377      33   28383   28380      34   28389   28386
      33   28392   28386      33   28392   28389      34   28398   28395      33
   28401   28395      33   28401   28398      34   28407   28404      33   28410
   28404      33   28410   28407      34   28416   28413      33   28419   28413
      33   28419   28416      34   28425   28422      33   28428   28422      33
   28428   28425      34   28434   28431      33   28437   28431      33   28437
   28434      34   28443   28440      33   28446   28440      33   28446   28443
      34   28452   28449      33   28455   28449      33   28455   28452      34
   28461   28458      33   28464   28458      33   28464   28461      34   28470
   28467      33   28473   28467      33   28473   28470      34   28479   28476
      33   28482   28476      33   28482   28479      34   28488   28485      33
   28491   28485      33   28491   28488      34   28497   28494      33   28500
   28494      33   28500   28497      34   28506   28503      33   28509   28503
      33   28509   28506      34   28515   28512      33   28518   28512      33
   28518   28515      34   28524   28521      33   28527   28521      33   28527
   28524      34   28533   28530      33   28536   28530      33   28536   28533
      34   28542   28539      33   28545   28539      33   28545   28542      34
   28551   28548      33   28554   28548      33   28554   28551      34   28560
   28557      33   28563   28557      33   28563   28560      34   28569   28566
      33   28572   28566      33   28572   28569      34   28578   28575      33
   28581   28575      33   28581   28578      34   28587   28584      33   28590
   28584      33   28590   28587      34   28596   28593      33   28599   28593
      33   28599   28596      34   28605   28602      33   28608   28602      33
   28608   28605      34   28614   28611      33   28617   28611      33   28617
   28614      34   28623   28620      33   28626   28620      33   28626   28623
      34   28632   28629      33   28635   28629      33   28635   28632      34
   28641   28638      33   28644   28638      33   28644   28641      34   28650
   28647      33   28653   28647      33   28653   28650      34   28659   28656
      33   28662   28656      33   28662   28659      34   28668   28665      33
   28671   28665      33   28671   28668      34   28677   28674      33   28680
   28674      33   28680   28677      34   28686   28683      33   28689   28683
      33   28689   28686      34   28695   28692      33   28698   28692      33
   28698   28695      34   28704   28701      33   28707   28701      33   28707
   28704      34   28713   28710      33   28716   28710      33   28716   28713
      34   28722   28719      33   28725   28719      33   28725   28722      34
   28731   28728      33   28734   28728      33   28734   28731      34   28740
   28737      33   28743   28737      33   28743   28740      34   28749   28746
      33   28752   28746      33   28752   28749      34   28758   28755      33
   28761   28755      33   28761   28758      34   28767   28764      33   28770
   28764      33   28770   28767      34   28776   28773      33   28779   28773
      33   28779   28776      34   28785   28782      33   28788   28782      33
   28788   28785      34   28794   28791      33   28797   28791      33   28797
   28794      34   28803   28800      33   28806   28800      33   28806   28803
      34   28812   28809      33   28815   28809      33   28815   28812      34
   28821   28818      33   28824   28818      33   28824   28821      34   28830
   28827      33   28833   28827      33   28833   28830      34   28839   28836
      33   28842   28836      33   28842   28839      34   28848   28845      33
   28851   28845      33   28851   28848      34   28857   28854      33   28860
   28854      33   28860   28857      34   28866   28863      33   28869   28863
      33   28869   28866      34   28875   28872      33   28878   28872      33
   28878   28875      34   28884   28881      33   28887   28881      33   28887
   28884      34   28893   28890      33   28896   28890      33   28896   28893
      34   28902   28899      33   28905   28899      33   28905   28902      34
   28911   28908      33   28914   28908      33   28914   28911      34   28920
   28917      33   28923   28917      33   28923   28920      34   28929   28926
      33   28932   28926      33   28932   28929      34   28938   28935      33
   28941   28935      33   28941   28938      34   28947   28944      33   28950
   28944      33   28950   28947      34   28956   28953      33   28959   28953
      33   28959   28956      34   28965   28962      33   28968   28962      33
   28968   28965      34   28974   28971      33   28977   28971      33   28977
   28974      34   28983   28980      33   28986   28980      33   28986   28983
      34   28992   28989      33   28995   28989      33   28995   28992      34
   29001   28998      33   29004   28998      33   29004   29001      34   29010
   29007      33   29013   29007      33   29013   29010      34   29019   29016
      33   29022   29016      33   29022   29019      34   29028   29025      33
   29031   29025      33   29031   29028      34   29037   29034      33   29040
   29034      33   29040   29037      34   29046   29043      33   29049   29043
      33   29049   29046      34   29055   29052      33   29058   29052      33
   29058   29055      34   29064   29061      33   29067   29061      33   29067
   29064      34   29073   29070      33   29076   29070      33   29076   29073
      34   29082   29079      33   29085   29079      33   29085   29082      34
   29091   29088      33   29094   29088      33   29094   29091      34   29100
   29097      33   29103   29097      33   29103   29100      34   29109   29106
      33   29112   29106      33   29112   29109      34   29118   29115      33
   29121   29115      33   29121   29118      34   29127   29124      33   29130
   29124      33   29130   29127      34   29136   29133      33   29139   29133
      33   29139   29136      34   29145   29142      33   29148   29142      33
   29148   29145      34   29154   29151      33   29157   29151      33   29157
   29154      34   29163   29160      33   29166   29160      33   29166   29163
      34   29172   29169      33   29175   29169      33   29175   29172      34
   29181   29178      33   29184   29178      33   29184   29181      34   29190
   29187      33   29193   29187      33   29193   29190      34   29199   29196
      33   29202   29196      33   29202   29199      34   29208   29205      33
   29211   29205      33   29211   29208      34   29217   29214      33   29220
   29214      33   29220   29217      34   29226   29223      33   29229   29223
      33   29229   29226      34   29235   29232      33   29238   29232      33
   29238   29235      34   29244   29241      33   29247   29241      33   29247
   29244      34   29253   29250      33   29256   29250      33   29256   29253
      34   29262   29259      33   29265   29259      33   29265   29262      34
   29271   29268      33   29274   29268      33   29274   29271      34   29280
   29277      33   29283   29277      33   29283   29280      34   29289   29286
      33   29292   29286      33   29292   29289      34   29298   29295      33
   29301   29295      33   29301   29298      34   29307   29304      33   29310
   29304      33   29310   29307      34   29316   29313      33   29319   29313
      33   29319   29316      34   29325   29322      33   29328   29322      33
   29328   29325      34   29334   29331      33   29337   29331      33   29337
   29334      34   29343   29340      33   29346   29340      33   29346   29343
      34   29352   29349      33   29355   29349      33   29355   29352      34
   29361   29358      33   29364   29358      33   29364   29361      34   29370
   29367      33   29373   29367      33   29373   29370      34   29379   29376
      33   29382   29376      33   29382   29379      34   29388   29385      33
   29391   29385      33   29391   29388      34   29397   29394      33   29400
   29394      33   29400   29397      34   29406   29403      33   29409   29403
      33   29409   29406      34   29415   29412      33   29418   29412      33
   29418   29415      34   29424   29421      33   29427   29421      33   29427
   29424      34   29433   29430      33   29436   29430      33   29436   29433
      34   29442   29439      33   29445   29439      33   29445   29442      34
   29451   29448      33   29454   29448      33   29454   29451      34   29460
   29457      33   29463   29457      33   29463   29460      34   29469   29466
      33   29472   29466      33   29472   29469      34   29478   29475      33
   29481   29475      33   29481   29478      34   29487   29484      33   29490
   29484      33   29490   29487      34   29496   29493      33   29499   29493
      33   29499   29496      34   29505   29502      33   29508   29502      33
   29508   29505      34   29514   29511      33   29517   29511      33   29517
   29514      34   29523   29520      33   29526   29520      33   29526   29523
      34   29532   29529      33   29535   29529      33   29535   29532      34
   29541   29538      33   29544   29538      33   29544   29541      34   29550
   29547      33   29553   29547      33   29553   29550      34   29559   29556
      33   29562   29556      33   29562   29559      34   29568   29565      33
   29571   29565      33   29571   29568      34   29577   29574      33   29580
   29574      33   29580   29577      34   29586   29583      33   29589   29583
      33   29589   29586      34   29595   29592      33   29598   29592      33
   29598   29595      34   29604   29601      33   29607   29601      33   29607
   29604      34   29613   29610      33   29616   29610      33   29616   29613
      34   29622   29619      33   29625   29619      33   29625   29622      34
   29631   29628      33   29634   29628      33   29634   29631      34   29640
   29637      33   29643   29637      33   29643   29640      34   29649   29646
      33   29652   29646      33   29652   29649      34   29658   29655      33
   29661   29655      33   29661   29658      34   29667   29664      33   29670
   29664      33   29670   29667      34   29676   29673      33   29679   29673
      33   29679   29676      34   29685   29682      33   29688   29682      33
   29688   29685      34   29694   29691      33   29697   29691      33   29697
   29694      34   29703   29700      33   29706   29700      33   29706   29703
      34   29712   29709      33   29715   29709      33   29715   29712      34
   29721   29718      33   29724   29718      33   29724   29721      34   29730
   29727      33   29733   29727      33   29733   29730      34   29739   29736
      33   29742   29736      33   29742   29739      34   29748   29745      33
   29751   29745      33   29751   29748      34   29757   29754      33   29760
   29754      33   29760   29757      34   29766   29763      33   29769   29763
      33   29769   29766      34   29775   29772      33   29778   29772      33
   29778   29775      34   29784   29781      33   29787   29781      33   29787
   29784      34   29793   29790      33   29796   29790      33   29796   29793
      34   29802   29799      33   29805   29799      33   29805   29802      34
   29811   29808      33   29814   29808      33   29814   29811      34   29820
   29817      33   29823   29817      33   29823   29820      34   29829   29826
      33   29832   29826      33   29832   29829      34   29838   29835      33
   29841   29835      33   29841   29838      34   29847   29844      33   29850
   29844      33   29850   29847      34   29856   29853      33   29859   29853
      33   29859   29856      34   29865   29862      33   29868   29862      33
   29868   29865      34   29874   29871      33   29877   29871      33   29877
   29874      34   29883   29880      33   29886   29880      33   29886   29883
      34   29892   29889      33   29895   29889      33   29895   29892      34
   29901   29898      33   29904   29898      33   29904   29901      34   29910
   29907      33   29913   29907      33   29913   29910      34   29919   29916
      33   29922   29916      33   29922   29919      34   29928   29925      33
   29931   29925      33   29931   29928      34   29937   29934      33   29940
   29934      33   29940   29937      34   29946   29943      33   29949   29943
      33   29949   29946      34   29955   29952      33   29958   29952      33
   29958   29955      34   29964   29961      33   29967   29961      33   29967
   29964      34   29973   29970      33   29976   29970      33   29976   29973
      34   29982   29979      33   29985   29979      33   29985   29982      34
   29991   29988      33   29994   29988      33   29994   29991      34   30000
   29997      33   30003   29997      33   30003   30000      34   30009   30006
      33   30012   30006      33   30012   30009      34   30018   30015      33
   30021   30015      33   30021   30018      34   30027   30024      33   30030
   30024      33   30030   30027      34   30036   30033      33   30039   30033
      33   30039   30036      34   30045   30042      33   30048   30042      33
   30048   30045      34   30054   30051      33   30057   30051      33   30057
   30054      34   30063   30060      33   30066   30060      33   30066   30063
      34   30072   30069      33   30075   30069      33   30075   30072      34
   30081   30078      33   30084   30078      33   30084   30081      34   30090
   30087      33   30093   30087      33   30093   30090      34   30099   30096
      33   30102   30096      33   30102   30099      34   30108   30105      33
   30111   30105      33   30111   30108      34   30117   30114      33   30120
   30114      33   30120   30117      34   30126   30123      33   30129   30123
      33   30129   30126      34   30135   30132      33   30138   30132      33
   30138   30135      34   30144   30141      33   30147   30141      33   30147
   30144      34   30153   30150      33   30156   30150      33   30156   30153
      34   30162   30159      33   30165   30159      33   30165   30162      34
   30171   30168      33   30174   30168      33   30174   30171      34   30180
   30177      33   30183   30177      33   30183   30180      34   30189   30186
      33   30192   30186      33   30192   30189      34   30198   30195      33
   30201   30195      33   30201   30198      34   30207   30204      33   30210
   30204      33   30210   30207      34   30216   30213      33   30219   30213
      33   30219   30216      34   30225   30222      33   30228   30222      33
   30228   30225      34   30234   30231      33   30237   30231      33   30237
   30234      34   30243   30240      33   30246   30240      33   30246   30243
      34   30252   30249      33   30255   30249      33   30255   30252      34
   30261   30258      33   30264   30258      33   30264   30261      34   30270
   30267      33   30273   30267      33   30273   30270      34   30279   30276
      33   30282   30276      33   30282   30279      34   30288   30285      33
   30291   30285      33   30291   30288      34   30297   30294      33   30300
   30294      33   30300   30297      34   30306   30303      33   30309   30303
      33   30309   30306      34   30315   30312      33   30318   30312      33
   30318   30315      34   30324   30321      33   30327   30321      33   30327
   30324      34   30333   30330      33   30336   30330      33   30336   30333
      34   30342   30339      33   30345   30339      33   30345   30342      34
   30351   30348      33   30354   30348      33   30354   30351      34   30360
   30357      33   30363   30357      33   30363   30360      34   30369   30366
      33   30372   30366      33   30372   30369      34   30378   30375      33
   30381   30375      33   30381   30378      34   30387   30384      33   30390
   30384      33   30390   30387      34   30396   30393      33   30399   30393
      33   30399   30396      34   30405   30402      33   30408   30402      33
   30408   30405      34   30414   30411      33   30417   30411      33   30417
   30414      34   30423   30420      33   30426   30420      33   30426   30423
      34   30432   30429      33   30435   30429      33   30435   30432      34
   30441   30438      33   30444   30438      33   30444   30441      34   30450
   30447      33   30453   30447      33   30453   30450      34   30459   30456
      33   30462   30456      33   30462   30459      34   30468   30465      33
   30471   30465      33   30471   30468      34   30477   30474      33   30480
   30474      33   30480   30477      34   30486   30483      33   30489   30483
      33   30489   30486      34   30495   30492      33   30498   30492      33
   30498   30495      34   30504   30501      33   30507   30501      33   30507
   30504      34   30513   30510      33   30516   30510      33   30516   30513
      34   30522   30519      33   30525   30519      33   30525   30522      34
   30531   30528      33   30534   30528      33   30534   30531      34   30540
   30537      33   30543   30537      33   30543   30540      34   30549   30546
      33   30552   30546      33   30552   30549      34   30558   30555      33
   30561   30555      33   30561   30558      34   30567   30564      33   30570
   30564      33   30570   30567      34   30576   30573      33   30579   30573
      33   30579   30576      34   30585   30582      33   30588   30582      33
   30588   30585      34   30594   30591      33   30597   30591      33   30597
   30594      34   30603   30600      33   30606   30600      33   30606   30603
      34   30612   30609      33   30615   30609      33   30615   30612      34
   30621   30618      33   30624   30618      33   30624   30621      34   30630
   30627      33   30633   30627      33   30633   30630      34   30639   30636
      33   30642   30636      33   30642   30639      34   30648   30645      33
   30651   30645      33   30651   30648      34   30657   30654      33   30660
   30654      33   30660   30657      34   30666   30663      33   30669   30663
      33   30669   30666      34   30675   30672      33   30678   30672      33
   30678   30675      34   30684   30681      33   30687   30681      33   30687
   30684      34   30693   30690      33   30696   30690      33   30696   30693
      34   30702   30699      33   30705   30699      33   30705   30702      34
   30711   30708      33   30714   30708      33   30714   30711      34   30720
   30717      33   30723   30717      33   30723   30720      34   30729   30726
      33   30732   30726      33   30732   30729      34   30738   30735      33
   30741   30735      33   30741   30738      34   30747   30744      33   30750
   30744      33   30750   30747      34   30756   30753      33   30759   30753
      33   30759   30756      34   30765   30762      33   30768   30762      33
   30768   30765      34   30774   30771      33   30777   30771      33   30777
   30774      34   30783   30780      33   30786   30780      33   30786   30783
      34   30792   30789      33   30795   30789      33   30795   30792      34
   30801   30798      33   30804   30798      33   30804   30801      34   30810
   30807      33   30813   30807      33   30813   30810      34   30819   30816
      33   30822   30816      33   30822   30819      34   30828   30825      33
   30831   30825      33   30831   30828      34   30837   30834      33   30840
   30834      33   30840   30837      34   30846   30843      33   30849   30843
      33   30849   30846      34   30855   30852      33   30858   30852      33
   30858   30855      34   30864   30861      33   30867   30861      33   30867
   30864      34   30873   30870      33   30876   30870      33   30876   30873
      34   30882   30879      33   30885   30879      33   30885   30882      34
   30891   30888      33   30894   30888      33   30894   30891      34   30900
   30897      33   30903   30897      33   30903   30900      34   30909   30906
      33   30912   30906      33   30912   30909      34   30918   30915      33
   30921   30915      33   30921   30918      34   30927   30924      33   30930
   30924      33   30930   30927      34   30936   30933      33   30939   30933
      33   30939   30936      34   30945   30942      33   30948   30942      33
   30948   30945      34   30954   30951      33   30957   30951      33   30957
   30954      34   30963   30960      33   30966   30960      33   30966   30963
      34   30972   30969      33   30975   30969      33   30975   30972      34
   30981   30978      33   30984   30978      33   30984   30981      34   30990
   30987      33   30993   30987      33   30993   30990      34   30999   30996
      33   31002   30996      33   31002   30999      34   31008   31005      33
   31011   31005      33   31011   31008      34   31017   31014      33   31020
   31014      33   31020   31017      34   31026   31023      33   31029   31023
      33   31029   31026      34   31035   31032      33   31038   31032      33
   31038   31035      34   31044   31041      33   31047   31041      33   31047
   31044      34   31053   31050      33   31056   31050      33   31056   31053
      34   31062   31059      33   31065   31059      33   31065   31062      34
   31071   31068      33   31074   31068      33   31074   31071      34   31080
   31077      33   31083   31077      33   31083   31080      34   31089   31086
      33   31092   31086      33   31092   31089      34   31098   31095      33
   31101   31095      33   31101   31098      34   31107   31104      33   31110
   31104      33   31110   31107      34   31116   31113      33   31119   31113
      33   31119   31116      34   31125   31122      33   31128   31122      33
   31128   31125      34   31134   31131      33   31137   31131      33   31137
   31134      34   31143   31140      33   31146   31140      33   31146   31143
      34   31152   31149      33   31155   31149      33   31155   31152      34
   31161   31158      33   31164   31158      33   31164   31161      34   31170
   31167      33   31173   31167      33   31173   31170      34   31179   31176
      33   31182   31176      33   31182   31179      34   31188   31185      33
   31191   31185      33   31191   31188      34   31197   31194      33   31200
   31194      33   31200   31197      34   31206   31203      33   31209   31203
      33   31209   31206      34   31215   31212      33   31218   31212      33
   31218   31215      34   31224   31221      33   31227   31221      33   31227
   31224      34   31233   31230      33   31236   31230      33   31236   31233
      34   31242   31239      33   31245   31239      33   31245   31242      34
   31251   31248      33   31254   31248      33   31254   31251      34   31260
   31257      33   31263   31257      33   31263   31260      34   31269   31266
      33   31272   31266      33   31272   31269      34   31278   31275      33
   31281   31275      33   31281   31278      34   31287   31284      33   31290
   31284      33   31290   31287      34   31296   31293      33   31299   31293
      33   31299   31296      34   31305   31302      33   31308   31302      33
   31308   31305      34   31314   31311      33   31317   31311      33   31317
   31314      34   31323   31320      33   31326   31320      33   31326   31323
      34   31332   31329      33   31335   31329      33   31335   31332      34
   31341   31338      33   31344   31338      33   31344   31341      34   31350
   31347      33   31353   31347      33   31353   31350      34   31359   31356
      33   31362   31356      33   31362   31359      34   31368   31365      33
   31371   31365      33   31371   31368      34   31377   31374      33   31380
   31374      33   31380   31377      34   31386   31383      33   31389   31383
      33   31389   31386      34   31395   31392      33   31398   31392      33
   31398   31395      34   31404   31401      33   31407   31401      33   31407
   31404      34   31413   31410      33   31416   31410      33   31416   31413
      34   31422   31419      33   31425   31419      33   31425   31422      34
   31431   31428      33   31434   31428      33   31434   31431      34   31440
   31437      33   31443   31437      33   31443   31440      34   31449   31446
      33   31452   31446      33   31452   31449      34   31458   31455      33
   31461   31455      33   31461   31458      34   31467   31464      33   31470
   31464      33   31470   31467      34   31476   31473      33   31479   31473
      33   31479   31476      34   31485   31482      33   31488   31482      33
   31488   31485      34   31494   31491      33   31497   31491      33   31497
   31494      34   31503   31500      33   31506   31500      33   31506   31503
      34   31512   31509      33   31515   31509      33   31515   31512      34
   31521   31518      33   31524   31518      33   31524   31521      34   31530
   31527      33   31533   31527      33   31533   31530      34   31539   31536
      33   31542   31536      33   31542   31539      34   31548   31545      33
   31551   31545      33   31551   31548      34   31557   31554      33   31560
   31554      33   31560   31557      34   31566   31563      33   31569   31563
      33   31569   31566      34   31575   31572      33   31578   31572      33
   31578   31575      34   31584   31581      33   31587   31581      33   31587
   31584      34   31593   31590      33   31596   31590      33   31596   31593
      34   31602   31599      33   31605   31599      33   31605   31602      34
   31611   31608      33   31614   31608      33   31614   31611      34   31620
   31617      33   31623   31617      33   31623   31620      34   31629   31626
      33   31632   31626      33   31632   31629      34   31638   31635      33
   31641   31635      33   31641   31638      34   31647   31644      33   31650
   31644      33   31650   31647      34   31656   31653      33   31659   31653
      33   31659   31656      34   31665   31662      33   31668   31662      33
   31668   31665      34   31674   31671      33   31677   31671      33   31677
   31674      34   31683   31680      33   31686   31680      33   31686   31683
      34   31692   31689      33   31695   31689      33   31695   31692      34
   31701   31698      33   31704   31698      33   31704   31701      34   31710
   31707      33   31713   31707      33   31713   31710      34   31719   31716
      33   31722   31716      33   31722   31719      34   31728   31725      33
   31731   31725      33   31731   31728      34   31737   31734      33   31740
   31734      33   31740   31737      34   31746   31743      33   31749   31743
      33   31749   31746      34   31755   31752      33   31758   31752      33
   31758   31755      34   31764   31761      33   31767   31761      33   31767
   31764      34   31773   31770      33   31776   31770      33   31776   31773
      34   31782   31779      33   31785   31779      33   31785   31782      34
   31791   31788      33   31794   31788      33   31794   31791      34   31800
   31797      33   31803   31797      33   31803   31800      34   31809   31806
      33   31812   31806      33   31812   31809      34   31818   31815      33
   31821   31815      33   31821   31818      34   31827   31824      33   31830
   31824      33   31830   31827      34   31836   31833      33   31839   31833
      33   31839   31836      34   31845   31842      33   31848   31842      33
   31848   31845      34   31854   31851      33   31857   31851      33   31857
   31854      34   31863   31860      33   31866   31860      33   31866   31863
      34   31872   31869      33   31875   31869      33   31875   31872      34
   31881   31878      33   31884   31878      33   31884   31881      34   31890
   31887      33   31893   31887      33   31893   31890      34   31899   31896
      33   31902   31896      33   31902   31899      34   31908   31905      33
   31911   31905      33   31911   31908      34   31917   31914      33   31920
   31914      33   31920   31917      34   31926   31923      33   31929   31923
      33   31929   31926      34   31935   31932      33   31938   31932      33
   31938   31935      34   31944   31941      33   31947   31941      33   31947
   31944      34   31953   31950      33   31956   31950      33   31956   31953
      34   31962   31959      33   31965   31959      33   31965   31962      34
   31971   31968      33   31974   31968      33   31974   31971      34   31980
   31977      33   31983   31977      33   31983   31980      34   31989   31986
      33   31992   31986      33   31992   31989      34   31998   31995      33
   32001   31995      33   32001   31998      34   32007   32004      33   32010
   32004      33   32010   32007      34   32016   32013      33   32019   32013
      33   32019   32016      34   32025   32022      33   32028   32022      33
   32028   32025      34   32034   32031      33   32037   32031      33   32037
   32034      34   32043   32040      33   32046   32040      33   32046   32043
      34   32052   32049      33   32055   32049      33   32055   32052      34
   32061   32058      33   32064   32058      33   32064   32061      34   32070
   32067      33   32073   32067      33   32073   32070      34   32079   32076
      33   32082   32076      33   32082   32079      34   32088   32085      33
   32091   32085      33   32091   32088      34   32097   32094      33   32100
   32094      33   32100   32097      34   32106   32103      33   32109   32103
      33   32109   32106      34   32115   32112      33   32118   32112      33
   32118   32115      34   32124   32121      33   32127   32121      33   32127
   32124      34   32133   32130      33   32136   32130      33   32136   32133
      34   32142   32139      33   32145   32139      33   32145   32142      34
   32151   32148      33   32154   32148      33   32154   32151      34   32160
   32157      33   32163   32157      33   32163   32160      34   32169   32166
      33   32172   32166      33   32172   32169      34   32178   32175      33
   32181   32175      33   32181   32178      34   32187   32184      33   32190
   32184      33   32190   32187      34   32196   32193      33   32199   32193
      33   32199   32196      34   32205   32202      33   32208   32202      33
   32208   32205      34   32214   32211      33   32217   32211      33   32217
   32214      34   32223   32220      33   32226   32220      33   32226   32223
      34   32232   32229      33   32235   32229      33   32235   32232      34
   32241   32238      33   32244   32238      33   32244   32241      34   32250
   32247      33   32253   32247      33   32253   32250      34   32259   32256
      33   32262   32256      33   32262   32259      34   32268   32265      33
   32271   32265      33   32271   32268      34   32277   32274      33   32280
   32274      33   32280   32277      34   32286   32283      33   32289   32283
      33   32289   32286      34   32295   32292      33   32298   32292      33
   32298   32295      34   32304   32301      33   32307   32301      33   32307
   32304      34   32313   32310      33   32316   32310      33   32316   32313
      34   32322   32319      33   32325   32319      33   32325   32322      34
   32331   32328      33   32334   32328      33   32334   32331      34   32340
   32337      33   32343   32337      33   32343   32340      34   32349   32346
      33   32352   32346      33   32352   32349      34   32358   32355      33
   32361   32355      33   32361   32358      34   32367   32364      33   32370
   32364      33   32370   32367      34   32376   32373      33   32379   32373
      33   32379   32376      34   32385   32382      33   32388   32382      33
   32388   32385      34   32394   32391      33   32397   32391      33   32397
   32394      34   32403   32400      33   32406   32400      33   32406   32403
      34   32412   32409      33   32415   32409      33   32415   32412      34
   32421   32418      33   32424   32418      33   32424   32421      34   32430
   32427      33   32433   32427      33   32433   32430      34   32439   32436
      33   32442   32436      33   32442   32439      34   32448   32445      33
   32451   32445      33   32451   32448      34   32457   32454      33   32460
   32454      33   32460   32457      34   32466   32463      33   32469   32463
      33   32469   32466      34   32475   32472      33   32478   32472      33
   32478   32475      34   32484   32481      33   32487   32481      33   32487
   32484      34   32493   32490      33   32496   32490      33   32496   32493
      34   32502   32499      33   32505   32499      33   32505   32502      34
   32511   32508      33   32514   32508      33   32514   32511      34   32520
   32517      33   32523   32517      33   32523   32520      34   32529   32526
      33   32532   32526      33   32532   32529      34   32538   32535      33
   32541   32535      33   32541   32538      34   32547   32544      33   32550
   32544      33   32550   32547      34   32556   32553      33   32559   32553
      33   32559   32556      34   32565   32562      33   32568   32562      33
   32568   32565      34   32574   32571      33   32577   32571      33   32577
   32574      34   32583   32580      33   32586   32580      33   32586   32583
      34   32592   32589      33   32595   32589      33   32595   32592      34
   32601   32598      33   32604   32598      33   32604   32601      34   32610
   32607      33   32613   32607      33   32613   32610      34   32619   32616
      33   32622   32616      33   32622   32619      34   32628   32625      33
   32631   32625      33   32631   32628      34   32637   32634      33   32640
   32634      33   32640   32637      34   32646   32643      33   32649   32643
      33   32649   32646      34   32655   32652      33   32658   32652      33
   32658   32655      34   32664   32661      33   32667   32661      33   32667
   32664      34   32673   32670      33   32676   32670      33   32676   32673
      34   32682   32679      33   32685   32679      33   32685   32682      34
   32691   32688      33   32694   32688      33   32694   32691      34   32700
   32697      33   32703   32697      33   32703   32700      34   32709   32706
      33   32712   32706      33   32712   32709      34   32718   32715      33
   32721   32715      33   32721   32718      34   32727   32724      33   32730
   32724      33   32730   32727      34   32736   32733      33   32739   32733
      33   32739   32736      34   32745   32742      33   32748   32742      33
   32748   32745      34   32754   32751      33   32757   32751      33   32757
   32754      34   32763   32760      33   32766   32760      33   32766   32763
      34   32772   32769      33   32775   32769      33   32775   32772      34
   32781   32778      33   32784   32778      33   32784   32781      34   32790
   32787      33   32793   32787      33   32793   32790      34   32799   32796
      33   32802   32796      33   32802   32799      34   32808   32805      33
   32811   32805      33   32811   32808      34   32817   32814      33   32820
   32814      33   32820   32817      34   32826   32823      33   32829   32823
      33   32829   32826      34   32835   32832      33   32838   32832      33
   32838   32835      34   32844   32841      33   32847   32841      33   32847
   32844      34   32853   32850      33   32856   32850      33   32856   32853
      34   32862   32859      33   32865   32859      33   32865   32862      34
   32871   32868      33   32874   32868      33   32874   32871      34   32880
   32877      33   32883   32877      33   32883   32880      34   32889   32886
      33   32892   32886      33   32892   32889      34   32898   32895      33
   32901   32895      33   32901   32898      34   32907   32904      33   32910
   32904      33   32910   32907      34   32916   32913      33   32919   32913
      33   32919   32916      34   32925   32922      33   32928   32922      33
   32928   32925      34   32934   32931      33   32937   32931      33   32937
   32934      34   32943   32940      33   32946   32940      33   32946   32943
      34   32952   32949      33   32955   32949      33   32955   32952      34
   32961   32958      33   32964   32958      33   32964   32961      34   32970
   32967      33   32973   32967      33   32973   32970      34   32979   32976
      33   32982   32976      33   32982   32979      34   32988   32985      33
   32991   32985      33   32991   32988      34   32997   32994      33   33000
   32994      33   33000   32997      34   33006   33003      33   33009   33003
      33   33009   33006      34   33015   33012      33   33018   33012      33
   33018   33015      34   33024   33021      33   33027   33021      33   33027
   33024      34   33033   33030      33   33036   33030      33   33036   33033
      34   33042   33039      33   33045   33039      33   33045   33042      34
   33051   33048      33   33054   33048      33   33054   33051      34   33060
   33057      33   33063   33057      33   33063   33060      34   33069   33066
      33   33072   33066      33   33072   33069      34   33078   33075      33
   33081   33075      33   33081   33078      34   33087   33084      33   33090
   33084      33   33090   33087      34   33096   33093      33   33099   33093
      33   33099   33096      34   33105   33102      33   33108   33102      33
   33108   33105      34   33114   33111      33   33117   33111      33   33117
   33114      34   33123   33120      33   33126   33120      33   33126   33123
      34   33132   33129      33   33135   33129      33   33135   33132      34
   33141   33138      33   33144   33138      33   33144   33141      34   33150
   33147      33   33153   33147      33   33153   33150      34   33159   33156
      33   33162   33156      33   33162   33159      34   33168   33165      33
   33171   33165      33   33171   33168      34   33177   33174      33   33180
   33174      33   33180   33177      34   33186   33183      33   33189   33183
      33   33189   33186      34   33195   33192      33   33198   33192      33
   33198   33195      34   33204   33201      33   33207   33201      33   33207
   33204      34   33213   33210      33   33216   33210      33   33216   33213
      34   33222   33219      33   33225   33219      33   33225   33222      34
   33231   33228      33   33234   33228      33   33234   33231      34   33240
   33237      33   33243   33237      33   33243   33240      34   33249   33246
      33   33252   33246      33   33252   33249      34   33258   33255      33
   33261   33255      33   33261   33258      34   33267   33264      33   33270
   33264      33   33270   33267      34   33276   33273      33   33279   33273
      33   33279   33276      34   33285   33282      33   33288   33282      33
   33288   33285      34   33294   33291      33   33297   33291      33   33297
   33294      34   33303   33300      33   33306   33300      33   33306   33303
      34   33312   33309      33   33315   33309      33   33315   33312      34
   33321   33318      33   33324   33318      33   33324   33321      34   33330
   33327      33   33333   33327      33   33333   33330      34   33339   33336
      33   33342   33336      33   33342   33339      34   33348   33345      33
   33351   33345      33   33351   33348      34   33357   33354      33   33360
   33354      33   33360   33357      34   33366   33363      33   33369   33363
      33   33369   33366      34   33375   33372      33   33378   33372      33
   33378   33375      34   33384   33381      33   33387   33381      33   33387
   33384      34   33393   33390      33   33396   33390      33   33396   33393
      34   33402   33399      33   33405   33399      33   33405   33402      34
   33411   33408      33   33414   33408      33   33414   33411      34   33420
   33417      33   33423   33417      33   33423   33420      34   33429   33426
      33   33432   33426      33   33432   33429      34   33438   33435      33
   33441   33435      33   33441   33438      34   33447   33444      33   33450
   33444      33   33450   33447      34   33456   33453      33   33459   33453
      33   33459   33456      34   33465   33462      33   33468   33462      33
   33468   33465      34   33474   33471      33   33477   33471      33   33477
   33474      34   33483   33480      33   33486   33480      33   33486   33483
      34   33492   33489      33   33495   33489      33   33495   33492      34
   33501   33498      33   33504   33498      33   33504   33501      34   33510
   33507      33   33513   33507      33   33513   33510      34   33519   33516
      33   33522   33516      33   33522   33519      34   33528   33525      33
   33531   33525      33   33531   33528      34   33537   33534      33   33540
   33534      33   33540   33537      34   33546   33543      33   33549   33543
      33   33549   33546      34   33555   33552      33   33558   33552      33
   33558   33555      34   33564   33561      33   33567   33561      33   33567
   33564      34   33573   33570      33   33576   33570      33   33576   33573
      34   33582   33579      33   33585   33579      33   33585   33582      34
   33591   33588      33   33594   33588      33   33594   33591      34   33600
   33597      33   33603   33597      33   33603   33600      34   33609   33606
      33   33612   33606      33   33612   33609      34   33618   33615      33
   33621   33615      33   33621   33618      34   33627   33624      33   33630
   33624      33   33630   33627      34   33636   33633      33   33639   33633
      33   33639   33636      34   33645   33642      33   33648   33642      33
   33648   33645      34   33654   33651      33   33657   33651      33   33657
   33654      34   33663   33660      33   33666   33660      33   33666   33663
      34   33672   33669      33   33675   33669      33   33675   33672      34
   33681   33678      33   33684   33678      33   33684   33681      34   33690
   33687      33   33693   33687      33   33693   33690      34   33699   33696
      33   33702   33696      33   33702   33699      34   33708   33705      33
   33711   33705      33   33711   33708      34   33717   33714      33   33720
   33714      33   33720   33717      34   33726   33723      33   33729   33723
      33   33729   33726      34   33735   33732      33   33738   33732      33
   33738   33735      34   33744   33741      33   33747   33741      33   33747
   33744      34   33753   33750      33   33756   33750      33   33756   33753
      34   33762   33759      33   33765   33759      33   33765   33762      34
   33771   33768      33   33774   33768      33   33774   33771      34   33780
   33777      33   33783   33777      33   33783   33780      34   33789   33786
      33   33792   33786      33   33792   33789      34   33798   33795      33
   33801   33795      33   33801   33798      34   33807   33804      33   33810
   33804      33   33810   33807      34   33816   33813      33   33819   33813
      33   33819   33816      34   33825   33822      33   33828   33822      33
   33828   33825      34   33834   33831      33   33837   33831      33   33837
   33834      34   33843   33840      33   33846   33840      33   33846   33843
      34   33852   33849      33   33855   33849      33   33855   33852      34
   33861   33858      33   33864   33858      33   33864   33861      34   33870
   33867      33   33873   33867      33   33873   33870      34   33879   33876
      33   33882   33876      33   33882   33879      34   33888   33885      33
   33891   33885      33   33891   33888      34   33897   33894      33   33900
   33894      33   33900   33897      34   33906   33903      33   33909   33903
      33   33909   33906      34   33915   33912      33   33918   33912      33
   33918   33915      34   33924   33921      33   33927   33921      33   33927
   33924      34   33933   33930      33   33936   33930      33   33936   33933
      34   33942   33939      33   33945   33939      33   33945   33942      34
   33951   33948      33   33954   33948      33   33954   33951      34   33960
   33957      33   33963   33957      33   33963   33960      34   33969   33966
      33   33972   33966      33   33972   33969      34   33978   33975      33
   33981   33975      33   33981   33978      34   33987   33984      33   33990
   33984      33   33990   33987      34   33996   33993      33   33999   33993
      33   33999   33996      34   34005   34002      33   34008   34002      33
   34008   34005      34   34014   34011      33   34017   34011      33   34017
   34014      34   34023   34020      33   34026   34020      33   34026   34023
      34   34032   34029      33   34035   34029      33   34035   34032      34
   34041   34038      33   34044   34038      33   34044   34041      34   34050
   34047      33   34053   34047      33   34053   34050      34   34059   34056
      33   34062   34056      33   34062   34059      34   34068   34065      33
   34071   34065      33   34071   34068      34   34077   34074      33   34080
   34074      33   34080   34077      34   34086   34083      33   34089   34083
      33   34089   34086      34   34095   34092      33   34098   34092      33
   34098   34095      34   34104   34101      33   34107   34101      33   34107
   34104      34   34113   34110      33   34116   34110      33   34116   34113
      34   34122   34119      33   34125   34119      33   34125   34122      34
   34131   34128      33   34134   34128      33   34134   34131      34   34140
   34137      33   34143   34137      33   34143   34140      34   34149   34146
      33   34152   34146      33   34152   34149      34   34158   34155      33
   34161   34155      33   34161   34158      34   34167   34164      33   34170
   34164      33   34170   34167      34   34176   34173      33   34179   34173
      33   34179   34176      34   34185   34182      33   34188   34182      33
   34188   34185      34   34194   34191      33   34197   34191      33   34197
   34194      34   34203   34200      33   34206   34200      33   34206   34203
      34   34212   34209      33   34215   34209      33   34215   34212      34
   34221   34218      33   34224   34218      33   34224   34221      34   34230
   34227      33   34233   34227      33   34233   34230      34   34239   34236
      33   34242   34236      33   34242   34239      34   34248   34245      33
   34251   34245      33   34251   34248      34   34257   34254      33   34260
   34254      33   34260   34257      34   34266   34263      33   34269   34263
      33   34269   34266      34   34275   34272      33   34278   34272      33
   34278   34275      34   34284   34281      33   34287   34281      33   34287
   34284      34   34293   34290      33   34296   34290      33   34296   34293
      34   34302   34299      33   34305   34299      33   34305   34302      34
   34311   34308      33   34314   34308      33   34314   34311      34   34320
   34317      33   34323   34317      33   34323   34320      34   34329   34326
      33   34332   34326      33   34332   34329      34   34338   34335      33
   34341   34335      33   34341   34338      34   34347   34344      33   34350
   34344      33   34350   34347      34   34356   34353      33   34359   34353
      33   34359   34356      34   34365   34362      33   34368   34362      33
   34368   34365      34   34374   34371      33   34377   34371      33   34377
   34374      34   34383   34380      33   34386   34380      33   34386   34383
      34   34392   34389      33   34395   34389      33   34395   34392      34
   34401   34398      33   34404   34398      33   34404   34401      34   34410
   34407      33   34413   34407      33   34413   34410      34   34419   34416
      33   34422   34416      33   34422   34419      34   34428   34425      33
   34431   34425      33   34431   34428      34   34437   34434      33   34440
   34434      33   34440   34437      34   34446   34443      33   34449   34443
      33   34449   34446      34   34455   34452      33   34458   34452      33
   34458   34455      34   34464   34461      33   34467   34461      33   34467
   34464      34   34473   34470      33   34476   34470      33   34476   34473
      34   34482   34479      33   34485   34479      33   34485   34482      34
   34491   34488      33   34494   34488      33   34494   34491      34   34500
   34497      33   34503   34497      33   34503   34500      34   34509   34506
      33   34512   34506      33   34512   34509      34   34518   34515      33
   34521   34515      33   34521   34518      34   34527   34524      33   34530
   34524      33   34530   34527      34   34536   34533      33   34539   34533
      33   34539   34536      34   34545   34542      33   34548   34542      33
   34548   34545      34   34554   34551      33   34557   34551      33   34557
   34554      34   34563   34560      33   34566   34560      33   34566   34563
      34   34572   34569      33   34575   34569      33   34575   34572      34
   34581   34578      33   34584   34578      33   34584   34581      34   34590
   34587      33   34593   34587      33   34593   34590      34   34599   34596
      33   34602   34596      33   34602   34599      34   34608   34605      33
   34611   34605      33   34611   34608      34   34617   34614      33   34620
   34614      33   34620   34617      34   34626   34623      33   34629   34623
      33   34629   34626      34   34635   34632      33   34638   34632      33
   34638   34635      34   34644   34641      33   34647   34641      33   34647
   34644      34   34653   34650      33   34656   34650      33   34656   34653
      34   34662   34659      33   34665   34659      33   34665   34662      34
   34671   34668      33   34674   34668      33   34674   34671      34   34680
   34677      33   34683   34677      33   34683   34680      34   34689   34686
      33   34692   34686      33   34692   34689      34   34698   34695      33
   34701   34695      33   34701   34698      34   34707   34704      33   34710
   34704      33   34710   34707      34   34716   34713      33   34719   34713
      33   34719   34716      34   34725   34722      33   34728   34722      33
   34728   34725      34   34734   34731      33   34737   34731      33   34737
   34734      34   34743   34740      33   34746   34740      33   34746   34743
      34   34752   34749      33   34755   34749      33   34755   34752      34
   34761   34758      33   34764   34758      33   34764   34761      34   34770
   34767      33   34773   34767      33   34773   34770      34   34779   34776
      33   34782   34776      33   34782   34779      34   34788   34785      33
   34791   34785      33   34791   34788      34   34797   34794      33   34800
   34794      33   34800   34797      34   34806   34803      33   34809   34803
      33   34809   34806      34   34815   34812      33   34818   34812      33
   34818   34815      34   34824   34821      33   34827   34821      33   34827
   34824      34   34833   34830      33   34836   34830      33   34836   34833
      34   34842   34839      33   34845   34839      33   34845   34842      34
   34851   34848      33   34854   34848      33   34854   34851      34   34860
   34857      33   34863   34857      33   34863   34860      34   34869   34866
      33   34872   34866      33   34872   34869      34   34878   34875      33
   34881   34875      33   34881   34878      34   34887   34884      33   34890
   34884      33   34890   34887      34   34896   34893      33   34899   34893
      33   34899   34896      34   34905   34902      33   34908   34902      33
   34908   34905      34   34914   34911      33   34917   34911      33   34917
   34914      34   34923   34920      33   34926   34920      33   34926   34923
      34   34932   34929      33   34935   34929      33   34935   34932      34
   34941   34938      33   34944   34938      33   34944   34941      34   34950
   34947      33   34953   34947      33   34953   34950      34   34959   34956
      33   34962   34956      33   34962   34959      34   34968   34965      33
   34971   34965      33   34971   34968      34   34977   34974      33   34980
   34974      33   34980   34977      34   34986   34983      33   34989   34983
      33   34989   34986      34   34995   34992      33   34998   34992      33
   34998   34995      34   35004   35001      33   35007   35001      33   35007
   35004      34   35013   35010      33   35016   35010      33   35016   35013
      34   35022   35019      33   35025   35019      33   35025   35022      34
   35031   35028      33   35034   35028      33   35034   35031      34   35040
   35037      33   35043   35037      33   35043   35040      34   35049   35046
      33   35052   35046      33   35052   35049      34   35058   35055      33
   35061   35055      33   35061   35058      34   35067   35064      33   35070
   35064      33   35070   35067      34   35076   35073      33   35079   35073
      33   35079   35076      34   35085   35082      33   35088   35082      33
   35088   35085      34   35094   35091      33   35097   35091      33   35097
   35094      34   35103   35100      33   35106   35100      33   35106   35103
      34   35112   35109      33   35115   35109      33   35115   35112      34
   35121   35118      33   35124   35118      33   35124   35121      34   35130
   35127      33   35133   35127      33   35133   35130      34   35139   35136
      33   35142   35136      33   35142   35139      34   35148   35145      33
   35151   35145      33   35151   35148      34   35157   35154      33   35160
   35154      33   35160   35157      34   35166   35163      33   35169   35163
      33   35169   35166      34   35175   35172      33   35178   35172      33
   35178   35175      34   35184   35181      33   35187   35181      33   35187
   35184      34   35193   35190      33   35196   35190      33   35196   35193
      34   35202   35199      33   35205   35199      33   35205   35202      34
   35211   35208      33   35214   35208      33   35214   35211      34   35220
   35217      33   35223   35217      33   35223   35220      34   35229   35226
      33   35232   35226      33   35232   35229      34   35238   35235      33
   35241   35235      33   35241   35238      34   35247   35244      33   35250
   35244      33   35250   35247      34   35256   35253      33   35259   35253
      33   35259   35256      34   35265   35262      33   35268   35262      33
   35268   35265      34   35274   35271      33   35277   35271      33   35277
   35274      34   35283   35280      33   35286   35280      33   35286   35283
      34   35292   35289      33   35295   35289      33   35295   35292      34
   35301   35298      33   35304   35298      33   35304   35301      34   35310
   35307      33   35313   35307      33   35313   35310      34   35319   35316
      33   35322   35316      33   35322   35319      34   35328   35325      33
   35331   35325      33   35331   35328      34   35337   35334      33   35340
   35334      33   35340   35337      34   35346   35343      33   35349   35343
      33   35349   35346      34   35355   35352      33   35358   35352      33
   35358   35355      34   35364   35361      33   35367   35361      33   35367
   35364      34   35373   35370      33   35376   35370      33   35376   35373
      34   35382   35379      33   35385   35379      33   35385   35382      34
   35391   35388      33   35394   35388      33   35394   35391      34   35400
   35397      33   35403   35397      33   35403   35400      34   35409   35406
      33   35412   35406      33   35412   35409      34   35418   35415      33
   35421   35415      33   35421   35418      34   35427   35424      33   35430
   35424      33   35430   35427      34   35436   35433      33   35439   35433
      33   35439   35436      34   35445   35442      33   35448   35442      33
   35448   35445      34   35454   35451      33   35457   35451      33   35457
   35454      34   35463   35460      33   35466   35460      33   35466   35463
      34   35472   35469      33   35475   35469      33   35475   35472      34
   35481   35478      33   35484   35478      33   35484   35481      34   35490
   35487      33   35493   35487      33   35493   35490      34   35499   35496
      33   35502   35496      33   35502   35499      34   35508   35505      33
   35511   35505      33   35511   35508      34   35517   35514      33   35520
   35514      33   35520   35517      34   35526   35523      33   35529   35523
      33   35529   35526      34   35535   35532      33   35538   35532      33
   35538   35535      34   35544   35541      33   35547   35541      33   35547
   35544      34   35553   35550      33   35556   35550      33   35556   35553
      34   35562   35559      33   35565   35559      33   35565   35562      34
   35571   35568      33   35574   35568      33   35574   35571      34   35580
   35577      33   35583   35577      33   35583   35580      34   35589   35586
      33   35592   35586      33   35592   35589      34   35598   35595      33
   35601   35595      33   35601   35598      34   35607   35604      33   35610
   35604      33   35610   35607      34   35616   35613      33   35619   35613
      33   35619   35616      34   35625   35622      33   35628   35622      33
   35628   35625      34   35634   35631      33   35637   35631      33   35637
   35634      34   35643   35640      33   35646   35640      33   35646   35643
      34   35652   35649      33   35655   35649      33   35655   35652      34
   35661   35658      33   35664   35658      33   35664   35661      34   35670
   35667      33   35673   35667      33   35673   35670      34   35679   35676
      33   35682   35676      33   35682   35679      34   35688   35685      33
   35691   35685      33   35691   35688      34   35697   35694      33   35700
   35694      33   35700   35697      34   35706   35703      33   35709   35703
      33   35709   35706      34   35715   35712      33   35718   35712      33
   35718   35715      34   35724   35721      33   35727   35721      33   35727
   35724      34   35733   35730      33   35736   35730      33   35736   35733
      34   35742   35739      33   35745   35739      33   35745   35742      34
   35751   35748      33   35754   35748      33   35754   35751      34   35760
   35757      33   35763   35757      33   35763   35760      34   35769   35766
      33   35772   35766      33   35772   35769      34   35778   35775      33
   35781   35775      33   35781   35778      34   35787   35784      33   35790
   35784      33   35790   35787      34   35796   35793      33   35799   35793
      33   35799   35796      34   35805   35802      33   35808   35802      33
   35808   35805      34   35814   35811      33   35817   35811      33   35817
   35814      34   35823   35820      33   35826   35820      33   35826   35823
      34   35832   35829      33   35835   35829      33   35835   35832      34
   35841   35838      33   35844   35838      33   35844   35841      34   35850
   35847      33   35853   35847      33   35853   35850      34   35859   35856
      33   35862   35856      33   35862   35859      34   35868   35865      33
   35871   35865      33   35871   35868      34   35877   35874      33   35880
   35874      33   35880   35877      34   35886   35883      33   35889   35883
      33   35889   35886      34   35895   35892      33   35898   35892      33
   35898   35895      34   35904   35901      33   35907   35901      33   35907
   35904      34   35913   35910      33   35916   35910      33   35916   35913
      34   35922   35919      33   35925   35919      33   35925   35922      34
   35931   35928      33   35934   35928      33   35934   35931      34   35940
   35937      33   35943   35937      33   35943   35940      34   35949   35946
      33   35952   35946      33   35952   35949      34   35958   35955      33
   35961   35955      33   35961   35958      34   35967   35964      33   35970
   35964      33   35970   35967      34   35976   35973      33   35979   35973
      33   35979   35976      34   35985   35982      33   35988   35982      33
   35988   35985      34   35994   35991      33   35997   35991      33   35997
   35994      34   36003   36000      33   36006   36000      33   36006   36003
      34   36012   36009      33   36015   36009      33   36015   36012      34
   36021   36018      33   36024   36018      33   36024   36021      34   36030
   36027      33   36033   36027      33   36033   36030      34   36039   36036
      33   36042   36036      33   36042   36039      34   36048   36045      33
   36051   36045      33   36051   36048      34   36057   36054      33   36060
   36054      33   36060   36057      34   36066   36063      33   36069   36063
      33   36069   36066      34   36075   36072      33   36078   36072      33
   36078   36075      34   36084   36081      33   36087   36081      33   36087
   36084      34   36093   36090      33   36096   36090      33   36096   36093
      34   36102   36099      33   36105   36099      33   36105   36102      34
   36111   36108      33   36114   36108      33   36114   36111      34   36120
   36117      33   36123   36117      33   36123   36120      34   36129   36126
      33   36132   36126      33   36132   36129      34   36138   36135      33
   36141   36135      33   36141   36138      34   36147   36144      33   36150
   36144      33   36150   36147      34   36156   36153      33   36159   36153
      33   36159   36156      34   36165   36162      33   36168   36162      33
   36168   36165      34   36174   36171      33   36177   36171      33   36177
   36174      34   36183   36180      33   36186   36180      33   36186   36183
      34   36192   36189      33   36195   36189      33   36195   36192      34
   36201   36198      33   36204   36198      33   36204   36201      34   36210
   36207      33   36213   36207      33   36213   36210      34   36219   36216
      33   36222   36216      33   36222   36219      34   36228   36225      33
   36231   36225      33   36231   36228      34   36237   36234      33   36240
   36234      33   36240   36237      34   36246   36243      33   36249   36243
      33   36249   36246      34   36255   36252      33   36258   36252      33
   36258   36255      34   36264   36261      33   36267   36261      33   36267
   36264      34   36273   36270      33   36276   36270      33   36276   36273
      34   36282   36279      33   36285   36279      33   36285   36282      34
   36291   36288      33   36294   36288      33   36294   36291      34   36300
   36297      33   36303   36297      33   36303   36300      34   36309   36306
      33   36312   36306      33   36312   36309      34   36318   36315      33
   36321   36315      33   36321   36318      34   36327   36324      33   36330
   36324      33   36330   36327      34   36336   36333      33   36339   36333
      33   36339   36336      34   36345   36342      33   36348   36342      33
   36348   36345      34   36354   36351      33   36357   36351      33   36357
   36354      34   36363   36360      33   36366   36360      33   36366   36363
      34   36372   36369      33   36375   36369      33   36375   36372      34
   36381   36378      33   36384   36378      33   36384   36381      34   36390
   36387      33   36393   36387      33   36393   36390      34   36399   36396
      33   36402   36396      33   36402   36399      34   36408   36405      33
   36411   36405      33   36411   36408      34   36417   36414      33   36420
   36414      33   36420   36417      34   36426   36423      33   36429   36423
      33   36429   36426      34   36435   36432      33   36438   36432      33
   36438   36435      34   36444   36441      33   36447   36441      33   36447
   36444      34   36453   36450      33   36456   36450      33   36456   36453
      34   36462   36459      33   36465   36459      33   36465   36462      34
   36471   36468      33   36474   36468      33   36474   36471      34   36480
   36477      33   36483   36477      33   36483   36480      34   36489   36486
      33   36492   36486      33   36492   36489      34   36498   36495      33
   36501   36495      33   36501   36498      34   36507   36504      33   36510
   36504      33   36510   36507      34   36516   36513      33   36519   36513
      33   36519   36516      34   36525   36522      33   36528   36522      33
   36528   36525      34   36534   36531      33   36537   36531      33   36537
   36534      34   36543   36540      33   36546   36540      33   36546   36543
      34   36552   36549      33   36555   36549      33   36555   36552      34
   36561   36558      33   36564   36558      33   36564   36561      34   36570
   36567      33   36573   36567      33   36573   36570      34   36579   36576
      33   36582   36576      33   36582   36579      34   36588   36585      33
   36591   36585      33   36591   36588      34   36597   36594      33   36600
   36594      33   36600   36597      34   36606   36603      33   36609   36603
      33   36609   36606      34   36615   36612      33   36618   36612      33
   36618   36615      34   36624   36621      33   36627   36621      33   36627
   36624      34   36633   36630      33   36636   36630      33   36636   36633
      34   36642   36639      33   36645   36639      33   36645   36642      34
   36651   36648      33   36654   36648      33   36654   36651      34   36660
   36657      33   36663   36657      33   36663   36660      34   36669   36666
      33   36672   36666      33   36672   36669      34   36678   36675      33
   36681   36675      33   36681   36678      34   36687   36684      33   36690
   36684      33   36690   36687      34   36696   36693      33   36699   36693
      33   36699   36696      34   36705   36702      33   36708   36702      33
   36708   36705      34   36714   36711      33   36717   36711      33   36717
   36714      34   36723   36720      33   36726   36720      33   36726   36723
      34   36732   36729      33   36735   36729      33   36735   36732      34
   36741   36738      33   36744   36738      33   36744   36741      34   36750
   36747      33   36753   36747      33   36753   36750      34   36759   36756
      33   36762   36756      33   36762   36759      34   36768   36765      33
   36771   36765      33   36771   36768      34   36777   36774      33   36780
   36774      33   36780   36777      34   36786   36783      33   36789   36783
      33   36789   36786      34   36795   36792      33   36798   36792      33
   36798   36795      34   36804   36801      33   36807   36801      33   36807
   36804      34   36813   36810      33   36816   36810      33   36816   36813
      34   36822   36819      33   36825   36819      33   36825   36822      34
   36831   36828      33   36834   36828      33   36834   36831      34   36840
   36837      33   36843   36837      33   36843   36840      34   36849   36846
      33   36852   36846      33   36852   36849      34   36858   36855      33
   36861   36855      33   36861   36858      34   36867   36864      33   36870
   36864      33   36870   36867      34   36876   36873      33   36879   36873
      33   36879   36876      34   36885   36882      33   36888   36882      33
   36888   36885      34   36894   36891      33   36897   36891      33   36897
   36894      34   36903   36900      33   36906   36900      33   36906   36903
      34   36912   36909      33   36915   36909      33   36915   36912      34
   36921   36918      33   36924   36918      33   36924   36921      34   36930
   36927      33   36933   36927      33   36933   36930      34   36939   36936
      33   36942   36936      33   36942   36939      34   36948   36945      33
   36951   36945      33   36951   36948      34   36957   36954      33   36960
   36954      33   36960   36957      34   36966   36963      33   36969   36963
      33   36969   36966      34   36975   36972      33   36978   36972      33
   36978   36975      34   36984   36981      33   36987   36981      33   36987
   36984      34   36993   36990      33   36996   36990      33   36996   36993
      34   37002   36999      33   37005   36999      33   37005   37002      34
   37011   37008      33   37014   37008      33   37014   37011      34   37020
   37017      33   37023   37017      33   37023   37020      34   37029   37026
      33   37032   37026      33   37032   37029      34   37038   37035      33
   37041   37035      33   37041   37038      34   37047   37044      33   37050
   37044      33   37050   37047      34   37056   37053      33   37059   37053
      33   37059   37056      34   37065   37062      33   37068   37062      33
   37068   37065      34   37074   37071      33   37077   37071      33   37077
   37074      34   37083   37080      33   37086   37080      33   37086   37083
      34   37092   37089      33   37095   37089      33   37095   37092      34
   37101   37098      33   37104   37098      33   37104   37101      34   37110
   37107      33   37113   37107      33   37113   37110      34   37119   37116
      33   37122   37116      33   37122   37119      34   37128   37125      33
   37131   37125      33   37131   37128      34   37137   37134      33   37140
   37134      33   37140   37137      34   37146   37143      33   37149   37143
      33   37149   37146      34   37155   37152      33   37158   37152      33
   37158   37155      34   37164   37161      33   37167   37161      33   37167
   37164      34   37173   37170      33   37176   37170      33   37176   37173
      34   37182   37179      33   37185   37179      33   37185   37182      34
   37191   37188      33   37194   37188      33   37194   37191      34   37200
   37197      33   37203   37197      33   37203   37200      34   37209   37206
      33   37212   37206      33   37212   37209      34   37218   37215      33
   37221   37215      33   37221   37218      34   37227   37224      33   37230
   37224      33   37230   37227      34   37236   37233      33   37239   37233
      33   37239   37236      34   37245   37242      33   37248   37242      33
   37248   37245      34   37254   37251      33   37257   37251      33   37257
   37254      34   37263   37260      33   37266   37260      33   37266   37263
      34   37272   37269      33   37275   37269      33   37275   37272      34
   37281   37278      33   37284   37278      33   37284   37281      34   37290
   37287      33   37293   37287      33   37293   37290      34   37299   37296
      33   37302   37296      33   37302   37299      34   37308   37305      33
   37311   37305      33   37311   37308      34   37317   37314      33   37320
   37314      33   37320   37317      34   37326   37323      33   37329   37323
      33   37329   37326      34   37335   37332      33   37338   37332      33
   37338   37335      34   37344   37341      33   37347   37341      33   37347
   37344      34   37353   37350      33   37356   37350      33   37356   37353
      34   37362   37359      33   37365   37359      33   37365   37362      34
   37371   37368      33   37374   37368      33   37374   37371      34   37380
   37377      33   37383   37377      33   37383   37380      34   37389   37386
      33   37392   37386      33   37392   37389      34   37398   37395      33
   37401   37395      33   37401   37398      34   37407   37404      33   37410
   37404      33   37410   37407      34   37416   37413      33   37419   37413
      33   37419   37416      34   37425   37422      33   37428   37422      33
   37428   37425      34   37434   37431      33   37437   37431      33   37437
   37434      34   37443   37440      33   37446   37440      33   37446   37443
      34   37452   37449      33   37455   37449      33   37455   37452      34
   37461   37458      33   37464   37458      33   37464   37461      34   37470
   37467      33   37473   37467      33   37473   37470      34   37479   37476
      33   37482   37476      33   37482   37479      34   37488   37485      33
   37491   37485      33   37491   37488      34   37497   37494      33   37500
   37494      33   37500   37497      34   37506   37503      33   37509   37503
      33   37509   37506      34   37515   37512      33   37518   37512      33
   37518   37515      34   37524   37521      33   37527   37521      33   37527
   37524      34   37533   37530      33   37536   37530      33   37536   37533
      34   37542   37539      33   37545   37539      33   37545   37542      34
   37551   37548      33   37554   37548      33   37554   37551      34   37560
   37557      33   37563   37557      33   37563   37560      34   37569   37566
      33   37572   37566      33   37572   37569      34   37578   37575      33
   37581   37575      33   37581   37578      34   37587   37584      33   37590
   37584      33   37590   37587      34   37596   37593      33   37599   37593
      33   37599   37596      34   37605   37602      33   37608   37602      33
   37608   37605      34   37614   37611      33   37617   37611      33   37617
   37614      34   37623   37620      33   37626   37620      33   37626   37623
      34   37632   37629      33   37635   37629      33   37635   37632      34
   37641   37638      33   37644   37638      33   37644   37641      34   37650
   37647      33   37653   37647      33   37653   37650      34   37659   37656
      33   37662   37656      33   37662   37659      34   37668   37665      33
   37671   37665      33   37671   37668      34   37677   37674      33   37680
   37674      33   37680   37677      34   37686   37683      33   37689   37683
      33   37689   37686      34   37695   37692      33   37698   37692      33
   37698   37695      34   37704   37701      33   37707   37701      33   37707
   37704      34   37713   37710      33   37716   37710      33   37716   37713
      34   37722   37719      33   37725   37719      33   37725   37722      34
   37731   37728      33   37734   37728      33   37734   37731      34   37740
   37737      33   37743   37737      33   37743   37740      34   37749   37746
      33   37752   37746      33   37752   37749      34   37758   37755      33
   37761   37755      33   37761   37758      34   37767   37764      33   37770
   37764      33   37770   37767      34   37776   37773      33   37779   37773
      33   37779   37776      34   37785   37782      33   37788   37782      33
   37788   37785      34   37794   37791      33   37797   37791      33   37797
   37794      34   37803   37800      33   37806   37800      33   37806   37803
      34   37812   37809      33   37815   37809      33   37815   37812      34
   37821   37818      33   37824   37818      33   37824   37821      34   37830
   37827      33   37833   37827      33   37833   37830      34   37839   37836
      33   37842   37836      33   37842   37839      34   37848   37845      33
   37851   37845      33   37851   37848      34   37857   37854      33   37860
   37854      33   37860   37857      34   37866   37863      33   37869   37863
      33   37869   37866      34   37875   37872      33   37878   37872      33
   37878   37875      34   37884   37881      33   37887   37881      33   37887
   37884      34   37893   37890      33   37896   37890      33   37896   37893
      34   37902   37899      33   37905   37899      33   37905   37902      34
   37911   37908      33   37914   37908      33   37914   37911      34   37920
   37917      33   37923   37917      33   37923   37920      34   37929   37926
      33   37932   37926      33   37932   37929      34   37938   37935      33
   37941   37935      33   37941   37938      34   37947   37944      33   37950
   37944      33   37950   37947      34   37956   37953      33   37959   37953
      33   37959   37956      34   37965   37962      33   37968   37962      33
   37968   37965      34   37974   37971      33   37977   37971      33   37977
   37974      34   37983   37980      33   37986   37980      33   37986   37983
      34   37992   37989      33   37995   37989      33   37995   37992      34
   38001   37998      33   38004   37998      33   38004   38001      34   38010
   38007      33   38013   38007      33   38013   38010      34   38019   38016
      33   38022   38016      33   38022   38019      34   38028   38025      33
   38031   38025      33   38031   38028      34   38037   38034      33   38040
   38034      33   38040   38037      34   38046   38043      33   38049   38043
      33   38049   38046      34   38055   38052      33   38058   38052      33
   38058   38055      34   38064   38061      33   38067   38061      33   38067
   38064      34   38073   38070      33   38076   38070      33   38076   38073
      34   38082   38079      33   38085   38079      33   38085   38082      34
   38091   38088      33   38094   38088      33   38094   38091      34   38100
   38097      33   38103   38097      33   38103   38100      34   38109   38106
      33   38112   38106      33   38112   38109      34   38118   38115      33
   38121   38115      33   38121   38118      34   38127   38124      33   38130
   38124      33   38130   38127      34   38136   38133      33   38139   38133
      33   38139   38136      34   38145   38142      33   38148   38142      33
   38148   38145      34   38154   38151      33   38157   38151      33   38157
   38154      34   38163   38160      33   38166   38160      33   38166   38163
      34   38172   38169      33   38175   38169      33   38175   38172      34
   38181   38178      33   38184   38178      33   38184   38181      34   38190
   38187      33   38193   38187      33   38193   38190      34   38199   38196
      33   38202   38196      33   38202   38199      34   38208   38205      33
   38211   38205      33   38211   38208      34   38217   38214      33   38220
   38214      33   38220   38217      34   38226   38223      33   38229   38223
      33   38229   38226      34   38235   38232      33   38238   38232      33
   38238   38235      34   38244   38241      33   38247   38241      33   38247
   38244      34   38253   38250      33   38256   38250      33   38256   38253
      34   38262   38259      33   38265   38259      33   38265   38262      34
   38271   38268      33   38274   38268      33   38274   38271      34   38280
   38277      33   38283   38277      33   38283   38280      34   38289   38286
      33   38292   38286      33   38292   38289      34   38298   38295      33
   38301   38295      33   38301   38298      34   38307   38304      33   38310
   38304      33   38310   38307      34   38316   38313      33   38319   38313
      33   38319   38316      34   38325   38322      33   38328   38322      33
   38328   38325      34   38334   38331      33   38337   38331      33   38337
   38334      34   38343   38340      33   38346   38340      33   38346   38343
      34   38352   38349      33   38355   38349      33   38355   38352      34
   38361   38358      33   38364   38358      33   38364   38361      34   38370
   38367      33   38373   38367      33   38373   38370      34   38379   38376
      33   38382   38376      33   38382   38379      34   38388   38385      33
   38391   38385      33   38391   38388      34   38397   38394      33   38400
   38394      33   38400   38397      34   38406   38403      33   38409   38403
      33   38409   38406      34   38415   38412      33   38418   38412      33
   38418   38415      34   38424   38421      33   38427   38421      33   38427
   38424      34   38433   38430      33   38436   38430      33   38436   38433
      34   38442   38439      33   38445   38439      33   38445   38442      34
   38451   38448      33   38454   38448      33   38454   38451      34   38460
   38457      33   38463   38457      33   38463   38460      34   38469   38466
      33   38472   38466      33   38472   38469      34   38478   38475      33
   38481   38475      33   38481   38478      34   38487   38484      33   38490
   38484      33   38490   38487      34   38496   38493      33   38499   38493
      33   38499   38496      34   38505   38502      33   38508   38502      33
   38508   38505      34   38514   38511      33   38517   38511      33   38517
   38514      34   38523   38520      33   38526   38520      33   38526   38523
      34   38532   38529      33   38535   38529      33   38535   38532      34
   38541   38538      33   38544   38538      33   38544   38541      34   38550
   38547      33   38553   38547      33   38553   38550      34   38559   38556
      33   38562   38556      33   38562   38559      34   38568   38565      33
   38571   38565      33   38571   38568      34   38577   38574      33   38580
   38574      33   38580   38577      34   38586   38583      33   38589   38583
      33   38589   38586      34   38595   38592      33   38598   38592      33
   38598   38595      34   38604   38601      33   38607   38601      33   38607
   38604      34   38613   38610      33   38616   38610      33   38616   38613
      34   38622   38619      33   38625   38619      33   38625   38622      34
   38631   38628      33   38634   38628      33   38634   38631      34   38640
   38637      33   38643   38637      33   38643   38640      34   38649   38646
      33   38652   38646      33   38652   38649      34   38658   38655      33
   38661   38655      33   38661   38658      34   38667   38664      33   38670
   38664      33   38670   38667      34   38676   38673      33   38679   38673
      33   38679   38676      34   38685   38682      33   38688   38682      33
   38688   38685      34   38694   38691      33   38697   38691      33   38697
   38694      34   38703   38700      33   38706   38700      33   38706   38703
      34   38712   38709      33   38715   38709      33   38715   38712      34
   38721   38718      33   38724   38718      33   38724   38721      34   38730
   38727      33   38733   38727      33   38733   38730      34   38739   38736
      33   38742   38736      33   38742   38739      34   38748   38745      33
   38751   38745      33   38751   38748      34   38757   38754      33   38760
   38754      33   38760   38757      34   38766   38763      33   38769   38763
      33   38769   38766      34   38775   38772      33   38778   38772      33
   38778   38775      34   38784   38781      33   38787   38781      33   38787
   38784      34   38793   38790      33   38796   38790      33   38796   38793
      34   38802   38799      33   38805   38799      33   38805   38802      34
   38811   38808      33   38814   38808      33   38814   38811      34   38820
   38817      33   38823   38817      33   38823   38820      34   38829   38826
      33   38832   38826      33   38832   38829      34   38838   38835      33
   38841   38835      33   38841   38838      34   38847   38844      33   38850
   38844      33   38850   38847      34   38856   38853      33   38859   38853
      33   38859   38856      34   38865   38862      33   38868   38862      33
   38868   38865      34   38874   38871      33   38877   38871      33   38877
   38874      34   38883   38880      33   38886   38880      33   38886   38883
      34   38892   38889      33   38895   38889      33   38895   38892      34
   38901   38898      33   38904   38898      33   38904   38901      34   38910
   38907      33   38913   38907      33   38913   38910      34   38919   38916
      33   38922   38916      33   38922   38919      34   38928   38925      33
   38931   38925      33   38931   38928      34   38937   38934      33   38940
   38934      33   38940   38937      34   38946   38943      33   38949   38943
      33   38949   38946      34   38955   38952      33   38958   38952      33
   38958   38955      34   38964   38961      33   38967   38961      33   38967
   38964      34   38973   38970      33   38976   38970      33   38976   38973
      34   38982   38979      33   38985   38979      33   38985   38982      34
   38991   38988      33   38994   38988      33   38994   38991      34   39000
   38997      33   39003   38997      33   39003   39000      34   39009   39006
      33   39012   39006      33   39012   39009      34   39018   39015      33
   39021   39015      33   39021   39018      34   39027   39024      33   39030
   39024      33   39030   39027      34   39036   39033      33   39039   39033
      33   39039   39036      34   39045   39042      33   39048   39042      33
   39048   39045      34   39054   39051      33   39057   39051      33   39057
   39054      34   39063   39060      33   39066   39060      33   39066   39063
      34   39072   39069      33   39075   39069      33   39075   39072      34
   39081   39078      33   39084   39078      33   39084   39081      34   39090
   39087      33   39093   39087      33   39093   39090      34   39099   39096
      33   39102   39096      33   39102   39099      34   39108   39105      33
   39111   39105      33   39111   39108      34   39117   39114      33   39120
   39114      33   39120   39117      34   39126   39123      33   39129   39123
      33   39129   39126      34   39135   39132      33   39138   39132      33
   39138   39135      34   39144   39141      33   39147   39141      33   39147
   39144      34   39153   39150      33   39156   39150      33   39156   39153
      34   39162   39159      33   39165   39159      33   39165   39162      34
   39171   39168      33   39174   39168      33   39174   39171      34   39180
   39177      33   39183   39177      33   39183   39180      34   39189   39186
      33   39192   39186      33   39192   39189      34   39198   39195      33
   39201   39195      33   39201   39198      34   39207   39204      33   39210
   39204      33   39210   39207      34   39216   39213      33   39219   39213
      33   39219   39216      34   39225   39222      33   39228   39222      33
   39228   39225      34   39234   39231      33   39237   39231      33   39237
   39234      34   39243   39240      33   39246   39240      33   39246   39243
      34   39252   39249      33   39255   39249      33   39255   39252      34
   39261   39258      33   39264   39258      33   39264   39261      34   39270
   39267      33   39273   39267      33   39273   39270      34   39279   39276
      33   39282   39276      33   39282   39279      34   39288   39285      33
   39291   39285      33   39291   39288      34   39297   39294      33   39300
   39294      33   39300   39297      34   39306   39303      33   39309   39303
      33   39309   39306      34   39315   39312      33   39318   39312      33
   39318   39315      34   39324   39321      33   39327   39321      33   39327
   39324      34   39333   39330      33   39336   39330      33   39336   39333
      34   39342   39339      33   39345   39339      33   39345   39342      34
   39351   39348      33   39354   39348      33   39354   39351      34   39360
   39357      33   39363   39357      33   39363   39360      34   39369   39366
      33   39372   39366      33   39372   39369      34   39378   39375      33
   39381   39375      33   39381   39378      34   39387   39384      33   39390
   39384      33   39390   39387      34   39396   39393      33   39399   39393
      33   39399   39396      34   39405   39402      33   39408   39402      33
   39408   39405      34   39414   39411      33   39417   39411      33   39417
   39414      34   39423   39420      33   39426   39420      33   39426   39423
      34   39432   39429      33   39435   39429      33   39435   39432      34
   39441   39438      33   39444   39438      33   39444   39441      34   39450
   39447      33   39453   39447      33   39453   39450      34   39459   39456
      33   39462   39456      33   39462   39459      34   39468   39465      33
   39471   39465      33   39471   39468      34   39477   39474      33   39480
   39474      33   39480   39477      34   39486   39483      33   39489   39483
      33   39489   39486      34   39495   39492      33   39498   39492      33
   39498   39495      34   39504   39501      33   39507   39501      33   39507
   39504      34   39513   39510      33   39516   39510      33   39516   39513
      34   39522   39519      33   39525   39519      33   39525   39522      34
   39531   39528      33   39534   39528      33   39534   39531      34   39540
   39537      33   39543   39537      33   39543   39540      34   39549   39546
      33   39552   39546      33   39552   39549      34   39558   39555      33
   39561   39555      33   39561   39558      34   39567   39564      33   39570
   39564      33   39570   39567      34   39576   39573      33   39579   39573
      33   39579   39576      34   39585   39582      33   39588   39582      33
   39588   39585      34   39594   39591      33   39597   39591      33   39597
   39594      34   39603   39600      33   39606   39600      33   39606   39603
      34   39612   39609      33   39615   39609      33   39615   39612      34
   39621   39618      33   39624   39618      33   39624   39621      34   39630
   39627      33   39633   39627      33   39633   39630      34   39639   39636
      33   39642   39636      33   39642   39639      34   39648   39645      33
   39651   39645      33   39651   39648      34   39657   39654      33   39660
   39654      33   39660   39657      34   39666   39663      33   39669   39663
      33   39669   39666      34   39675   39672      33   39678   39672      33
   39678   39675      34   39684   39681      33   39687   39681      33   39687
   39684      34   39693   39690      33   39696   39690      33   39696   39693
      34   39702   39699      33   39705   39699      33   39705   39702      34
   39711   39708      33   39714   39708      33   39714   39711      34   39720
   39717      33   39723   39717      33   39723   39720      34   39729   39726
      33   39732   39726      33   39732   39729      34   39738   39735      33
   39741   39735      33   39741   39738      34   39747   39744      33   39750
   39744      33   39750   39747      34   39756   39753      33   39759   39753
      33   39759   39756      34   39765   39762      33   39768   39762      33
   39768   39765      34   39774   39771      33   39777   39771      33   39777
   39774      34   39783   39780      33   39786   39780      33   39786   39783
      34   39792   39789      33   39795   39789      33   39795   39792      34
   39801   39798      33   39804   39798      33   39804   39801      34   39810
   39807      33   39813   39807      33   39813   39810      34   39819   39816
      33   39822   39816      33   39822   39819      34   39828   39825      33
   39831   39825      33   39831   39828      34   39837   39834      33   39840
   39834      33   39840   39837      34   39846   39843      33   39849   39843
      33   39849   39846      34   39855   39852      33   39858   39852      33
   39858   39855      34   39864   39861      33   39867   39861      33   39867
   39864      34   39873   39870      33   39876   39870      33   39876   39873
      34   39882   39879      33   39885   39879      33   39885   39882      34
   39891   39888      33   39894   39888      33   39894   39891      34   39900
   39897      33   39903   39897      33   39903   39900      34   39909   39906
      33   39912   39906      33   39912   39909      34   39918   39915      33
   39921   39915      33   39921   39918      34   39927   39924      33   39930
   39924      33   39930   39927      34   39936   39933      33   39939   39933
      33   39939   39936      34   39945   39942      33   39948   39942      33
   39948   39945      34   39954   39951      33   39957   39951      33   39957
   39954      34   39963   39960      33   39966   39960      33   39966   39963
      34   39972   39969      33   39975   39969      33   39975   39972      34
   39981   39978      33   39984   39978      33   39984   39981      34   39990
   39987      33   39993   39987      33   39993   39990      34   39999   39996
      33   40002   39996      33   40002   39999      34   40008   40005      33
   40011   40005      33   40011   40008      34   40017   40014      33   40020
   40014      33   40020   40017      34   40026   40023      33   40029   40023
      33   40029   40026      34   40035   40032      33   40038   40032      33
   40038   40035      34   40044   40041      33   40047   40041      33   40047
   40044      34   40053   40050      33   40056   40050      33   40056   40053
      34   40062   40059      33   40065   40059      33   40065   40062      34
   40071   40068      33   40074   40068      33   40074   40071      34   40080
   40077      33   40083   40077      33   40083   40080      34   40089   40086
      33   40092   40086      33   40092   40089      34   40098   40095      33
   40101   40095      33   40101   40098      34   40107   40104      33   40110
   40104      33   40110   40107      34   40116   40113      33   40119   40113
      33   40119   40116      34   40125   40122      33   40128   40122      33
   40128   40125      34   40134   40131      33   40137   40131      33   40137
   40134      34   40143   40140      33   40146   40140      33   40146   40143
      34   40152   40149      33   40155   40149      33   40155   40152      34
   40161   40158      33   40164   40158      33   40164   40161      34   40170
   40167      33   40173   40167      33   40173   40170      34   40179   40176
      33   40182   40176      33   40182   40179      34   40188   40185      33
   40191   40185      33   40191   40188      34   40197   40194      33   40200
   40194      33   40200   40197      34   40206   40203      33   40209   40203
      33   40209   40206      34   40215   40212      33   40218   40212      33
   40218   40215      34   40224   40221      33   40227   40221      33   40227
   40224      34   40233   40230      33   40236   40230      33   40236   40233
      34   40242   40239      33   40245   40239      33   40245   40242      34
   40251   40248      33   40254   40248      33   40254   40251      34   40260
   40257      33   40263   40257      33   40263   40260      34   40269   40266
      33   40272   40266      33   40272   40269      34   40278   40275      33
   40281   40275      33   40281   40278      34   40287   40284      33   40290
   40284      33   40290   40287      34   40296   40293      33   40299   40293
      33   40299   40296      34   40305   40302      33   40308   40302      33
   40308   40305      34   40314   40311      33   40317   40311      33   40317
   40314      34   40323   40320      33   40326   40320      33   40326   40323
      34   40332   40329      33   40335   40329      33   40335   40332      34
   40341   40338      33   40344   40338      33   40344   40341      34   40350
   40347      33   40353   40347      33   40353   40350      34   40359   40356
      33   40362   40356      33   40362   40359      34   40368   40365      33
   40371   40365      33   40371   40368      34   40377   40374      33   40380
   40374      33   40380   40377      34   40386   40383      33   40389   40383
      33   40389   40386      34   40395   40392      33   40398   40392      33
   40398   40395      34   40404   40401      33   40407   40401      33   40407
   40404      34   40413   40410      33   40416   40410      33   40416   40413
      34   40422   40419      33   40425   40419      33   40425   40422      34
   40431   40428      33   40434   40428      33   40434   40431      34   40440
   40437      33   40443   40437      33   40443   40440      34   40449   40446
      33   40452   40446      33   40452   40449      34   40458   40455      33
   40461   40455      33   40461   40458      34   40467   40464      33   40470
   40464      33   40470   40467      34   40476   40473      33   40479   40473
      33   40479   40476      34   40485   40482      33   40488   40482      33
   40488   40485      34   40494   40491      33   40497   40491      33   40497
   40494      34   40503   40500      33   40506   40500      33   40506   40503
      34   40512   40509      33   40515   40509      33   40515   40512      34
   40521   40518      33   40524   40518      33   40524   40521      34   40530
   40527      33   40533   40527      33   40533   40530      34   40539   40536
      33   40542   40536      33   40542   40539      34   40548   40545      33
   40551   40545      33   40551   40548      34   40557   40554      33   40560
   40554      33   40560   40557      34   40566   40563      33   40569   40563
      33   40569   40566      34   40575   40572      33   40578   40572      33
   40578   40575      34   40584   40581      33   40587   40581      33   40587
   40584      34   40593   40590      33   40596   40590      33   40596   40593
      34   40602   40599      33   40605   40599      33   40605   40602      34
   40611   40608      33   40614   40608      33   40614   40611      34   40620
   40617      33   40623   40617      33   40623   40620      34   40629   40626
      33   40632   40626      33   40632   40629      34   40638   40635      33
   40641   40635      33   40641   40638      34   40647   40644      33   40650
   40644      33   40650   40647      34   40656   40653      33   40659   40653
      33   40659   40656      34   40665   40662      33   40668   40662      33
   40668   40665      34   40674   40671      33   40677   40671      33   40677
   40674      34   40683   40680      33   40686   40680      33   40686   40683
      34   40692   40689      33   40695   40689      33   40695   40692      34
   40701   40698      33   40704   40698      33   40704   40701      34   40710
   40707      33   40713   40707      33   40713   40710      34   40719   40716
      33   40722   40716      33   40722   40719      34   40728   40725      33
   40731   40725      33   40731   40728      34   40737   40734      33   40740
   40734      33   40740   40737      34   40746   40743      33   40749   40743
      33   40749   40746      34   40755   40752      33   40758   40752      33
   40758   40755      34   40764   40761      33   40767   40761      33   40767
   40764      34   40773   40770      33   40776   40770      33   40776   40773
      34   40782   40779      33   40785   40779      33   40785   40782      34
   40791   40788      33   40794   40788      33   40794   40791      34   40800
   40797      33   40803   40797      33   40803   40800      34   40809   40806
      33   40812   40806      33   40812   40809      34   40818   40815      33
   40821   40815      33   40821   40818      34   40827   40824      33   40830
   40824      33   40830   40827      34   40836   40833      33   40839   40833
      33   40839   40836      34   40845   40842      33   40848   40842      33
   40848   40845      34   40854   40851      33   40857   40851      33   40857
   40854      34   40863   40860      33   40866   40860      33   40866   40863
      34   40872   40869      33   40875   40869      33   40875   40872      34
   40881   40878      33   40884   40878      33   40884   40881      34   40890
   40887      33   40893   40887      33   40893   40890      34   40899   40896
      33   40902   40896      33   40902   40899      34   40908   40905      33
   40911   40905      33   40911   40908      34   40917   40914      33   40920
   40914      33   40920   40917      34   40926   40923      33   40929   40923
      33   40929   40926      34   40935   40932      33   40938   40932      33
   40938   40935      34   40944   40941      33   40947   40941      33   40947
   40944      34   40953   40950      33   40956   40950      33   40956   40953
      34   40962   40959      33   40965   40959      33   40965   40962      34
   40971   40968      33   40974   40968      33   40974   40971      34   40980
   40977      33   40983   40977      33   40983   40980      34   40989   40986
      33   40992   40986      33   40992   40989      34   40998   40995      33
   41001   40995      33   41001   40998      34   41007   41004      33   41010
   41004      33   41010   41007      34   41016   41013      33   41019   41013
      33   41019   41016      34   41025   41022      33   41028   41022      33
   41028   41025      34   41034   41031      33   41037   41031      33   41037
   41034      34   41043   41040      33   41046   41040      33   41046   41043
      34   41052   41049      33   41055   41049      33   41055   41052      34
   41061   41058      33   41064   41058      33   41064   41061      34   41070
   41067      33   41073   41067      33   41073   41070      34   41079   41076
      33   41082   41076      33   41082   41079      34   41088   41085      33
   41091   41085      33   41091   41088      34   41097   41094      33   41100
   41094      33   41100   41097      34   41106   41103      33   41109   41103
      33   41109   41106      34   41115   41112      33   41118   41112      33
   41118   41115      34   41124   41121      33   41127   41121      33   41127
   41124      34   41133   41130      33   41136   41130      33   41136   41133
      34   41142   41139      33   41145   41139      33   41145   41142      34
   41151   41148      33   41154   41148      33   41154   41151      34   41160
   41157      33   41163   41157      33   41163   41160      34   41169   41166
      33   41172   41166      33   41172   41169      34   41178   41175      33
   41181   41175      33   41181   41178      34   41187   41184      33   41190
   41184      33   41190   41187      34   41196   41193      33   41199   41193
      33   41199   41196      34   41205   41202      33   41208   41202      33
   41208   41205      34   41214   41211      33   41217   41211      33   41217
   41214      34   41223   41220      33   41226   41220      33   41226   41223
      34   41232   41229      33   41235   41229      33   41235   41232      34
   41241   41238      33   41244   41238      33   41244   41241      34   41250
   41247      33   41253   41247      33   41253   41250      34   41259   41256
      33   41262   41256      33   41262   41259      34   41268   41265      33
   41271   41265      33   41271   41268      34   41277   41274      33   41280
   41274      33   41280   41277      34   41286   41283      33   41289   41283
      33   41289   41286      34   41295   41292      33   41298   41292      33
   41298   41295      34   41304   41301      33   41307   41301      33   41307
   41304      34   41313   41310      33   41316   41310      33   41316   41313
      34   41322   41319      33   41325   41319      33   41325   41322      34
   41331   41328      33   41334   41328      33   41334   41331      34   41340
   41337      33   41343   41337      33   41343   41340      34   41349   41346
      33   41352   41346      33   41352   41349      34   41358   41355      33
   41361   41355      33   41361   41358      34   41367   41364      33   41370
   41364      33   41370   41367      34   41376   41373      33   41379   41373
      33   41379   41376      34   41385   41382      33   41388   41382      33
   41388   41385      34   41394   41391      33   41397   41391      33   41397
   41394      34   41403   41400      33   41406   41400      33   41406   41403
      34   41412   41409      33   41415   41409      33   41415   41412      34
   41421   41418      33   41424   41418      33   41424   41421      34   41430
   41427      33   41433   41427      33   41433   41430      34   41439   41436
      33   41442   41436      33   41442   41439      34   41448   41445      33
   41451   41445      33   41451   41448      34   41457   41454      33   41460
   41454      33   41460   41457      34   41466   41463      33   41469   41463
      33   41469   41466      34   41475   41472      33   41478   41472      33
   41478   41475      34   41484   41481      33   41487   41481      33   41487
   41484      34   41493   41490      33   41496   41490      33   41496   41493
      34   41502   41499      33   41505   41499      33   41505   41502      34
   41511   41508      33   41514   41508      33   41514   41511      34   41520
   41517      33   41523   41517      33   41523   41520      34   41529   41526
      33   41532   41526      33   41532   41529      34   41538   41535      33
   41541   41535      33   41541   41538      34   41547   41544      33   41550
   41544      33   41550   41547      34   41556   41553      33   41559   41553
      33   41559   41556      34   41565   41562      33   41568   41562      33
   41568   41565      34   41574   41571      33   41577   41571      33   41577
   41574      34   41583   41580      33   41586   41580      33   41586   41583
      34   41592   41589      33   41595   41589      33   41595   41592      34
   41601   41598      33   41604   41598      33   41604   41601      34   41610
   41607      33   41613   41607      33   41613   41610      34   41619   41616
      33   41622   41616      33   41622   41619      34   41628   41625      33
   41631   41625      33   41631   41628      34   41637   41634      33   41640
   41634      33   41640   41637      34   41646   41643      33   41649   41643
      33   41649   41646      34   41655   41652      33   41658   41652      33
   41658   41655      34   41664   41661      33   41667   41661      33   41667
   41664      34   41673   41670      33   41676   41670      33   41676   41673
      34   41682   41679      33   41685   41679      33   41685   41682      34
   41691   41688      33   41694   41688      33   41694   41691      34   41700
   41697      33   41703   41697      33   41703   41700      34   41709   41706
      33   41712   41706      33   41712   41709      34   41718   41715      33
   41721   41715      33   41721   41718      34   41727   41724      33   41730
   41724      33   41730   41727      34   41736   41733      33   41739   41733
      33   41739   41736      34   41745   41742      33   41748   41742      33
   41748   41745      34   41754   41751      33   41757   41751      33   41757
   41754      34   41763   41760      33   41766   41760      33   41766   41763
      34   41772   41769      33   41775   41769      33   41775   41772      34
   41781   41778      33   41784   41778      33   41784   41781      34   41790
   41787      33   41793   41787      33   41793   41790      34   41799   41796
      33   41802   41796      33   41802   41799      34   41808   41805      33
   41811   41805      33   41811   41808      34   41817   41814      33   41820
   41814      33   41820   41817      34   41826   41823      33   41829   41823
      33   41829   41826      34   41835   41832      33   41838   41832      33
   41838   41835      34   41844   41841      33   41847   41841      33   41847
   41844      34   41853   41850      33   41856   41850      33   41856   41853
      34   41862   41859      33   41865   41859      33   41865   41862      34
   41871   41868      33   41874   41868      33   41874   41871      34   41880
   41877      33   41883   41877      33   41883   41880      34   41889   41886
      33   41892   41886      33   41892   41889      34   41898   41895      33
   41901   41895      33   41901   41898      34   41907   41904      33   41910
   41904      33   41910   41907      34   41916   41913      33   41919   41913
      33   41919   41916      34   41925   41922      33   41928   41922      33
   41928   41925      34   41934   41931      33   41937   41931      33   41937
   41934      34   41943   41940      33   41946   41940      33   41946   41943
      34   41952   41949      33   41955   41949      33   41955   41952      34
   41961   41958      33   41964   41958      33   41964   41961      34   41970
   41967      33   41973   41967      33   41973   41970      34   41979   41976
      33   41982   41976      33   41982   41979      34   41988   41985      33
   41991   41985      33   41991   41988      34   41997   41994      33   42000
   41994      33   42000   41997      34   42006   42003      33   42009   42003
      33   42009   42006      34   42015   42012      33   42018   42012      33
   42018   42015      34   42024   42021      33   42027   42021      33   42027
   42024      34   42033   42030      33   42036   42030      33   42036   42033
      34   42042   42039      33   42045   42039      33   42045   42042      34
   42051   42048      33   42054   42048      33   42054   42051      34   42060
   42057      33   42063   42057      33   42063   42060      34   42069   42066
      33   42072   42066      33   42072   42069      34   42078   42075      33
   42081   42075      33   42081   42078      34   42087   42084      33   42090
   42084      33   42090   42087      34   42096   42093      33   42099   42093
      33   42099   42096      34   42105   42102      33   42108   42102      33
   42108   42105      34   42114   42111      33   42117   42111      33   42117
   42114      34   42123   42120      33   42126   42120      33   42126   42123
      34   42132   42129      33   42135   42129      33   42135   42132      34
   42141   42138      33   42144   42138      33   42144   42141      34   42150
   42147      33   42153   42147      33   42153   42150      34   42159   42156
      33   42162   42156      33   42162   42159      34   42168   42165      33
   42171   42165      33   42171   42168      34   42177   42174      33   42180
   42174      33   42180   42177      34   42186   42183      33   42189   42183
      33   42189   42186      34   42195   42192      33   42198   42192      33
   42198   42195      34   42204   42201      33   42207   42201      33   42207
   42204      34   42213   42210      33   42216   42210      33   42216   42213
      34   42222   42219      33   42225   42219      33   42225   42222      34
   42231   42228      33   42234   42228      33   42234   42231      34   42240
   42237      33   42243   42237      33   42243   42240      34   42249   42246
      33   42252   42246      33   42252   42249      34   42258   42255      33
   42261   42255      33   42261   42258      34   42267   42264      33   42270
   42264      33   42270   42267      34   42276   42273      33   42279   42273
      33   42279   42276      34   42285   42282      33   42288   42282      33
   42288   42285      34   42294   42291      33   42297   42291      33   42297
   42294      34   42303   42300      33   42306   42300      33   42306   42303
      34   42312   42309      33   42315   42309      33   42315   42312      34
   42321   42318      33   42324   42318      33   42324   42321      34   42330
   42327      33   42333   42327      33   42333   42330      34   42339   42336
      33   42342   42336      33   42342   42339      34   42348   42345      33
   42351   42345      33   42351   42348      34   42357   42354      33   42360
   42354      33   42360   42357      34   42366   42363      33   42369   42363
      33   42369   42366      34   42375   42372      33   42378   42372      33
   42378   42375      34   42384   42381      33   42387   42381      33   42387
   42384      34   42393   42390      33   42396   42390      33   42396   42393
      34   42402   42399      33   42405   42399      33   42405   42402      34
   42411   42408      33   42414   42408      33   42414   42411      34   42420
   42417      33   42423   42417      33   42423   42420      34   42429   42426
      33   42432   42426      33   42432   42429      34   42438   42435      33
   42441   42435      33   42441   42438      34   42447   42444      33   42450
   42444      33   42450   42447      34   42456   42453      33   42459   42453
      33   42459   42456      34   42465   42462      33   42468   42462      33
   42468   42465      34   42474   42471      33   42477   42471      33   42477
   42474      34   42483   42480      33   42486   42480      33   42486   42483
      34   42492   42489      33   42495   42489      33   42495   42492      34
   42501   42498      33   42504   42498      33   42504   42501      34   42510
   42507      33   42513   42507      33   42513   42510      34   42519   42516
      33   42522   42516      33   42522   42519      34   42528   42525      33
   42531   42525      33   42531   42528      34   42537   42534      33   42540
   42534      33   42540   42537      34   42546   42543      33   42549   42543
      33   42549   42546      34   42555   42552      33   42558   42552      33
   42558   42555      34   42564   42561      33   42567   42561      33   42567
   42564      34   42573   42570      33   42576   42570      33   42576   42573
      34   42582   42579      33   42585   42579      33   42585   42582      34
   42591   42588      33   42594   42588      33   42594   42591      34   42600
   42597      33   42603   42597      33   42603   42600      34   42609   42606
      33   42612   42606      33   42612   42609      34   42618   42615      33
   42621   42615      33   42621   42618      34   42627   42624      33   42630
   42624      33   42630   42627      34   42636   42633      33   42639   42633
      33   42639   42636      34   42645   42642      33   42648   42642      33
   42648   42645      34   42654   42651      33   42657   42651      33   42657
   42654      34   42663   42660      33   42666   42660      33   42666   42663
      34   42672   42669      33   42675   42669      33   42675   42672      34
   42681   42678      33   42684   42678      33   42684   42681      34   42690
   42687      33   42693   42687      33   42693   42690      34   42699   42696
      33   42702   42696      33   42702   42699      34   42708   42705      33
   42711   42705      33   42711   42708      34   42717   42714      33   42720
   42714      33   42720   42717      34   42726   42723      33   42729   42723
      33   42729   42726      34   42735   42732      33   42738   42732      33
   42738   42735      34   42744   42741      33   42747   42741      33   42747
   42744      34   42753   42750      33   42756   42750      33   42756   42753
      34   42762   42759      33   42765   42759      33   42765   42762      34
   42771   42768      33   42774   42768      33   42774   42771      34   42780
   42777      33   42783   42777      33   42783   42780      34   42789   42786
      33   42792   42786      33   42792   42789      34   42798   42795      33
   42801   42795      33   42801   42798      34   42807   42804      33   42810
   42804      33   42810   42807      34   42816   42813      33   42819   42813
      33   42819   42816      34   42825   42822      33   42828   42822      33
   42828   42825      34   42834   42831      33   42837   42831      33   42837
   42834      34   42843   42840      33   42846   42840      33   42846   42843
      34   42852   42849      33   42855   42849      33   42855   42852      34
   42861   42858      33   42864   42858      33   42864   42861      34   42870
   42867      33   42873   42867      33   42873   42870      34   42879   42876
      33   42882   42876      33   42882   42879      34   42888   42885      33
   42891   42885      33   42891   42888      34   42897   42894      33   42900
   42894      33   42900   42897      34   42906   42903      33   42909   42903
      33   42909   42906      34   42915   42912      33   42918   42912      33
   42918   42915      34   42924   42921      33   42927   42921      33   42927
   42924      34   42933   42930      33   42936   42930      33   42936   42933
      34   42942   42939      33   42945   42939      33   42945   42942      34
   42951   42948      33   42954   42948      33   42954   42951      34   42960
   42957      33   42963   42957      33   42963   42960      34   42969   42966
      33   42972   42966      33   42972   42969      34   42978   42975      33
   42981   42975      33   42981   42978      34   42987   42984      33   42990
   42984      33   42990   42987      34   42996   42993      33   42999   42993
      33   42999   42996      34   43005   43002      33   43008   43002      33
   43008   43005      34   43014   43011      33   43017   43011      33   43017
   43014      34   43023   43020      33   43026   43020      33   43026   43023
      34   43032   43029      33   43035   43029      33   43035   43032      34
   43041   43038      33   43044   43038      33   43044   43041      34   43050
   43047      33   43053   43047      33   43053   43050      34   43059   43056
      33   43062   43056      33   43062   43059      34   43068   43065      33
   43071   43065      33   43071   43068      34   43077   43074      33   43080
   43074      33   43080   43077      34   43086   43083      33   43089   43083
      33   43089   43086      34   43095   43092      33   43098   43092      33
   43098   43095      34   43104   43101      33   43107   43101      33   43107
   43104      34   43113   43110      33   43116   43110      33   43116   43113
      34   43122   43119      33   43125   43119      33   43125   43122      34
   43131   43128      33   43134   43128      33   43134   43131      34   43140
   43137      33   43143   43137      33   43143   43140      34   43149   43146
      33   43152   43146      33   43152   43149      34   43158   43155      33
   43161   43155      33   43161   43158      34   43167   43164      33   43170
   43164      33   43170   43167      34   43176   43173      33   43179   43173
      33   43179   43176      34   43185   43182      33   43188   43182      33
   43188   43185      34   43194   43191      33   43197   43191      33   43197
   43194      34   43203   43200      33   43206   43200      33   43206   43203
      34   43212   43209      33   43215   43209      33   43215   43212      34
   43221   43218      33   43224   43218      33   43224   43221      34   43230
   43227      33   43233   43227      33   43233   43230      34   43239   43236
      33   43242   43236      33   43242   43239      34   43248   43245      33
   43251   43245      33   43251   43248      34   43257   43254      33   43260
   43254      33   43260   43257      34   43266   43263      33   43269   43263
      33   43269   43266      34   43275   43272      33   43278   43272      33
   43278   43275      34   43284   43281      33   43287   43281      33   43287
   43284      34   43293   43290      33   43296   43290      33   43296   43293
      34   43302   43299      33   43305   43299      33   43305   43302      34
   43311   43308      33   43314   43308      33   43314   43311      34   43320
   43317      33   43323   43317      33   43323   43320      34   43329   43326
      33   43332   43326      33   43332   43329      34   43338   43335      33
   43341   43335      33   43341   43338      34   43347   43344      33   43350
   43344      33   43350   43347      34   43356   43353      33   43359   43353
      33   43359   43356      34   43365   43362      33   43368   43362      33
   43368   43365      34   43374   43371      33   43377   43371      33   43377
   43374      34   43383   43380      33   43386   43380      33   43386   43383
      34   43392   43389      33   43395   43389      33   43395   43392      34
   43401   43398      33   43404   43398      33   43404   43401      34   43410
   43407      33   43413   43407      33   43413   43410      34   43419   43416
      33   43422   43416      33   43422   43419      34   43428   43425      33
   43431   43425      33   43431   43428      34   43437   43434      33   43440
   43434      33   43440   43437      34   43446   43443      33   43449   43443
      33   43449   43446      34   43455   43452      33   43458   43452      33
   43458   43455      34   43464   43461      33   43467   43461      33   43467
   43464      34   43473   43470      33   43476   43470      33   43476   43473
      34   43482   43479      33   43485   43479      33   43485   43482      34
   43491   43488      33   43494   43488      33   43494   43491      34   43500
   43497      33   43503   43497      33   43503   43500      34   43509   43506
      33   43512   43506      33   43512   43509      34   43518   43515      33
   43521   43515      33   43521   43518      34   43527   43524      33   43530
   43524      33   43530   43527      34   43536   43533      33   43539   43533
      33   43539   43536      34   43545   43542      33   43548   43542      33
   43548   43545      34   43554   43551      33   43557   43551      33   43557
   43554      34   43563   43560      33   43566   43560      33   43566   43563
      34   43572   43569      33   43575   43569      33   43575   43572      34
   43581   43578      33   43584   43578      33   43584   43581      34   43590
   43587      33   43593   43587      33   43593   43590      34   43599   43596
      33   43602   43596      33   43602   43599      34   43608   43605      33
   43611   43605      33   43611   43608      34   43617   43614      33   43620
   43614      33   43620   43617      34   43626   43623      33   43629   43623
      33   43629   43626      34   43635   43632      33   43638   43632      33
   43638   43635      34   43644   43641      33   43647   43641      33   43647
   43644      34   43653   43650      33   43656   43650      33   43656   43653
      34   43662   43659      33   43665   43659      33   43665   43662      34
   43671   43668      33   43674   43668      33   43674   43671      34   43680
   43677      33   43683   43677      33   43683   43680      34   43689   43686
      33   43692   43686      33   43692   43689      34   43698   43695      33
   43701   43695      33   43701   43698      34   43707   43704      33   43710
   43704      33   43710   43707      34   43716   43713      33   43719   43713
      33   43719   43716      34   43725   43722      33   43728   43722      33
   43728   43725      34   43734   43731      33   43737   43731      33   43737
   43734      34   43743   43740      33   43746   43740      33   43746   43743
      34   43752   43749      33   43755   43749      33   43755   43752      34
   43761   43758      33   43764   43758      33   43764   43761      34   43770
   43767      33   43773   43767      33   43773   43770      34   43779   43776
      33   43782   43776      33   43782   43779      34   43788   43785      33
   43791   43785      33   43791   43788      34   43797   43794      33   43800
   43794      33   43800   43797      34   43806   43803      33   43809   43803
      33   43809   43806      34   43815   43812      33   43818   43812      33
   43818   43815      34   43824   43821      33   43827   43821      33   43827
   43824      34   43833   43830      33   43836   43830      33   43836   43833
      34   43842   43839      33   43845   43839      33   43845   43842      34
   43851   43848      33   43854   43848      33   43854   43851      34   43860
   43857      33   43863   43857      33   43863   43860      34   43869   43866
      33   43872   43866      33   43872   43869      34   43878   43875      33
   43881   43875      33   43881   43878      34   43887   43884      33   43890
   43884      33   43890   43887      34   43896   43893      33   43899   43893
      33   43899   43896      34   43905   43902      33   43908   43902      33
   43908   43905      34   43914   43911      33   43917   43911      33   43917
   43914      34   43923   43920      33   43926   43920      33   43926   43923
      34   43932   43929      33   43935   43929      33   43935   43932      34
   43941   43938      33   43944   43938      33   43944   43941      34   43950
   43947      33   43953   43947      33   43953   43950      34   43959   43956
      33   43962   43956      33   43962   43959      34   43968   43965      33
   43971   43965      33   43971   43968      34   43977   43974      33   43980
   43974      33   43980   43977      34   43986   43983      33   43989   43983
      33   43989   43986      34   43995   43992      33   43998   43992      33
   43998   43995      34   44004   44001      33   44007   44001      33   44007
   44004      34   44013   44010      33   44016   44010      33   44016   44013
      34   44022   44019      33   44025   44019      33   44025   44022      34
   44031   44028      33   44034   44028      33   44034   44031      34   44040
   44037      33   44043   44037      33   44043   44040      34   44049   44046
      33   44052   44046      33   44052   44049      34   44058   44055      33
   44061   44055      33   44061   44058      34   44067   44064      33   44070
   44064      33   44070   44067      34   44076   44073      33   44079   44073
      33   44079   44076      34   44085   44082      33   44088   44082      33
   44088   44085      34   44094   44091      33   44097   44091      33   44097
   44094      34   44103   44100      33   44106   44100      33   44106   44103
      34   44112   44109      33   44115   44109      33   44115   44112      34
   44121   44118      33   44124   44118      33   44124   44121      34   44130
   44127      33   44133   44127      33   44133   44130      34   44139   44136
      33   44142   44136      33   44142   44139      34   44148   44145      33
   44151   44145      33   44151   44148      34   44157   44154      33   44160
   44154      33   44160   44157      34   44166   44163      33   44169   44163
      33   44169   44166      34   44175   44172      33   44178   44172      33
   44178   44175      34   44184   44181      33   44187   44181      33   44187
   44184      34   44193   44190      33   44196   44190      33   44196   44193
      34   44202   44199      33   44205   44199      33   44205   44202      34
   44211   44208      33   44214   44208      33   44214   44211      34   44220
   44217      33   44223   44217      33   44223   44220      34   44229   44226
      33   44232   44226      33   44232   44229      34   44238   44235      33
   44241   44235      33   44241   44238      34   44247   44244      33   44250
   44244      33   44250   44247      34   44256   44253      33   44259   44253
      33   44259   44256      34   44265   44262      33   44268   44262      33
   44268   44265      34   44274   44271      33   44277   44271      33   44277
   44274      34   44283   44280      33   44286   44280      33   44286   44283
      34   44292   44289      33   44295   44289      33   44295   44292      34
   44301   44298      33   44304   44298      33   44304   44301      34   44310
   44307      33   44313   44307      33   44313   44310      34   44319   44316
      33   44322   44316      33   44322   44319      34   44328   44325      33
   44331   44325      33   44331   44328      34   44337   44334      33   44340
   44334      33   44340   44337      34   44346   44343      33   44349   44343
      33   44349   44346      34   44355   44352      33   44358   44352      33
   44358   44355      34   44364   44361      33   44367   44361      33   44367
   44364      34   44373   44370      33   44376   44370      33   44376   44373
      34   44382   44379      33   44385   44379      33   44385   44382      34
   44391   44388      33   44394   44388      33   44394   44391      34   44400
   44397      33   44403   44397      33   44403   44400      34   44409   44406
      33   44412   44406      33   44412   44409      34   44418   44415      33
   44421   44415      33   44421   44418      34   44427   44424      33   44430
   44424      33   44430   44427      34   44436   44433      33   44439   44433
      33   44439   44436      34   44445   44442      33   44448   44442      33
   44448   44445      34   44454   44451      33   44457   44451      33   44457
   44454      34   44463   44460      33   44466   44460      33   44466   44463
      34   44472   44469      33   44475   44469      33   44475   44472      34
   44481   44478      33   44484   44478      33   44484   44481      34   44490
   44487      33   44493   44487      33   44493   44490      34   44499   44496
      33   44502   44496      33   44502   44499      34   44508   44505      33
   44511   44505      33   44511   44508      34   44517   44514      33   44520
   44514      33   44520   44517      34   44526   44523      33   44529   44523
      33   44529   44526      34   44535   44532      33   44538   44532      33
   44538   44535      34   44544   44541      33   44547   44541      33   44547
   44544      34   44553   44550      33   44556   44550      33   44556   44553
      34   44562   44559      33   44565   44559      33   44565   44562      34
   44571   44568      33   44574   44568      33   44574   44571      34   44580
   44577      33   44583   44577      33   44583   44580      34   44589   44586
      33   44592   44586      33   44592   44589      34   44598   44595      33
   44601   44595      33   44601   44598      34   44607   44604      33   44610
   44604      33   44610   44607      34   44616   44613      33   44619   44613
      33   44619   44616      34   44625   44622      33   44628   44622      33
   44628   44625      34   44634   44631      33   44637   44631      33   44637
   44634      34   44643   44640      33   44646   44640      33   44646   44643
      34   44652   44649      33   44655   44649      33   44655   44652      34
   44661   44658      33   44664   44658      33   44664   44661      34   44670
   44667      33   44673   44667      33   44673   44670      34   44679   44676
      33   44682   44676      33   44682   44679      34   44688   44685      33
   44691   44685      33   44691   44688      34   44697   44694      33   44700
   44694      33   44700   44697      34   44706   44703      33   44709   44703
      33   44709   44706      34   44715   44712      33   44718   44712      33
   44718   44715      34   44724   44721      33   44727   44721      33   44727
   44724      34   44733   44730      33   44736   44730      33   44736   44733
      34   44742   44739      33   44745   44739      33   44745   44742      34
   44751   44748      33   44754   44748      33   44754   44751      34   44760
   44757      33   44763   44757      33   44763   44760      34   44769   44766
      33   44772   44766      33   44772   44769      34   44778   44775      33
   44781   44775      33   44781   44778      34   44787   44784      33   44790
   44784      33   44790   44787      34   44796   44793      33   44799   44793
      33   44799   44796      34   44805   44802      33   44808   44802      33
   44808   44805      34   44814   44811      33   44817   44811      33   44817
   44814      34   44823   44820      33   44826   44820      33   44826   44823
      34   44832   44829      33   44835   44829      33   44835   44832      34
   44841   44838      33   44844   44838      33   44844   44841      34   44850
   44847      33   44853   44847      33   44853   44850      34   44859   44856
      33   44862   44856      33   44862   44859      34   44868   44865      33
   44871   44865      33   44871   44868      34   44877   44874      33   44880
   44874      33   44880   44877      34   44886   44883      33   44889   44883
      33   44889   44886      34   44895   44892      33   44898   44892      33
   44898   44895      34   44904   44901      33   44907   44901      33   44907
   44904      34   44913   44910      33   44916   44910      33   44916   44913
      34   44922   44919      33   44925   44919      33   44925   44922      34
   44931   44928      33   44934   44928      33   44934   44931      34   44940
   44937      33   44943   44937      33   44943   44940      34   44949   44946
      33   44952   44946      33   44952   44949      34   44958   44955      33
   44961   44955      33   44961   44958      34   44967   44964      33   44970
   44964      33   44970   44967      34   44976   44973      33   44979   44973
      33   44979   44976      34   44985   44982      33   44988   44982      33
   44988   44985      34   44994   44991      33   44997   44991      33   44997
   44994      34   45003   45000      33   45006   45000      33   45006   45003
      34   45012   45009      33   45015   45009      33   45015   45012      34
   45021   45018      33   45024   45018      33   45024   45021      34   45030
   45027      33   45033   45027      33   45033   45030      34   45039   45036
      33   45042   45036      33   45042   45039      34   45048   45045      33
   45051   45045      33   45051   45048      34   45057   45054      33   45060
   45054      33   45060   45057      34   45066   45063      33   45069   45063
      33   45069   45066      34   45075   45072      33   45078   45072      33
   45078   45075      34   45084   45081      33   45087   45081      33   45087
   45084      34   45093   45090      33   45096   45090      33   45096   45093
      34   45102   45099      33   45105   45099      33   45105   45102      34
   45111   45108      33   45114   45108      33   45114   45111      34   45120
   45117      33   45123   45117      33   45123   45120      34   45129   45126
      33   45132   45126      33   45132   45129      34   45138   45135      33
   45141   45135      33   45141   45138      34   45147   45144      33   45150
   45144      33   45150   45147      34   45156   45153      33   45159   45153
      33   45159   45156      34   45165   45162      33   45168   45162      33
   45168   45165      34   45174   45171      33   45177   45171      33   45177
   45174      34   45183   45180      33   45186   45180      33   45186   45183
      34   45192   45189      33   45195   45189      33   45195   45192      34
   45201   45198      33   45204   45198      33   45204   45201      34   45210
   45207      33   45213   45207      33   45213   45210      34   45219   45216
      33   45222   45216      33   45222   45219      34   45228   45225      33
   45231   45225      33   45231   45228      34   45237   45234      33   45240
   45234      33   45240   45237      34   45246   45243      33   45249   45243
      33   45249   45246      34   45255   45252      33   45258   45252      33
   45258   45255      34   45264   45261      33   45267   45261      33   45267
   45264      34   45273   45270      33   45276   45270      33   45276   45273
      34   45282   45279      33   45285   45279      33   45285   45282      34
   45291   45288      33   45294   45288      33   45294   45291      34   45300
   45297      33   45303   45297      33   45303   45300      34   45309   45306
      33   45312   45306      33   45312   45309      34   45318   45315      33
   45321   45315      33   45321   45318      34   45327   45324      33   45330
   45324      33   45330   45327      34   45336   45333      33   45339   45333
      33   45339   45336      34   45345   45342      33   45348   45342      33
   45348   45345      34   45354   45351      33   45357   45351      33   45357
   45354      34   45363   45360      33   45366   45360      33   45366   45363
      34   45372   45369      33   45375   45369      33   45375   45372      34
   45381   45378      33   45384   45378      33   45384   45381      34   45390
   45387      33   45393   45387      33   45393   45390      34   45399   45396
      33   45402   45396      33   45402   45399      34   45408   45405      33
   45411   45405      33   45411   45408      34   45417   45414      33   45420
   45414      33   45420   45417      34   45426   45423      33   45429   45423
      33   45429   45426      34   45435   45432      33   45438   45432      33
   45438   45435      34   45444   45441      33   45447   45441      33   45447
   45444      34   45453   45450      33   45456   45450      33   45456   45453
      34   45462   45459      33   45465   45459      33   45465   45462      34
   45471   45468      33   45474   45468      33   45474   45471      34   45480
   45477      33   45483   45477      33   45483   45480      34   45489   45486
      33   45492   45486      33   45492   45489      34   45498   45495      33
   45501   45495      33   45501   45498      34   45507   45504      33   45510
   45504      33   45510   45507      34   45516   45513      33   45519   45513
      33   45519   45516      34   45525   45522      33   45528   45522      33
   45528   45525      34   45534   45531      33   45537   45531      33   45537
   45534      34   45543   45540      33   45546   45540      33   45546   45543
      34   45552   45549      33   45555   45549      33   45555   45552      34
   45561   45558      33   45564   45558      33   45564   45561      34   45570
   45567      33   45573   45567      33   45573   45570      34   45579   45576
      33   45582   45576      33   45582   45579      34   45588   45585      33
   45591   45585      33   45591   45588      34   45597   45594      33   45600
   45594      33   45600   45597      34   45606   45603      33   45609   45603
      33   45609   45606      34   45615   45612      33   45618   45612      33
   45618   45615      34   45624   45621      33   45627   45621      33   45627
   45624      34   45633   45630      33   45636   45630      33   45636   45633
      34   45642   45639      33   45645   45639      33   45645   45642      34
   45651   45648      33   45654   45648      33   45654   45651      34   45660
   45657      33   45663   45657      33   45663   45660      34   45669   45666
      33   45672   45666      33   45672   45669      34   45678   45675      33
   45681   45675      33   45681   45678      34   45687   45684      33   45690
   45684      33   45690   45687      34   45696   45693      33   45699   45693
      33   45699   45696      34   45705   45702      33   45708   45702      33
   45708   45705      34   45714   45711      33   45717   45711      33   45717
   45714      34   45723   45720      33   45726   45720      33   45726   45723
      34   45732   45729      33   45735   45729      33   45735   45732      34
   45741   45738      33   45744   45738      33   45744   45741      34   45750
   45747      33   45753   45747      33   45753   45750      34   45759   45756
      33   45762   45756      33   45762   45759      34   45768   45765      33
   45771   45765      33   45771   45768      34   45777   45774      33   45780
   45774      33   45780   45777      34   45786   45783      33   45789   45783
      33   45789   45786      34   45795   45792      33   45798   45792      33
   45798   45795      34   45804   45801      33   45807   45801      33   45807
   45804      34   45813   45810      33   45816   45810      33   45816   45813
      34   45822   45819      33   45825   45819      33   45825   45822      34
   45831   45828      33   45834   45828      33   45834   45831      34   45840
   45837      33   45843   45837      33   45843   45840      34   45849   45846
      33   45852   45846      33   45852   45849      34   45858   45855      33
   45861   45855      33   45861   45858      34   45867   45864      33   45870
   45864      33   45870   45867      34   45876   45873      33   45879   45873
      33   45879   45876      34   45885   45882      33   45888   45882      33
   45888   45885      34   45894   45891      33   45897   45891      33   45897
   45894      34   45903   45900      33   45906   45900      33   45906   45903
      34   45912   45909      33   45915   45909      33   45915   45912      34
   45921   45918      33   45924   45918      33   45924   45921      34   45930
   45927      33   45933   45927      33   45933   45930      34   45939   45936
      33   45942   45936      33   45942   45939      34   45948   45945      33
   45951   45945      33   45951   45948      34   45957   45954      33   45960
   45954      33   45960   45957      34   45966   45963      33   45969   45963
      33   45969   45966      34   45975   45972      33   45978   45972      33
   45978   45975      34   45984   45981      33   45987   45981      33   45987
   45984      34   45993   45990      33   45996   45990      33   45996   45993
      34   46002   45999      33   46005   45999      33   46005   46002      34
   46011   46008      33   46014   46008      33   46014   46011      34   46020
   46017      33   46023   46017      33   46023   46020      34   46029   46026
      33   46032   46026      33   46032   46029      34   46038   46035      33
   46041   46035      33   46041   46038      34   46047   46044      33   46050
   46044      33   46050   46047      34   46056   46053      33   46059   46053
      33   46059   46056      34   46065   46062      33   46068   46062      33
   46068   46065      34   46074   46071      33   46077   46071      33   46077
   46074      34   46083   46080      33   46086   46080      33   46086   46083
      34   46092   46089      33   46095   46089      33   46095   46092      34
   46101   46098      33   46104   46098      33   46104   46101      34   46110
   46107      33   46113   46107      33   46113   46110      34   46119   46116
      33   46122   46116      33   46122   46119      34   46128   46125      33
   46131   46125      33   46131   46128      34   46137   46134      33   46140
   46134      33   46140   46137      34   46146   46143      33   46149   46143
      33   46149   46146      34   46155   46152      33   46158   46152      33
   46158   46155      34   46164   46161      33   46167   46161      33   46167
   46164      34   46173   46170      33   46176   46170      33   46176   46173
      34   46182   46179      33   46185   46179      33   46185   46182      34
   46191   46188      33   46194   46188      33   46194   46191      34   46200
   46197      33   46203   46197      33   46203   46200      34   46209   46206
      33   46212   46206      33   46212   46209      34   46218   46215      33
   46221   46215      33   46221   46218      34   46227   46224      33   46230
   46224      33   46230   46227      34   46236   46233      33   46239   46233
      33   46239   46236      34   46245   46242      33   46248   46242      33
   46248   46245      34   46254   46251      33   46257   46251      33   46257
   46254      34   46263   46260      33   46266   46260      33   46266   46263
      34   46272   46269      33   46275   46269      33   46275   46272      34
   46281   46278      33   46284   46278      33   46284   46281      34   46290
   46287      33   46293   46287      33   46293   46290      34   46299   46296
      33   46302   46296      33   46302   46299      34   46308   46305      33
   46311   46305      33   46311   46308      34   46317   46314      33   46320
   46314      33   46320   46317      34   46326   46323      33   46329   46323
      33   46329   46326      34   46335   46332      33   46338   46332      33
   46338   46335      34   46344   46341      33   46347   46341      33   46347
   46344      34   46353   46350      33   46356   46350      33   46356   46353
      34   46362   46359      33   46365   46359      33   46365   46362      34
   46371   46368      33   46374   46368      33   46374   46371      34   46380
   46377      33   46383   46377      33   46383   46380      34   46389   46386
      33   46392   46386      33   46392   46389      34   46398   46395      33
   46401   46395      33   46401   46398      34   46407   46404      33   46410
   46404      33   46410   46407      34   46416   46413      33   46419   46413
      33   46419   46416      34   46425   46422      33   46428   46422      33
   46428   46425      34   46434   46431      33   46437   46431      33   46437
   46434      34   46443   46440      33   46446   46440      33   46446   46443
      34   46452   46449      33   46455   46449      33   46455   46452      34
   46461   46458      33   46464   46458      33   46464   46461      34   46470
   46467      33   46473   46467      33   46473   46470      34   46479   46476
      33   46482   46476      33   46482   46479      34   46488   46485      33
   46491   46485      33   46491   46488      34   46497   46494      33   46500
   46494      33   46500   46497      34   46506   46503      33   46509   46503
      33   46509   46506      34   46515   46512      33   46518   46512      33
   46518   46515      34   46524   46521      33   46527   46521      33   46527
   46524      34   46533   46530      33   46536   46530      33   46536   46533
      34   46542   46539      33   46545   46539      33   46545   46542      34
   46551   46548      33   46554   46548      33   46554   46551      34   46560
   46557      33   46563   46557      33   46563   46560      34   46569   46566
      33   46572   46566      33   46572   46569      34   46578   46575      33
   46581   46575      33   46581   46578      34   46587   46584      33   46590
   46584      33   46590   46587      34   46596   46593      33   46599   46593
      33   46599   46596      34   46605   46602      33   46608   46602      33
   46608   46605      34   46614   46611      33   46617   46611      33   46617
   46614      34   46623   46620      33   46626   46620      33   46626   46623
      34   46632   46629      33   46635   46629      33   46635   46632      34
   46641   46638      33   46644   46638      33   46644   46641      34   46650
   46647      33   46653   46647      33   46653   46650      34   46659   46656
      33   46662   46656      33   46662   46659      34   46668   46665      33
   46671   46665      33   46671   46668      34   46677   46674      33   46680
   46674      33   46680   46677      34   46686   46683      33   46689   46683
      33   46689   46686      34   46695   46692      33   46698   46692      33
   46698   46695      34   46704   46701      33   46707   46701      33   46707
   46704      34   46713   46710      33   46716   46710      33   46716   46713
      34   46722   46719      33   46725   46719      33   46725   46722      34
   46731   46728      33   46734   46728      33   46734   46731      34   46740
   46737      33   46743   46737      33   46743   46740      34   46749   46746
      33   46752   46746      33   46752   46749      34   46758   46755      33
   46761   46755      33   46761   46758      34   46767   46764      33   46770
   46764      33   46770   46767      34   46776   46773      33   46779   46773
      33   46779   46776      34   46785   46782      33   46788   46782      33
   46788   46785      34   46794   46791      33   46797   46791      33   46797
   46794      34   46803   46800      33   46806   46800      33   46806   46803
      34   46812   46809      33   46815   46809      33   46815   46812      34
   46821   46818      33   46824   46818      33   46824   46821      34   46830
   46827      33   46833   46827      33   46833   46830      34   46839   46836
      33   46842   46836      33   46842   46839      34   46848   46845      33
   46851   46845      33   46851   46848      34   46857   46854      33   46860
   46854      33   46860   46857      34   46866   46863      33   46869   46863
      33   46869   46866      34   46875   46872      33   46878   46872      33
   46878   46875      34   46884   46881      33   46887   46881      33   46887
   46884      34   46893   46890      33   46896   46890      33   46896   46893
      34   46902   46899      33   46905   46899      33   46905   46902      34
   46911   46908      33   46914   46908      33   46914   46911      34   46920
   46917      33   46923   46917      33   46923   46920      34   46929   46926
      33   46932   46926      33   46932   46929      34   46938   46935      33
   46941   46935      33   46941   46938      34   46947   46944      33   46950
   46944      33   46950   46947      34   46956   46953      33   46959   46953
      33   46959   46956      34   46965   46962      33   46968   46962      33
   46968   46965      34   46974   46971      33   46977   46971      33   46977
   46974      34   46983   46980      33   46986   46980      33   46986   46983
      34   46992   46989      33   46995   46989      33   46995   46992      34
   47001   46998      33   47004   46998      33   47004   47001      34   47010
   47007      33   47013   47007      33   47013   47010      34   47019   47016
      33   47022   47016      33   47022   47019      34   47028   47025      33
   47031   47025      33   47031   47028      34   47037   47034      33   47040
   47034      33   47040   47037      34   47046   47043      33   47049   47043
      33   47049   47046      34   47055   47052      33   47058   47052      33
   47058   47055      34   47064   47061      33   47067   47061      33   47067
   47064      34   47073   47070      33   47076   47070      33   47076   47073
      34   47082   47079      33   47085   47079      33   47085   47082      34
   47091   47088      33   47094   47088      33   47094   47091      34   47100
   47097      33   47103   47097      33   47103   47100      34   47109   47106
      33   47112   47106      33   47112   47109      34   47118   47115      33
   47121   47115      33   47121   47118      34   47127   47124      33   47130
   47124      33   47130   47127      34   47136   47133      33   47139   47133
      33   47139   47136      34   47145   47142      33   47148   47142      33
   47148   47145      34   47154   47151      33   47157   47151      33   47157
   47154      34   47163   47160      33   47166   47160      33   47166   47163
      34   47172   47169      33   47175   47169      33   47175   47172      34
   47181   47178      33   47184   47178      33   47184   47181      34   47190
   47187      33   47193   47187      33   47193   47190      34   47199   47196
      33   47202   47196      33   47202   47199      34   47208   47205      33
   47211   47205      33   47211   47208      34   47217   47214      33   47220
   47214      33   47220   47217      34   47226   47223      33   47229   47223
      33   47229   47226      34   47235   47232      33   47238   47232      33
   47238   47235      34   47244   47241      33   47247   47241      33   47247
   47244      34   47253   47250      33   47256   47250      33   47256   47253
      34   47262   47259      33   47265   47259      33   47265   47262      34
   47271   47268      33   47274   47268      33   47274   47271      34   47280
   47277      33   47283   47277      33   47283   47280      34   47289   47286
      33   47292   47286      33   47292   47289      34   47298   47295      33
   47301   47295      33   47301   47298      34   47307   47304      33   47310
   47304      33   47310   47307      34   47316   47313      33   47319   47313
      33   47319   47316      34   47325   47322      33   47328   47322      33
   47328   47325      34   47334   47331      33   47337   47331      33   47337
   47334      34   47343   47340      33   47346   47340      33   47346   47343
      34   47352   47349      33   47355   47349      33   47355   47352      34
   47361   47358      33   47364   47358      33   47364   47361      34   47370
   47367      33   47373   47367      33   47373   47370      34   47379   47376
      33   47382   47376      33   47382   47379      34   47388   47385      33
   47391   47385      33   47391   47388      34   47397   47394      33   47400
   47394      33   47400   47397      34   47406   47403      33   47409   47403
      33   47409   47406      34   47415   47412      33   47418   47412      33
   47418   47415      34   47424   47421      33   47427   47421      33   47427
   47424      34   47433   47430      33   47436   47430      33   47436   47433
      34   47442   47439      33   47445   47439      33   47445   47442      34
   47451   47448      33   47454   47448      33   47454   47451      34   47460
   47457      33   47463   47457      33   47463   47460      34   47469   47466
      33   47472   47466      33   47472   47469      34   47478   47475      33
   47481   47475      33   47481   47478      34   47487   47484      33   47490
   47484      33   47490   47487      34   47496   47493      33   47499   47493
      33   47499   47496      34   47505   47502      33   47508   47502      33
   47508   47505      34   47514   47511      33   47517   47511      33   47517
   47514      34   47523   47520      33   47526   47520      33   47526   47523
      34   47532   47529      33   47535   47529      33   47535   47532      34
   47541   47538      33   47544   47538      33   47544   47541      34   47550
   47547      33   47553   47547      33   47553   47550      34   47559   47556
      33   47562   47556      33   47562   47559      34   47568   47565      33
   47571   47565      33   47571   47568      34   47577   47574      33   47580
   47574      33   47580   47577      34   47586   47583      33   47589   47583
      33   47589   47586      34   47595   47592      33   47598   47592      33
   47598   47595      34   47604   47601      33   47607   47601      33   47607
   47604      34   47613   47610      33   47616   47610      33   47616   47613
      34   47622   47619      33   47625   47619      33   47625   47622      34
   47631   47628      33   47634   47628      33   47634   47631      34   47640
   47637      33   47643   47637      33   47643   47640      34   47649   47646
      33   47652   47646      33   47652   47649      34   47658   47655      33
   47661   47655      33   47661   47658      34   47667   47664      33   47670
   47664      33   47670   47667      34   47676   47673      33   47679   47673
      33   47679   47676      34   47685   47682      33   47688   47682      33
   47688   47685      34   47694   47691      33   47697   47691      33   47697
   47694      34   47703   47700      33   47706   47700      33   47706   47703
      34   47712   47709      33   47715   47709      33   47715   47712      34
   47721   47718      33   47724   47718      33   47724   47721      34   47730
   47727      33   47733   47727      33   47733   47730      34   47739   47736
      33   47742   47736      33   47742   47739      34   47748   47745      33
   47751   47745      33   47751   47748      34   47757   47754      33   47760
   47754      33   47760   47757      34   47766   47763      33   47769   47763
      33   47769   47766      34   47775   47772      33   47778   47772      33
   47778   47775      34   47784   47781      33   47787   47781      33   47787
   47784      34   47793   47790      33   47796   47790      33   47796   47793
      34   47802   47799      33   47805   47799      33   47805   47802      34
   47811   47808      33   47814   47808      33   47814   47811      34   47820
   47817      33   47823   47817      33   47823   47820      34   47829   47826
      33   47832   47826      33   47832   47829      34   47838   47835      33
   47841   47835      33   47841   47838      34   47847   47844      33   47850
   47844      33   47850   47847      34   47856   47853      33   47859   47853
      33   47859   47856      34   47865   47862      33   47868   47862      33
   47868   47865      34   47874   47871      33   47877   47871      33   47877
   47874      34   47883   47880      33   47886   47880      33   47886   47883
      34   47892   47889      33   47895   47889      33   47895   47892      34
   47901   47898      33   47904   47898      33   47904   47901      34   47910
   47907      33   47913   47907      33   47913   47910      34   47919   47916
      33   47922   47916      33   47922   47919      34   47928   47925      33
   47931   47925      33   47931   47928      34   47937   47934      33   47940
   47934      33   47940   47937      34   47946   47943      33   47949   47943
      33   47949   47946      34   47955   47952      33   47958   47952      33
   47958   47955      34   47964   47961      33   47967   47961      33   47967
   47964      34   47973   47970      33   47976   47970      33   47976   47973
      34   47982   47979      33   47985   47979      33   47985   47982      34
   47991   47988      33   47994   47988      33   47994   47991      34   48000
   47997      33   48003   47997      33   48003   48000      34   48009   48006
      33   48012   48006      33   48012   48009      34   48018   48015      33
   48021   48015      33   48021   48018      34   48027   48024      33   48030
   48024      33   48030   48027      34   48036   48033      33   48039   48033
      33   48039   48036      34   48045   48042      33   48048   48042      33
   48048   48045      34   48054   48051      33   48057   48051      33   48057
   48054      34   48063   48060      33   48066   48060      33   48066   48063
      34   48072   48069      33   48075   48069      33   48075   48072      34
   48081   48078      33   48084   48078      33   48084   48081      34   48090
   48087      33   48093   48087      33   48093   48090      34   48099   48096
      33   48102   48096      33   48102   48099      34   48108   48105      33
   48111   48105      33   48111   48108      34   48117   48114      33   48120
   48114      33   48120   48117      34   48126   48123      33   48129   48123
      33   48129   48126      34   48135   48132      33   48138   48132      33
   48138   48135      34   48144   48141      33   48147   48141      33   48147
   48144      34   48153   48150      33   48156   48150      33   48156   48153
      34   48162   48159      33   48165   48159      33   48165   48162      34
   48171   48168      33   48174   48168      33   48174   48171      34   48180
   48177      33   48183   48177      33   48183   48180      34   48189   48186
      33   48192   48186      33   48192   48189      34   48198   48195      33
   48201   48195      33   48201   48198      34   48207   48204      33   48210
   48204      33   48210   48207      34   48216   48213      33   48219   48213
      33   48219   48216      34   48225   48222      33   48228   48222      33
   48228   48225      34   48234   48231      33   48237   48231      33   48237
   48234      34   48243   48240      33   48246   48240      33   48246   48243
      34   48252   48249      33   48255   48249      33   48255   48252      34
   48261   48258      33   48264   48258      33   48264   48261      34   48270
   48267      33   48273   48267      33   48273   48270      34   48279   48276
      33   48282   48276      33   48282   48279      34   48288   48285      33
   48291   48285      33   48291   48288      34   48297   48294      33   48300
   48294      33   48300   48297      34   48306   48303      33   48309   48303
      33   48309   48306      34   48315   48312      33   48318   48312      33
   48318   48315      34   48324   48321      33   48327   48321      33   48327
   48324      34   48333   48330      33   48336   48330      33   48336   48333
      34   48342   48339      33   48345   48339      33   48345   48342      34
   48351   48348      33   48354   48348      33   48354   48351      34   48360
   48357      33   48363   48357      33   48363   48360      34   48369   48366
      33   48372   48366      33   48372   48369      34   48378   48375      33
   48381   48375      33   48381   48378      34   48387   48384      33   48390
   48384      33   48390   48387      34   48396   48393      33   48399   48393
      33   48399   48396      34   48405   48402      33   48408   48402      33
   48408   48405      34   48414   48411      33   48417   48411      33   48417
   48414      34   48423   48420      33   48426   48420      33   48426   48423
      34   48432   48429      33   48435   48429      33   48435   48432      34
   48441   48438      33   48444   48438      33   48444   48441      34   48450
   48447      33   48453   48447      33   48453   48450      34   48459   48456
      33   48462   48456      33   48462   48459      34   48468   48465      33
   48471   48465      33   48471   48468      34   48477   48474      33   48480
   48474      33   48480   48477      34   48486   48483      33   48489   48483
      33   48489   48486      34   48495   48492      33   48498   48492      33
   48498   48495      34   48504   48501      33   48507   48501      33   48507
   48504      34   48513   48510      33   48516   48510      33   48516   48513
      34   48522   48519      33   48525   48519      33   48525   48522      34
   48531   48528      33   48534   48528      33   48534   48531      34   48540
   48537      33   48543   48537      33   48543   48540      34   48549   48546
      33   48552   48546      33   48552   48549      34   48558   48555      33
   48561   48555      33   48561   48558      34   48567   48564      33   48570
   48564      33   48570   48567      34   48576   48573      33   48579   48573
      33   48579   48576      34   48585   48582      33   48588   48582      33
   48588   48585      34   48594   48591      33   48597   48591      33   48597
   48594      34   48603   48600      33   48606   48600      33   48606   48603
      34   48612   48609      33   48615   48609      33   48615   48612      34
   48621   48618      33   48624   48618      33   48624   48621      34   48630
   48627      33   48633   48627      33   48633   48630      34   48639   48636
      33   48642   48636      33   48642   48639      34   48648   48645      33
   48651   48645      33   48651   48648      34   48657   48654      33   48660
   48654      33   48660   48657      34   48666   48663      33   48669   48663
      33   48669   48666      34   48675   48672      33   48678   48672      33
   48678   48675      34   48684   48681      33   48687   48681      33   48687
   48684      34   48693   48690      33   48696   48690      33   48696   48693
      34   48702   48699      33   48705   48699      33   48705   48702      34
   48711   48708      33   48714   48708      33   48714   48711      34   48720
   48717      33   48723   48717      33   48723   48720      34   48729   48726
      33   48732   48726      33   48732   48729      34   48738   48735      33
   48741   48735      33   48741   48738      34   48747   48744      33   48750
   48744      33   48750   48747      34   48756   48753      33   48759   48753
      33   48759   48756      34   48765   48762      33   48768   48762      33
   48768   48765      34   48774   48771      33   48777   48771      33   48777
   48774      34   48783   48780      33   48786   48780      33   48786   48783
      34   48792   48789      33   48795   48789      33   48795   48792      34
   48801   48798      33   48804   48798      33   48804   48801      34   48810
   48807      33   48813   48807      33   48813   48810      34   48819   48816
      33   48822   48816      33   48822   48819      34   48828   48825      33
   48831   48825      33   48831   48828      34   48837   48834      33   48840
   48834      33   48840   48837      34   48846   48843      33   48849   48843
      33   48849   48846      34   48855   48852      33   48858   48852      33
   48858   48855      34   48864   48861      33   48867   48861      33   48867
   48864      34   48873   48870      33   48876   48870      33   48876   48873
      34   48882   48879      33   48885   48879      33   48885   48882      34
   48891   48888      33   48894   48888      33   48894   48891      34   48900
   48897      33   48903   48897      33   48903   48900      34   48909   48906
      33   48912   48906      33   48912   48909      34   48918   48915      33
   48921   48915      33   48921   48918      34   48927   48924      33   48930
   48924      33   48930   48927      34   48936   48933      33   48939   48933
      33   48939   48936      34   48945   48942      33   48948   48942      33
   48948   48945      34   48954   48951      33   48957   48951      33   48957
   48954      34   48963   48960      33   48966   48960      33   48966   48963
      34   48972   48969      33   48975   48969      33   48975   48972      34
   48981   48978      33   48984   48978      33   48984   48981      34   48990
   48987      33   48993   48987      33   48993   48990      34   48999   48996
      33   49002   48996      33   49002   48999      34   49008   49005      33
   49011   49005      33   49011   49008      34   49017   49014      33   49020
   49014      33   49020   49017      34   49026   49023      33   49029   49023
      33   49029   49026      34   49035   49032      33   49038   49032      33
   49038   49035      34   49044   49041      33   49047   49041      33   49047
   49044      34   49053   49050      33   49056   49050      33   49056   49053
      34   49062   49059      33   49065   49059      33   49065   49062      34
   49071   49068      33   49074   49068      33   49074   49071      34   49080
   49077      33   49083   49077      33   49083   49080      34   49089   49086
      33   49092   49086      33   49092   49089      34   49098   49095      33
   49101   49095      33   49101   49098      34   49107   49104      33   49110
   49104      33   49110   49107      34   49116   49113      33   49119   49113
      33   49119   49116      34   49125   49122      33   49128   49122      33
   49128   49125      34   49134   49131      33   49137   49131      33   49137
   49134      34   49143   49140      33   49146   49140      33   49146   49143
      34   49152   49149      33   49155   49149      33   49155   49152      34
   49161   49158      33   49164   49158      33   49164   49161      34   49170
   49167      33   49173   49167      33   49173   49170      34   49179   49176
      33   49182   49176      33   49182   49179      34   49188   49185      33
   49191   49185      33   49191   49188      34   49197   49194      33   49200
   49194      33   49200   49197      34   49206   49203      33   49209   49203
      33   49209   49206      34   49215   49212      33   49218   49212      33
   49218   49215      34   49224   49221      33   49227   49221      33   49227
   49224      34   49233   49230      33   49236   49230      33   49236   49233
      34   49242   49239      33   49245   49239      33   49245   49242      34
   49251   49248      33   49254   49248      33   49254   49251      34   49260
   49257      33   49263   49257      33   49263   49260      34   49269   49266
      33   49272   49266      33   49272   49269      34   49278   49275      33
   49281   49275      33   49281   49278      34   49287   49284      33   49290
   49284      33   49290   49287      34   49296   49293      33   49299   49293
      33   49299   49296      34   49305   49302      33   49308   49302      33
   49308   49305      34   49314   49311      33   49317   49311      33   49317
   49314      34   49323   49320      33   49326   49320      33   49326   49323
      34   49332   49329      33   49335   49329      33   49335   49332      34
   49341   49338      33   49344   49338      33   49344   49341      34   49350
   49347      33   49353   49347      33   49353   49350      34   49359   49356
      33   49362   49356      33   49362   49359      34   49368   49365      33
   49371   49365      33   49371   49368      34   49377   49374      33   49380
   49374      33   49380   49377      34   49386   49383      33   49389   49383
      33   49389   49386      34   49395   49392      33   49398   49392      33
   49398   49395      34   49404   49401      33   49407   49401      33   49407
   49404      34   49413   49410      33   49416   49410      33   49416   49413
      34   49422   49419      33   49425   49419      33   49425   49422      34
   49431   49428      33   49434   49428      33   49434   49431      34   49440
   49437      33   49443   49437      33   49443   49440      34   49449   49446
      33   49452   49446      33   49452   49449      34   49458   49455      33
   49461   49455      33   49461   49458      34   49467   49464      33   49470
   49464      33   49470   49467      34   49476   49473      33   49479   49473
      33   49479   49476      34   49485   49482      33   49488   49482      33
   49488   49485      34   49494   49491      33   49497   49491      33   49497
   49494      34   49503   49500      33   49506   49500      33   49506   49503
      34   49512   49509      33   49515   49509      33   49515   49512      34
   49521   49518      33   49524   49518      33   49524   49521      34   49530
   49527      33   49533   49527      33   49533   49530      34   49539   49536
      33   49542   49536      33   49542   49539      34   49548   49545      33
   49551   49545      33   49551   49548      34   49557   49554      33   49560
   49554      33   49560   49557      34   49566   49563      33   49569   49563
      33   49569   49566      34   49575   49572      33   49578   49572      33
   49578   49575      34   49584   49581      33   49587   49581      33   49587
   49584      34   49593   49590      33   49596   49590      33   49596   49593
      34   49602   49599      33   49605   49599      33   49605   49602      34
   49611   49608      33   49614   49608      33   49614   49611      34   49620
   49617      33   49623   49617      33   49623   49620      34   49629   49626
      33   49632   49626      33   49632   49629      34   49638   49635      33
   49641   49635      33   49641   49638      34   49647   49644      33   49650
   49644      33   49650   49647      34   49656   49653      33   49659   49653
      33   49659   49656      34   49665   49662      33   49668   49662      33
   49668   49665      34   49674   49671      33   49677   49671      33   49677
   49674      34   49683   49680      33   49686   49680      33   49686   49683
      34   49692   49689      33   49695   49689      33   49695   49692      34
   49701   49698      33   49704   49698      33   49704   49701      34   49710
   49707      33   49713   49707      33   49713   49710      34   49719   49716
      33   49722   49716      33   49722   49719      34   49728   49725      33
   49731   49725      33   49731   49728      34   49737   49734      33   49740
   49734      33   49740   49737      34   49746   49743      33   49749   49743
      33   49749   49746      34   49755   49752      33   49758   49752      33
   49758   49755      34   49764   49761      33   49767   49761      33   49767
   49764      34   49773   49770      33   49776   49770      33   49776   49773
      34   49782   49779      33   49785   49779      33   49785   49782      34
   49791   49788      33   49794   49788      33   49794   49791      34   49800
   49797      33   49803   49797      33   49803   49800      34   49809   49806
      33   49812   49806      33   49812   49809      34   49818   49815      33
   49821   49815      33   49821   49818      34   49827   49824      33   49830
   49824      33   49830   49827      34   49836   49833      33   49839   49833
      33   49839   49836      34   49845   49842      33   49848   49842      33
   49848   49845      34   49854   49851      33   49857   49851      33   49857
   49854      34   49863   49860      33   49866   49860      33   49866   49863
      34   49872   49869      33   49875   49869      33   49875   49872      34
   49881   49878      33   49884   49878      33   49884   49881      34   49890
   49887      33   49893   49887      33   49893   49890      34   49899   49896
      33   49902   49896      33   49902   49899      34   49908   49905      33
   49911   49905      33   49911   49908      34   49917   49914      33   49920
   49914      33   49920   49917      34   49926   49923      33   49929   49923
      33   49929   49926      34   49935   49932      33   49938   49932      33
   49938   49935      34   49944   49941      33   49947   49941      33   49947
   49944      34   49953   49950      33   49956   49950      33   49956   49953
      34   49962   49959      33   49965   49959      33   49965   49962      34
   49971   49968      33   49974   49968      33   49974   49971      34   49980
   49977      33   49983   49977      33   49983   49980      34   49989   49986
      33   49992   49986      33   49992   49989      34   49998   49995      33
   50001   49995      33   50001   49998      34   50007   50004      33   50010
   50004      33   50010   50007      34   50016   50013      33   50019   50013
      33   50019   50016      34   50025   50022      33   50028   50022      33
   50028   50025      34   50034   50031      33   50037   50031      33   50037
   50034      34   50043   50040      33   50046   50040      33   50046   50043
      34   50052   50049      33   50055   50049      33   50055   50052      34
   50061   50058      33   50064   50058      33   50064   50061      34   50070
   50067      33   50073   50067      33   50073   50070      34   50079   50076
      33   50082   50076      33   50082   50079      34   50088   50085      33
   50091   50085      33   50091   50088      34   50097   50094      33   50100
   50094      33   50100   50097      34   50106   50103      33   50109   50103
      33   50109   50106      34   50115   50112      33   50118   50112      33
   50118   50115      34   50124   50121      33   50127   50121      33   50127
   50124      34   50133   50130      33   50136   50130      33   50136   50133
      34   50142   50139      33   50145   50139      33   50145   50142      34
   50151   50148      33   50154   50148      33   50154   50151      34   50160
   50157      33   50163   50157      33   50163   50160      34   50169   50166
      33   50172   50166      33   50172   50169      34   50178   50175      33
   50181   50175      33   50181   50178      34   50187   50184      33   50190
   50184      33   50190   50187      34   50196   50193      33   50199   50193
      33   50199   50196      34   50205   50202      33   50208   50202      33
   50208   50205      34   50214   50211      33   50217   50211      33   50217
   50214      34   50223   50220      33   50226   50220      33   50226   50223
      34   50232   50229      33   50235   50229      33   50235   50232      34
   50241   50238      33   50244   50238      33   50244   50241      34   50250
   50247      33   50253   50247      33   50253   50250      34   50259   50256
      33   50262   50256      33   50262   50259      34   50268   50265      33
   50271   50265      33   50271   50268      34   50277   50274      33   50280
   50274      33   50280   50277      34   50286   50283      33   50289   50283
      33   50289   50286      34   50295   50292      33   50298   50292      33
   50298   50295      34   50304   50301      33   50307   50301      33   50307
   50304      34   50313   50310      33   50316   50310      33   50316   50313
      34   50322   50319      33   50325   50319      33   50325   50322      34
   50331   50328      33   50334   50328      33   50334   50331      34   50340
   50337      33   50343   50337      33   50343   50340      34   50349   50346
      33   50352   50346      33   50352   50349      34   50358   50355      33
   50361   50355      33   50361   50358      34   50367   50364      33   50370
   50364      33   50370   50367      34   50376   50373      33   50379   50373
      33   50379   50376      34   50385   50382      33   50388   50382      33
   50388   50385      34   50394   50391      33   50397   50391      33   50397
   50394      34   50403   50400      33   50406   50400      33   50406   50403
      34   50412   50409      33   50415   50409      33   50415   50412      34
   50421   50418      33   50424   50418      33   50424   50421      34   50430
   50427      33   50433   50427      33   50433   50430      34   50439   50436
      33   50442   50436      33   50442   50439      34   50448   50445      33
   50451   50445      33   50451   50448      34   50457   50454      33   50460
   50454      33   50460   50457      34   50466   50463      33   50469   50463
      33   50469   50466      34   50475   50472      33   50478   50472      33
   50478   50475      34   50484   50481      33   50487   50481      33   50487
   50484      34   50493   50490      33   50496   50490      33   50496   50493
      34   50502   50499      33   50505   50499      33   50505   50502      34
   50511   50508      33   50514   50508      33   50514   50511      34   50520
   50517      33   50523   50517      33   50523   50520      34   50529   50526
      33   50532   50526      33   50532   50529      34   50538   50535      33
   50541   50535      33   50541   50538      34   50547   50544      33   50550
   50544      33   50550   50547      34   50556   50553      33   50559   50553
      33   50559   50556      34   50565   50562      33   50568   50562      33
   50568   50565      34   50574   50571      33   50577   50571      33   50577
   50574      34   50583   50580      33   50586   50580      33   50586   50583
      34   50592   50589      33   50595   50589      33   50595   50592      34
   50601   50598      33   50604   50598      33   50604   50601      34   50610
   50607      33   50613   50607      33   50613   50610      34   50619   50616
      33   50622   50616      33   50622   50619      34   50628   50625      33
   50631   50625      33   50631   50628      34   50637   50634      33   50640
   50634      33   50640   50637      34   50646   50643      33   50649   50643
      33   50649   50646      34   50655   50652      33   50658   50652      33
   50658   50655      34   50664   50661      33   50667   50661      33   50667
   50664      34   50673   50670      33   50676   50670      33   50676   50673
      34   50682   50679      33   50685   50679      33   50685   50682      34
   50691   50688      33   50694   50688      33   50694   50691      34   50700
   50697      33   50703   50697      33   50703   50700      34   50709   50706
      33   50712   50706      33   50712   50709      34   50718   50715      33
   50721   50715      33   50721   50718      34   50727   50724      33   50730
   50724      33   50730   50727      34   50736   50733      33   50739   50733
      33   50739   50736      34   50745   50742      33   50748   50742      33
   50748   50745      34   50754   50751      33   50757   50751      33   50757
   50754      34   50763   50760      33   50766   50760      33   50766   50763
      34   50772   50769      33   50775   50769      33   50775   50772      34
   50781   50778      33   50784   50778      33   50784   50781      34   50790
   50787      33   50793   50787      33   50793   50790      34   50799   50796
      33   50802   50796      33   50802   50799      34   50808   50805      33
   50811   50805      33   50811   50808      34   50817   50814      33   50820
   50814      33   50820   50817      34   50826   50823      33   50829   50823
      33   50829   50826      34   50835   50832      33   50838   50832      33
   50838   50835      34   50844   50841      33   50847   50841      33   50847
   50844      34   50853   50850      33   50856   50850      33   50856   50853
      34   50862   50859      33   50865   50859      33   50865   50862      34
   50871   50868      33   50874   50868      33   50874   50871      34   50880
   50877      33   50883   50877      33   50883   50880      34   50889   50886
      33   50892   50886      33   50892   50889      34   50898   50895      33
   50901   50895      33   50901   50898      34   50907   50904      33   50910
   50904      33   50910   50907      34   50916   50913      33   50919   50913
      33   50919   50916      34   50925   50922      33   50928   50922      33
   50928   50925      34   50934   50931      33   50937   50931      33   50937
   50934      34   50943   50940      33   50946   50940      33   50946   50943
      34   50952   50949      33   50955   50949      33   50955   50952      34
   50961   50958      33   50964   50958      33   50964   50961      34   50970
   50967      33   50973   50967      33   50973   50970      34   50979   50976
      33   50982   50976      33   50982   50979      34   50988   50985      33
   50991   50985      33   50991   50988      34   50997   50994      33   51000
   50994      33   51000   50997      34   51006   51003      33   51009   51003
      33   51009   51006      34   51015   51012      33   51018   51012      33
   51018   51015      34   51024   51021      33   51027   51021      33   51027
   51024      34   51033   51030      33   51036   51030      33   51036   51033
      34   51042   51039      33   51045   51039      33   51045   51042      34
   51051   51048      33   51054   51048      33   51054   51051      34   51060
   51057      33   51063   51057      33   51063   51060      34   51069   51066
      33   51072   51066      33   51072   51069      34   51078   51075      33
   51081   51075      33   51081   51078      34   51087   51084      33   51090
   51084      33   51090   51087      34   51096   51093      33   51099   51093
      33   51099   51096      34   51105   51102      33   51108   51102      33
   51108   51105      34   51114   51111      33   51117   51111      33   51117
   51114      34   51123   51120      33   51126   51120      33   51126   51123
      34   51132   51129      33   51135   51129      33   51135   51132      34
   51141   51138      33   51144   51138      33   51144   51141      34   51150
   51147      33   51153   51147      33   51153   51150      34   51159   51156
      33   51162   51156      33   51162   51159      34   51168   51165      33
   51171   51165      33   51171   51168      34   51177   51174      33   51180
   51174      33   51180   51177      34   51186   51183      33   51189   51183
      33   51189   51186      34   51195   51192      33   51198   51192      33
   51198   51195      34   51204   51201      33   51207   51201      33   51207
   51204      34   51213   51210      33   51216   51210      33   51216   51213
      34   51222   51219      33   51225   51219      33   51225   51222      34
   51231   51228      33   51234   51228      33   51234   51231      34   51240
   51237      33   51243   51237      33   51243   51240      34   51249   51246
      33   51252   51246      33   51252   51249      34   51258   51255      33
   51261   51255      33   51261   51258      34   51267   51264      33   51270
   51264      33   51270   51267      34   51276   51273      33   51279   51273
      33   51279   51276      34   51285   51282      33   51288   51282      33
   51288   51285      34   51294   51291      33   51297   51291      33   51297
   51294      34   51303   51300      33   51306   51300      33   51306   51303
      34   51312   51309      33   51315   51309      33   51315   51312      34
   51321   51318      33   51324   51318      33   51324   51321      34   51330
   51327      33   51333   51327      33   51333   51330      34   51339   51336
      33   51342   51336      33   51342   51339      34   51348   51345      33
   51351   51345      33   51351   51348      34   51357   51354      33   51360
   51354      33   51360   51357      34   51366   51363      33   51369   51363
      33   51369   51366      34   51375   51372      33   51378   51372      33
   51378   51375      34   51384   51381      33   51387   51381      33   51387
   51384      34   51393   51390      33   51396   51390      33   51396   51393
      34   51402   51399      33   51405   51399      33   51405   51402      34
   51411   51408      33   51414   51408      33   51414   51411      34   51420
   51417      33   51423   51417      33   51423   51420      34   51429   51426
      33   51432   51426      33   51432   51429      34   51438   51435      33
   51441   51435      33   51441   51438      34   51447   51444      33   51450
   51444      33   51450   51447      34   51456   51453      33   51459   51453
      33   51459   51456      34   51465   51462      33   51468   51462      33
   51468   51465      34   51474   51471      33   51477   51471      33   51477
   51474      34   51483   51480      33   51486   51480      33   51486   51483
      34   51492   51489      33   51495   51489      33   51495   51492      34
   51501   51498      33   51504   51498      33   51504   51501      34   51510
   51507      33   51513   51507      33   51513   51510      34   51519   51516
      33   51522   51516      33   51522   51519      34   51528   51525      33
   51531   51525      33   51531   51528      34   51537   51534      33   51540
   51534      33   51540   51537      34   51546   51543      33   51549   51543
      33   51549   51546      34   51555   51552      33   51558   51552      33
   51558   51555      34   51564   51561      33   51567   51561      33   51567
   51564      34   51573   51570      33   51576   51570      33   51576   51573
      34   51582   51579      33   51585   51579      33   51585   51582      34
   51591   51588      33   51594   51588      33   51594   51591      34   51600
   51597      33   51603   51597      33   51603   51600      34   51609   51606
      33   51612   51606      33   51612   51609      34   51618   51615      33
   51621   51615      33   51621   51618      34   51627   51624      33   51630
   51624      33   51630   51627      34   51636   51633      33   51639   51633
      33   51639   51636      34   51645   51642      33   51648   51642      33
   51648   51645      34   51654   51651      33   51657   51651      33   51657
   51654      34   51663   51660      33   51666   51660      33   51666   51663
      34   51672   51669      33   51675   51669      33   51675   51672      34
   51681   51678      33   51684   51678      33   51684   51681      34   51690
   51687      33   51693   51687      33   51693   51690      34   51699   51696
      33   51702   51696      33   51702   51699      34   51708   51705      33
   51711   51705      33   51711   51708      34   51717   51714      33   51720
   51714      33   51720   51717      34   51726   51723      33   51729   51723
      33   51729   51726      34   51735   51732      33   51738   51732      33
   51738   51735      34   51744   51741      33   51747   51741      33   51747
   51744      34   51753   51750      33   51756   51750      33   51756   51753
      34   51762   51759      33   51765   51759      33   51765   51762      34
   51771   51768      33   51774   51768      33   51774   51771      34   51780
   51777      33   51783   51777      33   51783   51780      34   51789   51786
      33   51792   51786      33   51792   51789      34   51798   51795      33
   51801   51795      33   51801   51798      34   51807   51804      33   51810
   51804      33   51810   51807      34   51816   51813      33   51819   51813
      33   51819   51816      34   51825   51822      33   51828   51822      33
   51828   51825      34   51834   51831      33   51837   51831      33   51837
   51834      34   51843   51840      33   51846   51840      33   51846   51843
      34   51852   51849      33   51855   51849      33   51855   51852      34
   51861   51858      33   51864   51858      33   51864   51861      34   51870
   51867      33   51873   51867      33   51873   51870      34   51879   51876
      33   51882   51876      33   51882   51879      34   51888   51885      33
   51891   51885      33   51891   51888      34   51897   51894      33   51900
   51894      33   51900   51897      34   51906   51903      33   51909   51903
      33   51909   51906      34   51915   51912      33   51918   51912      33
   51918   51915      34   51924   51921      33   51927   51921      33   51927
   51924      34   51933   51930      33   51936   51930      33   51936   51933
      34   51942   51939      33   51945   51939      33   51945   51942      34
   51951   51948      33   51954   51948      33   51954   51951      34   51960
   51957      33   51963   51957      33   51963   51960      34   51969   51966
      33   51972   51966      33   51972   51969      34   51978   51975      33
   51981   51975      33   51981   51978      34   51987   51984      33   51990
   51984      33   51990   51987      34   51996   51993      33   51999   51993
      33   51999   51996      34   52005   52002      33   52008   52002      33
   52008   52005      34   52014   52011      33   52017   52011      33   52017
   52014      34   52023   52020      33   52026   52020      33   52026   52023
      34   52032   52029      33   52035   52029      33   52035   52032      34
   52041   52038      33   52044   52038      33   52044   52041      34   52050
   52047      33   52053   52047      33   52053   52050      34   52059   52056
      33   52062   52056      33   52062   52059      34   52068   52065      33
   52071   52065      33   52071   52068      34   52077   52074      33   52080
   52074      33   52080   52077      34   52086   52083      33   52089   52083
      33   52089   52086      34   52095   52092      33   52098   52092      33
   52098   52095      34   52104   52101      33   52107   52101      33   52107
   52104      34   52113   52110      33   52116   52110      33   52116   52113
      34   52122   52119      33   52125   52119      33   52125   52122      34
   52131   52128      33   52134   52128      33   52134   52131      34   52140
   52137      33   52143   52137      33   52143   52140      34   52149   52146
      33   52152   52146      33   52152   52149      34   52158   52155      33
   52161   52155      33   52161   52158      34   52167   52164      33   52170
   52164      33   52170   52167      34   52176   52173      33   52179   52173
      33   52179   52176      34   52185   52182      33   52188   52182      33
   52188   52185      34   52194   52191      33   52197   52191      33   52197
   52194      34   52203   52200      33   52206   52200      33   52206   52203
      34   52212   52209      33   52215   52209      33   52215   52212      34
   52221   52218      33   52224   52218      33   52224   52221      34   52230
   52227      33   52233   52227      33   52233   52230      34   52239   52236
      33   52242   52236      33   52242   52239      34   52248   52245      33
   52251   52245      33   52251   52248      34   52257   52254      33   52260
   52254      33   52260   52257      34   52266   52263      33   52269   52263
      33   52269   52266      34   52275   52272      33   52278   52272      33
   52278   52275      34   52284   52281      33   52287   52281      33   52287
   52284      34   52293   52290      33   52296   52290      33   52296   52293
      34   52302   52299      33   52305   52299      33   52305   52302      34
   52311   52308      33   52314   52308      33   52314   52311      34   52320
   52317      33   52323   52317      33   52323   52320      34   52329   52326
      33   52332   52326      33   52332   52329      34   52338   52335      33
   52341   52335      33   52341   52338      34   52347   52344      33   52350
   52344      33   52350   52347      34   52356   52353      33   52359   52353
      33   52359   52356      34   52365   52362      33   52368   52362      33
   52368   52365      34   52374   52371      33   52377   52371      33   52377
   52374      34   52383   52380      33   52386   52380      33   52386   52383
      34   52392   52389      33   52395   52389      33   52395   52392      34
   52401   52398      33   52404   52398      33   52404   52401      34   52410
   52407      33   52413   52407      33   52413   52410      34   52419   52416
      33   52422   52416      33   52422   52419      34   52428   52425      33
   52431   52425      33   52431   52428      34   52437   52434      33   52440
   52434      33   52440   52437      34   52446   52443      33   52449   52443
      33   52449   52446      34   52455   52452      33   52458   52452      33
   52458   52455      34   52464   52461      33   52467   52461      33   52467
   52464      34   52473   52470      33   52476   52470      33   52476   52473
      34   52482   52479      33   52485   52479      33   52485   52482      34
   52491   52488      33   52494   52488      33   52494   52491      34   52500
   52497      33   52503   52497      33   52503   52500      34   52509   52506
      33   52512   52506      33   52512   52509      34   52518   52515      33
   52521   52515      33   52521   52518      34   52527   52524      33   52530
   52524      33   52530   52527      34   52536   52533      33   52539   52533
      33   52539   52536      34   52545   52542      33   52548   52542      33
   52548   52545      34   52554   52551      33   52557   52551      33   52557
   52554      34   52563   52560      33   52566   52560      33   52566   52563
      34   52572   52569      33   52575   52569      33   52575   52572      34
   52581   52578      33   52584   52578      33   52584   52581      34   52590
   52587      33   52593   52587      33   52593   52590      34   52599   52596
      33   52602   52596      33   52602   52599      34   52608   52605      33
   52611   52605      33   52611   52608      34   52617   52614      33   52620
   52614      33   52620   52617      34   52626   52623      33   52629   52623
      33   52629   52626      34   52635   52632      33   52638   52632      33
   52638   52635      34   52644   52641      33   52647   52641      33   52647
   52644      34   52653   52650      33   52656   52650      33   52656   52653
      34   52662   52659      33   52665   52659      33   52665   52662      34
   52671   52668      33   52674   52668      33   52674   52671      34   52680
   52677      33   52683   52677      33   52683   52680      34   52689   52686
      33   52692   52686      33   52692   52689      34   52698   52695      33
   52701   52695      33   52701   52698      34   52707   52704      33   52710
   52704      33   52710   52707      34   52716   52713      33   52719   52713
      33   52719   52716      34   52725   52722      33   52728   52722      33
   52728   52725      34   52734   52731      33   52737   52731      33   52737
   52734      34   52743   52740      33   52746   52740      33   52746   52743
      34   52752   52749      33   52755   52749      33   52755   52752      34
   52761   52758      33   52764   52758      33   52764   52761      34   52770
   52767      33   52773   52767      33   52773   52770      34   52779   52776
      33   52782   52776      33   52782   52779      34   52788   52785      33
   52791   52785      33   52791   52788      34   52797   52794      33   52800
   52794      33   52800   52797      34   52806   52803      33   52809   52803
      33   52809   52806      34   52815   52812      33   52818   52812      33
   52818   52815      34   52824   52821      33   52827   52821      33   52827
   52824      34   52833   52830      33   52836   52830      33   52836   52833
      34   52842   52839      33   52845   52839      33   52845   52842      34
   52851   52848      33   52854   52848      33   52854   52851      34   52860
   52857      33   52863   52857      33   52863   52860      34   52869   52866
      33   52872   52866      33   52872   52869      34   52878   52875      33
   52881   52875      33   52881   52878      34   52887   52884      33   52890
   52884      33   52890   52887      34   52896   52893      33   52899   52893
      33   52899   52896      34   52905   52902      33   52908   52902      33
   52908   52905      34   52914   52911      33   52917   52911      33   52917
   52914      34   52923   52920      33   52926   52920      33   52926   52923
      34   52932   52929      33   52935   52929      33   52935   52932      34
   52941   52938      33   52944   52938      33   52944   52941      34   52950
   52947      33   52953   52947      33   52953   52950      34   52959   52956
      33   52962   52956      33   52962   52959      34   52968   52965      33
   52971   52965      33   52971   52968      34   52977   52974      33   52980
   52974      33   52980   52977      34   52986   52983      33   52989   52983
      33   52989   52986      34   52995   52992      33   52998   52992      33
   52998   52995      34   53004   53001      33   53007   53001      33   53007
   53004      34   53013   53010      33   53016   53010      33   53016   53013
      34   53022   53019      33   53025   53019      33   53025   53022      34
   53031   53028      33   53034   53028      33   53034   53031      34   53040
   53037      33   53043   53037      33   53043   53040      34   53049   53046
      33   53052   53046      33   53052   53049      34   53058   53055      33
   53061   53055      33   53061   53058      34   53067   53064      33   53070
   53064      33   53070   53067      34   53076   53073      33   53079   53073
      33   53079   53076      34   53085   53082      33   53088   53082      33
   53088   53085      34   53094   53091      33   53097   53091      33   53097
   53094      34   53103   53100      33   53106   53100      33   53106   53103
      34   53112   53109      33   53115   53109      33   53115   53112      34
   53121   53118      33   53124   53118      33   53124   53121      34   53130
   53127      33   53133   53127      33   53133   53130      34   53139   53136
      33   53142   53136      33   53142   53139      34   53148   53145      33
   53151   53145      33   53151   53148      34   53157   53154      33   53160
   53154      33   53160   53157      34   53166   53163      33   53169   53163
      33   53169   53166      34   53175   53172      33   53178   53172      33
   53178   53175      34   53184   53181      33   53187   53181      33   53187
   53184      34   53193   53190      33   53196   53190      33   53196   53193
      34   53202   53199      33   53205   53199      33   53205   53202      34
   53211   53208      33   53214   53208      33   53214   53211      34   53220
   53217      33   53223   53217      33   53223   53220      34   53229   53226
      33   53232   53226      33   53232   53229      34   53238   53235      33
   53241   53235      33   53241   53238      34   53247   53244      33   53250
   53244      33   53250   53247      34   53256   53253      33   53259   53253
      33   53259   53256      34   53265   53262      33   53268   53262      33
   53268   53265      34   53274   53271      33   53277   53271      33   53277
   53274      34   53283   53280      33   53286   53280      33   53286   53283
      34   53292   53289      33   53295   53289      33   53295   53292      34
   53301   53298      33   53304   53298      33   53304   53301      34   53310
   53307      33   53313   53307      33   53313   53310      34   53319   53316
      33   53322   53316      33   53322   53319      34   53328   53325      33
   53331   53325      33   53331   53328      34   53337   53334      33   53340
   53334      33   53340   53337      34   53346   53343      33   53349   53343
      33   53349   53346      34   53355   53352      33   53358   53352      33
   53358   53355      34   53364   53361      33   53367   53361      33   53367
   53364      34   53373   53370      33   53376   53370      33   53376   53373
      34   53382   53379      33   53385   53379      33   53385   53382      34
   53391   53388      33   53394   53388      33   53394   53391      34   53400
   53397      33   53403   53397      33   53403   53400      34   53409   53406
      33   53412   53406      33   53412   53409      34   53418   53415      33
   53421   53415      33   53421   53418      34   53427   53424      33   53430
   53424      33   53430   53427      34   53436   53433      33   53439   53433
      33   53439   53436      34   53445   53442      33   53448   53442      33
   53448   53445      34   53454   53451      33   53457   53451      33   53457
   53454      34   53463   53460      33   53466   53460      33   53466   53463
      34   53472   53469      33   53475   53469      33   53475   53472      34
   53481   53478      33   53484   53478      33   53484   53481      34   53490
   53487      33   53493   53487      33   53493   53490      34   53499   53496
      33   53502   53496      33   53502   53499      34   53508   53505      33
   53511   53505      33   53511   53508      34   53517   53514      33   53520
   53514      33   53520   53517      34   53526   53523      33   53529   53523
      33   53529   53526      34   53535   53532      33   53538   53532      33
   53538   53535      34   53544   53541      33   53547   53541      33   53547
   53544      34   53553   53550      33   53556   53550      33   53556   53553
      34   53562   53559      33   53565   53559      33   53565   53562      34
   53571   53568      33   53574   53568      33   53574   53571      34   53580
   53577      33   53583   53577      33   53583   53580      34   53589   53586
      33   53592   53586      33   53592   53589      34   53598   53595      33
   53601   53595      33   53601   53598      34   53607   53604      33   53610
   53604      33   53610   53607      34   53616   53613      33   53619   53613
      33   53619   53616      34   53625   53622      33   53628   53622      33
   53628   53625      34   53634   53631      33   53637   53631      33   53637
   53634      34   53643   53640      33   53646   53640      33   53646   53643
      34   53652   53649      33   53655   53649      33   53655   53652      34
   53661   53658      33   53664   53658      33   53664   53661      34   53670
   53667      33   53673   53667      33   53673   53670      34   53679   53676
      33   53682   53676      33   53682   53679      34   53688   53685      33
   53691   53685      33   53691   53688      34   53697   53694      33   53700
   53694      33   53700   53697      34   53706   53703      33   53709   53703
      33   53709   53706      34   53715   53712      33   53718   53712      33
   53718   53715      34   53724   53721      33   53727   53721      33   53727
   53724      34   53733   53730      33   53736   53730      33   53736   53733
      34   53742   53739      33   53745   53739      33   53745   53742      34
   53751   53748      33   53754   53748      33   53754   53751      34   53760
   53757      33   53763   53757      33   53763   53760      34   53769   53766
      33   53772   53766      33   53772   53769      34   53778   53775      33
   53781   53775      33   53781   53778      34   53787   53784      33   53790
   53784      33   53790   53787      34   53796   53793      33   53799   53793
      33   53799   53796      34   53805   53802      33   53808   53802      33
   53808   53805      34   53814   53811      33   53817   53811      33   53817
   53814      34   53823   53820      33   53826   53820      33   53826   53823
      34   53832   53829      33   53835   53829      33   53835   53832      34
   53841   53838      33   53844   53838      33   53844   53841      34   53850
   53847      33   53853   53847      33   53853   53850      34   53859   53856
      33   53862   53856      33   53862   53859      34   53868   53865      33
   53871   53865      33   53871   53868      34   53877   53874      33   53880
   53874      33   53880   53877      34   53886   53883      33   53889   53883
      33   53889   53886      34   53895   53892      33   53898   53892      33
   53898   53895      34   53904   53901      33   53907   53901      33   53907
   53904      34   53913   53910      33   53916   53910      33   53916   53913
      34   53922   53919      33   53925   53919      33   53925   53922      34
   53931   53928      33   53934   53928      33   53934   53931      34   53940
   53937      33   53943   53937      33   53943   53940      34   53949   53946
      33   53952   53946      33   53952   53949      34   53958   53955      33
   53961   53955      33   53961   53958      34   53967   53964      33   53970
   53964      33   53970   53967      34   53976   53973      33   53979   53973
      33   53979   53976      34   53985   53982      33   53988   53982      33
   53988   53985      34   53994   53991      33   53997   53991      33   53997
   53994      34   54003   54000      33   54006   54000      33   54006   54003
      34   54012   54009      33   54015   54009      33   54015   54012      34
   54021   54018      33   54024   54018      33   54024   54021      34   54030
   54027      33   54033   54027      33   54033   54030      34   54039   54036
      33   54042   54036      33   54042   54039      34   54048   54045      33
   54051   54045      33   54051   54048      34   54057   54054      33   54060
   54054      33   54060   54057      34   54066   54063      33   54069   54063
      33   54069   54066      34   54075   54072      33   54078   54072      33
   54078   54075      34   54084   54081      33   54087   54081      33   54087
   54084      34   54093   54090      33   54096   54090      33   54096   54093
      34   54102   54099      33   54105   54099      33   54105   54102      34
   54111   54108      33   54114   54108      33   54114   54111      34   54120
   54117      33   54123   54117      33   54123   54120      34   54129   54126
      33   54132   54126      33   54132   54129      34   54138   54135      33
   54141   54135      33   54141   54138      34   54147   54144      33   54150
   54144      33   54150   54147      34   54156   54153      33   54159   54153
      33   54159   54156      34   54165   54162      33   54168   54162      33
   54168   54165      34   54174   54171      33   54177   54171      33   54177
   54174      34   54183   54180      33   54186   54180      33   54186   54183
      34   54192   54189      33   54195   54189      33   54195   54192      34
   54201   54198      33   54204   54198      33   54204   54201      34   54210
   54207      33   54213   54207      33   54213   54210      34   54219   54216
      33   54222   54216      33   54222   54219      34   54228   54225      33
   54231   54225      33   54231   54228      34   54237   54234      33   54240
   54234      33   54240   54237      34   54246   54243      33   54249   54243
      33   54249   54246      34   54255   54252      33   54258   54252      33
   54258   54255      34   54264   54261      33   54267   54261      33   54267
   54264      34   54273   54270      33   54276   54270      33   54276   54273
      34   54282   54279      33   54285   54279      33   54285   54282      34
   54291   54288      33   54294   54288      33   54294   54291      34   54300
   54297      33   54303   54297      33   54303   54300      34   54309   54306
      33   54312   54306      33   54312   54309      34   54318   54315      33
   54321   54315      33   54321   54318      34   54327   54324      33   54330
   54324      33   54330   54327      34   54336   54333      33   54339   54333
      33   54339   54336      34   54345   54342      33   54348   54342      33
   54348   54345      34   54354   54351      33   54357   54351      33   54357
   54354      34   54363   54360      33   54366   54360      33   54366   54363
      34   54372   54369      33   54375   54369      33   54375   54372      34
   54381   54378      33   54384   54378      33   54384   54381      34   54390
   54387      33   54393   54387      33   54393   54390      34   54399   54396
      33   54402   54396      33   54402   54399      34   54408   54405      33
   54411   54405      33   54411   54408      34   54417   54414      33   54420
   54414      33   54420   54417      34   54426   54423      33   54429   54423
      33   54429   54426      34   54435   54432      33   54438   54432      33
   54438   54435      34   54444   54441      33   54447   54441      33   54447
   54444      34   54453   54450      33   54456   54450      33   54456   54453
      34   54462   54459      33   54465   54459      33   54465   54462      34
   54471   54468      33   54474   54468      33   54474   54471      34   54480
   54477      33   54483   54477      33   54483   54480      34   54489   54486
      33   54492   54486      33   54492   54489      34   54498   54495      33
   54501   54495      33   54501   54498      34   54507   54504      33   54510
   54504      33   54510   54507      34   54516   54513      33   54519   54513
      33   54519   54516      34   54525   54522      33   54528   54522      33
   54528   54525      34   54534   54531      33   54537   54531      33   54537
   54534      34   54543   54540      33   54546   54540      33   54546   54543
      34   54552   54549      33   54555   54549      33   54555   54552      34
   54561   54558      33   54564   54558      33   54564   54561      34   54570
   54567      33   54573   54567      33   54573   54570      34   54579   54576
      33   54582   54576      33   54582   54579      34   54588   54585      33
   54591   54585      33   54591   54588      34   54597   54594      33   54600
   54594      33   54600   54597      34   54606   54603      33   54609   54603
      33   54609   54606      34   54615   54612      33   54618   54612      33
   54618   54615      34   54624   54621      33   54627   54621      33   54627
   54624      34   54633   54630      33   54636   54630      33   54636   54633
      34   54642   54639      33   54645   54639      33   54645   54642      34
   54651   54648      33   54654   54648      33   54654   54651      34   54660
   54657      33   54663   54657      33   54663   54660      34   54669   54666
      33   54672   54666      33   54672   54669      34   54678   54675      33
   54681   54675      33   54681   54678      34   54687   54684      33   54690
   54684      33   54690   54687      34   54696   54693      33   54699   54693
      33   54699   54696      34   54705   54702      33   54708   54702      33
   54708   54705      34   54714   54711      33   54717   54711      33   54717
   54714      34   54723   54720      33   54726   54720      33   54726   54723
      34   54732   54729      33   54735   54729      33   54735   54732      34
   54741   54738      33   54744   54738      33   54744   54741      34   54750
   54747      33   54753   54747      33   54753   54750      34   54759   54756
      33   54762   54756      33   54762   54759      34   54768   54765      33
   54771   54765      33   54771   54768      34   54777   54774      33   54780
   54774      33   54780   54777      34   54786   54783      33   54789   54783
      33   54789   54786      34   54795   54792      33   54798   54792      33
   54798   54795      34   54804   54801      33   54807   54801      33   54807
   54804      34   54813   54810      33   54816   54810      33   54816   54813
      34   54822   54819      33   54825   54819      33   54825   54822      34
   54831   54828      33   54834   54828      33   54834   54831      34   54840
   54837      33   54843   54837      33   54843   54840      34   54849   54846
      33   54852   54846      33   54852   54849      34   54858   54855      33
   54861   54855      33   54861   54858      34   54867   54864      33   54870
   54864      33   54870   54867      34   54876   54873      33   54879   54873
      33   54879   54876      34   54885   54882      33   54888   54882      33
   54888   54885      34   54894   54891      33   54897   54891      33   54897
   54894      34   54903   54900      33   54906   54900      33   54906   54903
      34   54912   54909      33   54915   54909      33   54915   54912      34
   54921   54918      33   54924   54918      33   54924   54921      34   54930
   54927      33   54933   54927      33   54933   54930      34   54939   54936
      33   54942   54936      33   54942   54939      34   54948   54945      33
   54951   54945      33   54951   54948      34   54957   54954      33   54960
   54954      33   54960   54957      34   54966   54963      33   54969   54963
      33   54969   54966      34   54975   54972      33   54978   54972      33
   54978   54975      34   54984   54981      33   54987   54981      33   54987
   54984      34   54993   54990      33   54996   54990      33   54996   54993
      34   55002   54999      33   55005   54999      33   55005   55002      34
   55011   55008      33   55014   55008      33   55014   55011      34   55020
   55017      33   55023   55017      33   55023   55020      34   55029   55026
      33   55032   55026      33   55032   55029      34   55038   55035      33
   55041   55035      33   55041   55038      34   55047   55044      33   55050
   55044      33   55050   55047      34   55056   55053      33   55059   55053
      33   55059   55056      34   55065   55062      33   55068   55062      33
   55068   55065      34   55074   55071      33   55077   55071      33   55077
   55074      34   55083   55080      33   55086   55080      33   55086   55083
      34   55092   55089      33   55095   55089      33   55095   55092      34
   55101   55098      33   55104   55098      33   55104   55101      34   55110
   55107      33   55113   55107      33   55113   55110      34   55119   55116
      33   55122   55116      33   55122   55119      34   55128   55125      33
   55131   55125      33   55131   55128      34   55137   55134      33   55140
   55134      33   55140   55137      34   55146   55143      33   55149   55143
      33   55149   55146      34   55155   55152      33   55158   55152      33
   55158   55155      34   55164   55161      33   55167   55161      33   55167
   55164      34   55173   55170      33   55176   55170      33   55176   55173
      34   55182   55179      33   55185   55179      33   55185   55182      34
   55191   55188      33   55194   55188      33   55194   55191      34   55200
   55197      33   55203   55197      33   55203   55200      34   55209   55206
      33   55212   55206      33   55212   55209      34   55218   55215      33
   55221   55215      33   55221   55218      34   55227   55224      33   55230
   55224      33   55230   55227      34   55236   55233      33   55239   55233
      33   55239   55236      34   55245   55242      33   55248   55242      33
   55248   55245      34   55254   55251      33   55257   55251      33   55257
   55254      34   55263   55260      33   55266   55260      33   55266   55263
      34   55272   55269      33   55275   55269      33   55275   55272      34
   55281   55278      33   55284   55278      33   55284   55281      34   55290
   55287      33   55293   55287      33   55293   55290      34   55299   55296
      33   55302   55296      33   55302   55299      34   55308   55305      33
   55311   55305      33   55311   55308      34   55317   55314      33   55320
   55314      33   55320   55317      34   55326   55323      33   55329   55323
      33   55329   55326      34   55335   55332      33   55338   55332      33
   55338   55335      34   55344   55341      33   55347   55341      33   55347
   55344      34   55353   55350      33   55356   55350      33   55356   55353
      34   55362   55359      33   55365   55359      33   55365   55362      34
   55371   55368      33   55374   55368      33   55374   55371      34   55380
   55377      33   55383   55377      33   55383   55380      34   55389   55386
      33   55392   55386      33   55392   55389      34   55398   55395      33
   55401   55395      33   55401   55398      34   55407   55404      33   55410
   55404      33   55410   55407      34   55416   55413      33   55419   55413
      33   55419   55416      34   55425   55422      33   55428   55422      33
   55428   55425      34   55434   55431      33   55437   55431      33   55437
   55434      34   55443   55440      33   55446   55440      33   55446   55443
      34   55452   55449      33   55455   55449      33   55455   55452      34
   55461   55458      33   55464   55458      33   55464   55461      34   55470
   55467      33   55473   55467      33   55473   55470      34   55479   55476
      33   55482   55476      33   55482   55479      34   55488   55485      33
   55491   55485      33   55491   55488      34   55497   55494      33   55500
   55494      33   55500   55497      34   55506   55503      33   55509   55503
      33   55509   55506      34   55515   55512      33   55518   55512      33
   55518   55515      34   55524   55521      33   55527   55521      33   55527
   55524      34   55533   55530      33   55536   55530      33   55536   55533
      34   55542   55539      33   55545   55539      33   55545   55542      34
   55551   55548      33   55554   55548      33   55554   55551      34   55560
   55557      33   55563   55557      33   55563   55560      34   55569   55566
      33   55572   55566      33   55572   55569      34   55578   55575      33
   55581   55575      33   55581   55578      34   55587   55584      33   55590
   55584      33   55590   55587      34   55596   55593      33   55599   55593
      33   55599   55596      34   55605   55602      33   55608   55602      33
   55608   55605      34   55614   55611      33   55617   55611      33   55617
   55614      34   55623   55620      33   55626   55620      33   55626   55623
      34   55632   55629      33   55635   55629      33   55635   55632      34
   55641   55638      33   55644   55638      33   55644   55641      34   55650
   55647      33   55653   55647      33   55653   55650      34   55659   55656
      33   55662   55656      33   55662   55659      34   55668   55665      33
   55671   55665      33   55671   55668      34   55677   55674      33   55680
   55674      33   55680   55677      34   55686   55683      33   55689   55683
      33   55689   55686      34   55695   55692      33   55698   55692      33
   55698   55695      34   55704   55701      33   55707   55701      33   55707
   55704      34   55713   55710      33   55716   55710      33   55716   55713
      34   55722   55719      33   55725   55719      33   55725   55722      34
   55731   55728      33   55734   55728      33   55734   55731      34   55740
   55737      33   55743   55737      33   55743   55740      34   55749   55746
      33   55752   55746      33   55752   55749      34   55758   55755      33
   55761   55755      33   55761   55758      34   55767   55764      33   55770
   55764      33   55770   55767      34   55776   55773      33   55779   55773
      33   55779   55776      34   55785   55782      33   55788   55782      33
   55788   55785      34   55794   55791      33   55797   55791      33   55797
   55794      34   55803   55800      33   55806   55800      33   55806   55803
      34   55812   55809      33   55815   55809      33   55815   55812      34
   55821   55818      33   55824   55818      33   55824   55821      34   55830
   55827      33   55833   55827      33   55833   55830      34   55839   55836
      33   55842   55836      33   55842   55839      34   55848   55845      33
   55851   55845      33   55851   55848      34   55857   55854      33   55860
   55854      33   55860   55857      34   55866   55863      33   55869   55863
      33   55869   55866      34   55875   55872      33   55878   55872      33
   55878   55875      34   55884   55881      33   55887   55881      33   55887
   55884      34   55893   55890      33   55896   55890      33   55896   55893
      34   55902   55899      33   55905   55899      33   55905   55902      34
   55911   55908      33   55914   55908      33   55914   55911      34   55920
   55917      33   55923   55917      33   55923   55920      34   55929   55926
      33   55932   55926      33   55932   55929      34   55938   55935      33
   55941   55935      33   55941   55938      34   55947   55944      33   55950
   55944      33   55950   55947      34   55956   55953      33   55959   55953
      33   55959   55956      34   55965   55962      33   55968   55962      33
   55968   55965      34   55974   55971      33   55977   55971      33   55977
   55974      34   55983   55980      33   55986   55980      33   55986   55983
      34   55992   55989      33   55995   55989      33   55995   55992      34
   56001   55998      33   56004   55998      33   56004   56001      34   56010
   56007      33   56013   56007      33   56013   56010      34   56019   56016
      33   56022   56016      33   56022   56019      34   56028   56025      33
   56031   56025      33   56031   56028      34   56037   56034      33   56040
   56034      33   56040   56037      34   56046   56043      33   56049   56043
      33   56049   56046      34   56055   56052      33   56058   56052      33
   56058   56055      34   56064   56061      33   56067   56061      33   56067
   56064      34   56073   56070      33   56076   56070      33   56076   56073
      34   56082   56079      33   56085   56079      33   56085   56082      34
   56091   56088      33   56094   56088      33   56094   56091      34   56100
   56097      33   56103   56097      33   56103   56100      34   56109   56106
      33   56112   56106      33   56112   56109      34   56118   56115      33
   56121   56115      33   56121   56118      34   56127   56124      33   56130
   56124      33   56130   56127      34   56136   56133      33   56139   56133
      33   56139   56136      34   56145   56142      33   56148   56142      33
   56148   56145      34   56154   56151      33   56157   56151      33   56157
   56154      34   56163   56160      33   56166   56160      33   56166   56163
      34   56172   56169      33   56175   56169      33   56175   56172      34
   56181   56178      33   56184   56178      33   56184   56181      34   56190
   56187      33   56193   56187      33   56193   56190      34   56199   56196
      33   56202   56196      33   56202   56199      34   56208   56205      33
   56211   56205      33   56211   56208      34   56217   56214      33   56220
   56214      33   56220   56217      34   56226   56223      33   56229   56223
      33   56229   56226      34   56235   56232      33   56238   56232      33
   56238   56235      34   56244   56241      33   56247   56241      33   56247
   56244      34   56253   56250      33   56256   56250      33   56256   56253
      34   56262   56259      33   56265   56259      33   56265   56262      34
   56271   56268      33   56274   56268      33   56274   56271      34   56280
   56277      33   56283   56277      33   56283   56280      34   56289   56286
      33   56292   56286      33   56292   56289      34   56298   56295      33
   56301   56295      33   56301   56298      34   56307   56304      33   56310
   56304      33   56310   56307      34   56316   56313      33   56319   56313
      33   56319   56316      34   56325   56322      33   56328   56322      33
   56328   56325      34   56334   56331      33   56337   56331      33   56337
   56334      34   56343   56340      33   56346   56340      33   56346   56343
      34   56352   56349      33   56355   56349      33   56355   56352      34
   56361   56358      33   56364   56358      33   56364   56361      34   56370
   56367      33   56373   56367      33   56373   56370      34   56379   56376
      33   56382   56376      33   56382   56379      34   56388   56385      33
   56391   56385      33   56391   56388      34   56397   56394      33   56400
   56394      33   56400   56397      34   56406   56403      33   56409   56403
      33   56409   56406      34   56415   56412      33   56418   56412      33
   56418   56415      34   56424   56421      33   56427   56421      33   56427
   56424      34   56433   56430      33   56436   56430      33   56436   56433
      34   56442   56439      33   56445   56439      33   56445   56442      34
   56451   56448      33   56454   56448      33   56454   56451      34   56460
   56457      33   56463   56457      33   56463   56460      34   56469   56466
      33   56472   56466      33   56472   56469      34   56478   56475      33
   56481   56475      33   56481   56478      34   56487   56484      33   56490
   56484      33   56490   56487      34   56496   56493      33   56499   56493
      33   56499   56496      34   56505   56502      33   56508   56502      33
   56508   56505      34   56514   56511      33   56517   56511      33   56517
   56514      34   56523   56520      33   56526   56520      33   56526   56523
      34   56532   56529      33   56535   56529      33   56535   56532      34
   56541   56538      33   56544   56538      33   56544   56541      34   56550
   56547      33   56553   56547      33   56553   56550      34   56559   56556
      33   56562   56556      33   56562   56559      34   56568   56565      33
   56571   56565      33   56571   56568      34   56577   56574      33   56580
   56574      33   56580   56577      34   56586   56583      33   56589   56583
      33   56589   56586      34   56595   56592      33   56598   56592      33
   56598   56595      34   56604   56601      33   56607   56601      33   56607
   56604      34   56613   56610      33   56616   56610      33   56616   56613
      34   56622   56619      33   56625   56619      33   56625   56622      34
   56631   56628      33   56634   56628      33   56634   56631      34   56640
   56637      33   56643   56637      33   56643   56640      34   56649   56646
      33   56652   56646      33   56652   56649      34   56658   56655      33
   56661   56655      33   56661   56658      34   56667   56664      33   56670
   56664      33   56670   56667      34   56676   56673      33   56679   56673
      33   56679   56676      34   56685   56682      33   56688   56682      33
   56688   56685      34   56694   56691      33   56697   56691      33   56697
   56694      34   56703   56700      33   56706   56700      33   56706   56703
      34   56712   56709      33   56715   56709      33   56715   56712      34
   56721   56718      33   56724   56718      33   56724   56721      34   56730
   56727      33   56733   56727      33   56733   56730      34   56739   56736
      33   56742   56736      33   56742   56739      34   56748   56745      33
   56751   56745      33   56751   56748      34   56757   56754      33   56760
   56754      33   56760   56757      34   56766   56763      33   56769   56763
      33   56769   56766      34   56775   56772      33   56778   56772      33
   56778   56775      34   56784   56781      33   56787   56781      33   56787
   56784      34   56793   56790      33   56796   56790      33   56796   56793
      34   56802   56799      33   56805   56799      33   56805   56802      34
   56811   56808      33   56814   56808      33   56814   56811      34   56820
   56817      33   56823   56817      33   56823   56820      34   56829   56826
      33   56832   56826      33   56832   56829      34   56838   56835      33
   56841   56835      33   56841   56838      34   56847   56844      33   56850
   56844      33   56850   56847      34   56856   56853      33   56859   56853
      33   56859   56856      34   56865   56862      33   56868   56862      33
   56868   56865      34   56874   56871      33   56877   56871      33   56877
   56874      34   56883   56880      33   56886   56880      33   56886   56883
      34   56892   56889      33   56895   56889      33   56895   56892      34
   56901   56898      33   56904   56898      33   56904   56901      34   56910
   56907      33   56913   56907      33   56913   56910      34   56919   56916
      33   56922   56916      33   56922   56919      34   56928   56925      33
   56931   56925      33   56931   56928      34   56937   56934      33   56940
   56934      33   56940   56937      34   56946   56943      33   56949   56943
      33   56949   56946      34   56955   56952      33   56958   56952      33
   56958   56955      34   56964   56961      33   56967   56961      33   56967
   56964      34   56973   56970      33   56976   56970      33   56976   56973
      34   56982   56979      33   56985   56979      33   56985   56982      34
   56991   56988      33   56994   56988      33   56994   56991      34   57000
   56997      33   57003   56997      33   57003   57000      34   57009   57006
      33   57012   57006      33   57012   57009      34   57018   57015      33
   57021   57015      33   57021   57018      34   57027   57024      33   57030
   57024      33   57030   57027      34   57036   57033      33   57039   57033
      33   57039   57036      34   57045   57042      33   57048   57042      33
   57048   57045      34   57054   57051      33   57057   57051      33   57057
   57054      34   57063   57060      33   57066   57060      33   57066   57063
      34   57072   57069      33   57075   57069      33   57075   57072      34
   57081   57078      33   57084   57078      33   57084   57081      34   57090
   57087      33   57093   57087      33   57093   57090      34   57099   57096
      33   57102   57096      33   57102   57099      34   57108   57105      33
   57111   57105      33   57111   57108      34   57117   57114      33   57120
   57114      33   57120   57117      34   57126   57123      33   57129   57123
      33   57129   57126      34   57135   57132      33   57138   57132      33
   57138   57135      34   57144   57141      33   57147   57141      33   57147
   57144      34   57153   57150      33   57156   57150      33   57156   57153
      34   57162   57159      33   57165   57159      33   57165   57162      34
   57171   57168      33   57174   57168      33   57174   57171      34   57180
   57177      33   57183   57177      33   57183   57180      34   57189   57186
      33   57192   57186      33   57192   57189      34   57198   57195      33
   57201   57195      33   57201   57198      34   57207   57204      33   57210
   57204      33   57210   57207      34   57216   57213      33   57219   57213
      33   57219   57216      34   57225   57222      33   57228   57222      33
   57228   57225      34   57234   57231      33   57237   57231      33   57237
   57234      34   57243   57240      33   57246   57240      33   57246   57243
      34   57252   57249      33   57255   57249      33   57255   57252      34
   57261   57258      33   57264   57258      33   57264   57261      34   57270
   57267      33   57273   57267      33   57273   57270      34   57279   57276
      33   57282   57276      33   57282   57279      34   57288   57285      33
   57291   57285      33   57291   57288      34   57297   57294      33   57300
   57294      33   57300   57297      34   57306   57303      33   57309   57303
      33   57309   57306      34   57315   57312      33   57318   57312      33
   57318   57315      34   57324   57321      33   57327   57321      33   57327
   57324      34   57333   57330      33   57336   57330      33   57336   57333
      34   57342   57339      33   57345   57339      33   57345   57342      34
   57351   57348      33   57354   57348      33   57354   57351      34   57360
   57357      33   57363   57357      33   57363   57360      34   57369   57366
      33   57372   57366      33   57372   57369      34   57378   57375      33
   57381   57375      33   57381   57378      34   57387   57384      33   57390
   57384      33   57390   57387      34   57396   57393      33   57399   57393
      33   57399   57396      34   57405   57402      33   57408   57402      33
   57408   57405      34   57414   57411      33   57417   57411      33   57417
   57414      34   57423   57420      33   57426   57420      33   57426   57423
      34   57432   57429      33   57435   57429      33   57435   57432      34
   57441   57438      33   57444   57438      33   57444   57441      34   57450
   57447      33   57453   57447      33   57453   57450      34   57459   57456
      33   57462   57456      33   57462   57459      34   57468   57465      33
   57471   57465      33   57471   57468      34   57477   57474      33   57480
   57474      33   57480   57477      34   57486   57483      33   57489   57483
      33   57489   57486      34   57495   57492      33   57498   57492      33
   57498   57495      34   57504   57501      33   57507   57501      33   57507
   57504      34   57513   57510      33   57516   57510      33   57516   57513
      34   57522   57519      33   57525   57519      33   57525   57522      34
   57531   57528      33   57534   57528      33   57534   57531      34   57540
   57537      33   57543   57537      33   57543   57540      34   57549   57546
      33   57552   57546      33   57552   57549      34   57558   57555      33
   57561   57555      33   57561   57558      34   57567   57564      33   57570
   57564      33   57570   57567      34   57576   57573      33   57579   57573
      33   57579   57576      34   57585   57582      33   57588   57582      33
   57588   57585      34   57594   57591      33   57597   57591      33   57597
   57594      34   57603   57600      33   57606   57600      33   57606   57603
      34   57612   57609      33   57615   57609      33   57615   57612      34
   57621   57618      33   57624   57618      33   57624   57621      34   57630
   57627      33   57633   57627      33   57633   57630      34   57639   57636
      33   57642   57636      33   57642   57639      34   57648   57645      33
   57651   57645      33   57651   57648      34   57657   57654      33   57660
   57654      33   57660   57657      34   57666   57663      33   57669   57663
      33   57669   57666      34   57675   57672      33   57678   57672      33
   57678   57675      34   57684   57681      33   57687   57681      33   57687
   57684      34   57693   57690      33   57696   57690      33   57696   57693
      34   57702   57699      33   57705   57699      33   57705   57702      34
   57711   57708      33   57714   57708      33   57714   57711      34   57720
   57717      33   57723   57717      33   57723   57720      34   57729   57726
      33   57732   57726      33   57732   57729      34   57738   57735      33
   57741   57735      33   57741   57738      34   57747   57744      33   57750
   57744      33   57750   57747      34   57756   57753      33   57759   57753
      33   57759   57756      34   57765   57762      33   57768   57762      33
   57768   57765      34   57774   57771      33   57777   57771      33   57777
   57774      34   57783   57780      33   57786   57780      33   57786   57783
      34   57792   57789      33   57795   57789      33   57795   57792      34
   57801   57798      33   57804   57798      33   57804   57801      34   57810
   57807      33   57813   57807      33   57813   57810      34   57819   57816
      33   57822   57816      33   57822   57819      34   57828   57825      33
   57831   57825      33   57831   57828      34   57837   57834      33   57840
   57834      33   57840   57837      34   57846   57843      33   57849   57843
      33   57849   57846      34   57855   57852      33   57858   57852      33
   57858   57855      34   57864   57861      33   57867   57861      33   57867
   57864      34   57873   57870      33   57876   57870      33   57876   57873
      34   57882   57879      33   57885   57879      33   57885   57882      34
   57891   57888      33   57894   57888      33   57894   57891      34   57900
   57897      33   57903   57897      33   57903   57900      34   57909   57906
      33   57912   57906      33   57912   57909      34   57918   57915      33
   57921   57915      33   57921   57918      34   57927   57924      33   57930
   57924      33   57930   57927      34   57936   57933      33   57939   57933
      33   57939   57936      34   57945   57942      33   57948   57942      33
   57948   57945      34   57954   57951      33   57957   57951      33   57957
   57954      34   57963   57960      33   57966   57960      33   57966   57963
      34   57972   57969      33   57975   57969      33   57975   57972      34
   57981   57978      33   57984   57978      33   57984   57981      34   57990
   57987      33   57993   57987      33   57993   57990      34   57999   57996
      33   58002   57996      33   58002   57999      34   58008   58005      33
   58011   58005      33   58011   58008      34   58017   58014      33   58020
   58014      33   58020   58017      34   58026   58023      33   58029   58023
      33   58029   58026      34   58035   58032      33   58038   58032      33
   58038   58035      34   58044   58041      33   58047   58041      33   58047
   58044      34   58053   58050      33   58056   58050      33   58056   58053
      34   58062   58059      33   58065   58059      33   58065   58062      34
   58071   58068      33   58074   58068      33   58074   58071      34   58080
   58077      33   58083   58077      33   58083   58080      34   58089   58086
      33   58092   58086      33   58092   58089      34   58098   58095      33
   58101   58095      33   58101   58098      34   58107   58104      33   58110
   58104      33   58110   58107      34   58116   58113      33   58119   58113
      33   58119   58116      34   58125   58122      33   58128   58122      33
   58128   58125      34   58134   58131      33   58137   58131      33   58137
   58134      34   58143   58140      33   58146   58140      33   58146   58143
      34   58152   58149      33   58155   58149      33   58155   58152      34
   58161   58158      33   58164   58158      33   58164   58161      34   58170
   58167      33   58173   58167      33   58173   58170      34   58179   58176
      33   58182   58176      33   58182   58179      34   58188   58185      33
   58191   58185      33   58191   58188      34   58197   58194      33   58200
   58194      33   58200   58197      34   58206   58203      33   58209   58203
      33   58209   58206      34   58215   58212      33   58218   58212      33
   58218   58215      34   58224   58221      33   58227   58221      33   58227
   58224      34   58233   58230      33   58236   58230      33   58236   58233
      34   58242   58239      33   58245   58239      33   58245   58242      34
   58251   58248      33   58254   58248      33   58254   58251      34   58260
   58257      33   58263   58257      33   58263   58260      34   58269   58266
      33   58272   58266      33   58272   58269      34   58278   58275      33
   58281   58275      33   58281   58278      34   58287   58284      33   58290
   58284      33   58290   58287      34   58296   58293      33   58299   58293
      33   58299   58296      34   58305   58302      33   58308   58302      33
   58308   58305      34   58314   58311      33   58317   58311      33   58317
   58314      34   58323   58320      33   58326   58320      33   58326   58323
      34   58332   58329      33   58335   58329      33   58335   58332      34
   58341   58338      33   58344   58338      33   58344   58341      34   58350
   58347      33   58353   58347      33   58353   58350      34   58359   58356
      33   58362   58356      33   58362   58359      34   58368   58365      33
   58371   58365      33   58371   58368      34   58377   58374      33   58380
   58374      33   58380   58377      34   58386   58383      33   58389   58383
      33   58389   58386      34   58395   58392      33   58398   58392      33
   58398   58395      34   58404   58401      33   58407   58401      33   58407
   58404      34   58413   58410      33   58416   58410      33   58416   58413
      34   58422   58419      33   58425   58419      33   58425   58422      34
   58431   58428      33   58434   58428      33   58434   58431      34   58440
   58437      33   58443   58437      33   58443   58440      34   58449   58446
      33   58452   58446      33   58452   58449      34   58458   58455      33
   58461   58455      33   58461   58458      34   58467   58464      33   58470
   58464      33   58470   58467      34   58476   58473      33   58479   58473
      33   58479   58476      34   58485   58482      33   58488   58482      33
   58488   58485      34   58494   58491      33   58497   58491      33   58497
   58494      34   58503   58500      33   58506   58500      33   58506   58503
      34   58512   58509      33   58515   58509      33   58515   58512      34
   58521   58518      33   58524   58518      33   58524   58521      34   58530
   58527      33   58533   58527      33   58533   58530      34   58539   58536
      33   58542   58536      33   58542   58539      34   58548   58545      33
   58551   58545      33   58551   58548      34   58557   58554      33   58560
   58554      33   58560   58557      34   58566   58563      33   58569   58563
      33   58569   58566      34   58575   58572      33   58578   58572      33
   58578   58575      34   58584   58581      33   58587   58581      33   58587
   58584      34   58593   58590      33   58596   58590      33   58596   58593
      34   58602   58599      33   58605   58599      33   58605   58602      34
   58611   58608      33   58614   58608      33   58614   58611      34   58620
   58617      33   58623   58617      33   58623   58620      34   58629   58626
      33   58632   58626      33   58632   58629      34   58638   58635      33
   58641   58635      33   58641   58638      34   58647   58644      33   58650
   58644      33   58650   58647      34   58656   58653      33   58659   58653
      33   58659   58656      34   58665   58662      33   58668   58662      33
   58668   58665      34   58674   58671      33   58677   58671      33   58677
   58674      34   58683   58680      33   58686   58680      33   58686   58683
      34   58692   58689      33   58695   58689      33   58695   58692      34
   58701   58698      33   58704   58698      33   58704   58701      34   58710
   58707      33   58713   58707      33   58713   58710      34   58719   58716
      33   58722   58716      33   58722   58719      34   58728   58725      33
   58731   58725      33   58731   58728      34   58737   58734      33   58740
   58734      33   58740   58737      34   58746   58743      33   58749   58743
      33   58749   58746      34   58755   58752      33   58758   58752      33
   58758   58755      34   58764   58761      33   58767   58761      33   58767
   58764      34   58773   58770      33   58776   58770      33   58776   58773
      34   58782   58779      33   58785   58779      33   58785   58782      34
   58791   58788      33   58794   58788      33   58794   58791      34   58800
   58797      33   58803   58797      33   58803   58800      34   58809   58806
      33   58812   58806      33   58812   58809      34   58818   58815      33
   58821   58815      33   58821   58818      34   58827   58824      33   58830
   58824      33   58830   58827      34   58836   58833      33   58839   58833
      33   58839   58836      34   58845   58842      33   58848   58842      33
   58848   58845      34   58854   58851      33   58857   58851      33   58857
   58854      34   58863   58860      33   58866   58860      33   58866   58863
      34   58872   58869      33   58875   58869      33   58875   58872      34
   58881   58878      33   58884   58878      33   58884   58881      34   58890
   58887      33   58893   58887      33   58893   58890      34   58899   58896
      33   58902   58896      33   58902   58899      34   58908   58905      33
   58911   58905      33   58911   58908      34   58917   58914      33   58920
   58914      33   58920   58917      34   58926   58923      33   58929   58923
      33   58929   58926      34   58935   58932      33   58938   58932      33
   58938   58935      34   58944   58941      33   58947   58941      33   58947
   58944      34   58953   58950      33   58956   58950      33   58956   58953
      34   58962   58959      33   58965   58959      33   58965   58962      34
   58971   58968      33   58974   58968      33   58974   58971      34   58980
   58977      33   58983   58977      33   58983   58980      34   58989   58986
      33   58992   58986      33   58992   58989      34   58998   58995      33
   59001   58995      33   59001   58998      34   59007   59004      33   59010
   59004      33   59010   59007      34   59016   59013      33   59019   59013
      33   59019   59016      34   59025   59022      33   59028   59022      33
   59028   59025      34   59034   59031      33   59037   59031      33   59037
   59034      34   59043   59040      33   59046   59040      33   59046   59043
      34   59052   59049      33   59055   59049      33   59055   59052      34
   59061   59058      33   59064   59058      33   59064   59061      34   59070
   59067      33   59073   59067      33   59073   59070      34   59079   59076
      33   59082   59076      33   59082   59079      34   59088   59085      33
   59091   59085      33   59091   59088      34   59097   59094      33   59100
   59094      33   59100   59097      34   59106   59103      33   59109   59103
      33   59109   59106      34   59115   59112      33   59118   59112      33
   59118   59115      34   59124   59121      33   59127   59121      33   59127
   59124      34   59133   59130      33   59136   59130      33   59136   59133
      34   59142   59139      33   59145   59139      33   59145   59142      34
   59151   59148      33   59154   59148      33   59154   59151      34   59160
   59157      33   59163   59157      33   59163   59160      34   59169   59166
      33   59172   59166      33   59172   59169      34   59178   59175      33
   59181   59175      33   59181   59178      34   59187   59184      33   59190
   59184      33   59190   59187      34   59196   59193      33   59199   59193
      33   59199   59196      34   59205   59202      33   59208   59202      33
   59208   59205      34   59214   59211      33   59217   59211      33   59217
   59214      34   59223   59220      33   59226   59220      33   59226   59223
      34   59232   59229      33   59235   59229      33   59235   59232      34
   59241   59238      33   59244   59238      33   59244   59241      34   59250
   59247      33   59253   59247      33   59253   59250      34   59259   59256
      33   59262   59256      33   59262   59259      34   59268   59265      33
   59271   59265      33   59271   59268      34   59277   59274      33   59280
   59274      33   59280   59277      34   59286   59283      33   59289   59283
      33   59289   59286      34   59295   59292      33   59298   59292      33
   59298   59295      34   59304   59301      33   59307   59301      33   59307
   59304      34   59313   59310      33   59316   59310      33   59316   59313
      34   59322   59319      33   59325   59319      33   59325   59322      34
   59331   59328      33   59334   59328      33   59334   59331      34   59340
   59337      33   59343   59337      33   59343   59340      34   59349   59346
      33   59352   59346      33   59352   59349      34   59358   59355      33
   59361   59355      33   59361   59358      34   59367   59364      33   59370
   59364      33   59370   59367      34   59376   59373      33   59379   59373
      33   59379   59376      34   59385   59382      33   59388   59382      33
   59388   59385      34   59394   59391      33   59397   59391      33   59397
   59394      34   59403   59400      33   59406   59400      33   59406   59403
      34   59412   59409      33   59415   59409      33   59415   59412      34
   59421   59418      33   59424   59418      33   59424   59421      34   59430
   59427      33   59433   59427      33   59433   59430      34   59439   59436
      33   59442   59436      33   59442   59439      34   59448   59445      33
   59451   59445      33   59451   59448      34   59457   59454      33   59460
   59454      33   59460   59457      34   59466   59463      33   59469   59463
      33   59469   59466      34   59475   59472      33   59478   59472      33
   59478   59475      34   59484   59481      33   59487   59481      33   59487
   59484      34   59493   59490      33   59496   59490      33   59496   59493
      34   59502   59499      33   59505   59499      33   59505   59502      34
   59511   59508      33   59514   59508      33   59514   59511      34   59520
   59517      33   59523   59517      33   59523   59520      34   59529   59526
      33   59532   59526      33   59532   59529      34   59538   59535      33
   59541   59535      33   59541   59538      34   59547   59544      33   59550
   59544      33   59550   59547      34   59556   59553      33   59559   59553
      33   59559   59556      34   59565   59562      33   59568   59562      33
   59568   59565      34   59574   59571      33   59577   59571      33   59577
   59574      34   59583   59580      33   59586   59580      33   59586   59583
      34   59592   59589      33   59595   59589      33   59595   59592      34
   59601   59598      33   59604   59598      33   59604   59601      34   59610
   59607      33   59613   59607      33   59613   59610      34   59619   59616
      33   59622   59616      33   59622   59619      34   59628   59625      33
   59631   59625      33   59631   59628      34   59637   59634      33   59640
   59634      33   59640   59637      34   59646   59643      33   59649   59643
      33   59649   59646      34   59655   59652      33   59658   59652      33
   59658   59655      34   59664   59661      33   59667   59661      33   59667
   59664      34   59673   59670      33   59676   59670      33   59676   59673
      34   59682   59679      33   59685   59679      33   59685   59682      34
   59691   59688      33   59694   59688      33   59694   59691      34   59700
   59697      33   59703   59697      33   59703   59700      34   59709   59706
      33   59712   59706      33   59712   59709      34   59718   59715      33
   59721   59715      33   59721   59718      34   59727   59724      33   59730
   59724      33   59730   59727      34   59736   59733      33   59739   59733
      33   59739   59736      34   59745   59742      33   59748   59742      33
   59748   59745      34   59754   59751      33   59757   59751      33   59757
   59754      34   59763   59760      33   59766   59760      33   59766   59763
      34   59772   59769      33   59775   59769      33   59775   59772      34
   59781   59778      33   59784   59778      33   59784   59781      34   59790
   59787      33   59793   59787      33   59793   59790      34   59799   59796
      33   59802   59796      33   59802   59799      34   59808   59805      33
   59811   59805      33   59811   59808      34   59817   59814      33   59820
   59814      33   59820   59817      34   59826   59823      33   59829   59823
      33   59829   59826      34   59835   59832      33   59838   59832      33
   59838   59835      34   59844   59841      33   59847   59841      33   59847
   59844      34   59853   59850      33   59856   59850      33   59856   59853
      34   59862   59859      33   59865   59859      33   59865   59862      34
   59871   59868      33   59874   59868      33   59874   59871      34   59880
   59877      33   59883   59877      33   59883   59880      34   59889   59886
      33   59892   59886      33   59892   59889      34   59898   59895      33
   59901   59895      33   59901   59898      34   59907   59904      33   59910
   59904      33   59910   59907      34   59916   59913      33   59919   59913
      33   59919   59916      34   59925   59922      33   59928   59922      33
   59928   59925      34   59934   59931      33   59937   59931      33   59937
   59934      34   59943   59940      33   59946   59940      33   59946   59943
      34   59952   59949      33   59955   59949      33   59955   59952      34
   59961   59958      33   59964   59958      33   59964   59961      34   59970
   59967      33   59973   59967      33   59973   59970      34   59979   59976
      33   59982   59976      33   59982   59979      34   59988   59985      33
   59991   59985      33   59991   59988      34   59997   59994      33   60000
   59994      33   60000   59997      34   60006   60003      33   60009   60003
      33   60009   60006      34   60015   60012      33   60018   60012      33
   60018   60015      34   60024   60021      33   60027   60021      33   60027
   60024      34   60033   60030      33   60036   60030      33   60036   60033
      34   60042   60039      33   60045   60039      33   60045   60042      34
   60051   60048      33   60054   60048      33   60054   60051      34   60060
   60057      33   60063   60057      33   60063   60060      34   60069   60066
      33   60072   60066      33   60072   60069      34   60078   60075      33
   60081   60075      33   60081   60078      34   60087   60084      33   60090
   60084      33   60090   60087      34   60096   60093      33   60099   60093
      33   60099   60096      34   60105   60102      33   60108   60102      33
   60108   60105      34   60114   60111      33   60117   60111      33   60117
   60114      34   60123   60120      33   60126   60120      33   60126   60123
      34   60132   60129      33   60135   60129      33   60135   60132      34
   60141   60138      33   60144   60138      33   60144   60141      34   60150
   60147      33   60153   60147      33   60153   60150      34   60159   60156
      33   60162   60156      33   60162   60159      34   60168   60165      33
   60171   60165      33   60171   60168      34   60177   60174      33   60180
   60174      33   60180   60177      34   60186   60183      33   60189   60183
      33   60189   60186      34   60195   60192      33   60198   60192      33
   60198   60195      34   60204   60201      33   60207   60201      33   60207
   60204      34   60213   60210      33   60216   60210      33   60216   60213
      34   60222   60219      33   60225   60219      33   60225   60222      34
   60231   60228      33   60234   60228      33   60234   60231      34   60240
   60237      33   60243   60237      33   60243   60240      34   60249   60246
      33   60252   60246      33   60252   60249      34   60258   60255      33
   60261   60255      33   60261   60258      34   60267   60264      33   60270
   60264      33   60270   60267      34   60276   60273      33   60279   60273
      33   60279   60276      34   60285   60282      33   60288   60282      33
   60288   60285      34   60294   60291      33   60297   60291      33   60297
   60294      34   60303   60300      33   60306   60300      33   60306   60303
      34   60312   60309      33   60315   60309      33   60315   60312      34
   60321   60318      33   60324   60318      33   60324   60321      34   60330
   60327      33   60333   60327      33   60333   60330      34   60339   60336
      33   60342   60336      33   60342   60339      34   60348   60345      33
   60351   60345      33   60351   60348      34   60357   60354      33   60360
   60354      33   60360   60357      34   60366   60363      33   60369   60363
      33   60369   60366      34   60375   60372      33   60378   60372      33
   60378   60375      34   60384   60381      33   60387   60381      33   60387
   60384      34   60393   60390      33   60396   60390      33   60396   60393
      34   60402   60399      33   60405   60399      33   60405   60402      34
   60411   60408      33   60414   60408      33   60414   60411      34   60420
   60417      33   60423   60417      33   60423   60420      34   60429   60426
      33   60432   60426      33   60432   60429      34   60438   60435      33
   60441   60435      33   60441   60438      34   60447   60444      33   60450
   60444      33   60450   60447      34   60456   60453      33   60459   60453
      33   60459   60456      34   60465   60462      33   60468   60462      33
   60468   60465      34   60474   60471      33   60477   60471      33   60477
   60474      34   60483   60480      33   60486   60480      33   60486   60483
      34   60492   60489      33   60495   60489      33   60495   60492      34
   60501   60498      33   60504   60498      33   60504   60501      34   60510
   60507      33   60513   60507      33   60513   60510      34   60519   60516
      33   60522   60516      33   60522   60519      34   60528   60525      33
   60531   60525      33   60531   60528      34   60537   60534      33   60540
   60534      33   60540   60537      34   60546   60543      33   60549   60543
      33   60549   60546      34   60555   60552      33   60558   60552      33
   60558   60555      34   60564   60561      33   60567   60561      33   60567
   60564      34   60573   60570      33   60576   60570      33   60576   60573
      34   60582   60579      33   60585   60579      33   60585   60582      34
   60591   60588      33   60594   60588      33   60594   60591      34   60600
   60597      33   60603   60597      33   60603   60600      34   60609   60606
      33   60612   60606      33   60612   60609      34   60618   60615      33
   60621   60615      33   60621   60618      34   60627   60624      33   60630
   60624      33   60630   60627      34   60636   60633      33   60639   60633
      33   60639   60636      34   60645   60642      33   60648   60642      33
   60648   60645      34   60654   60651      33   60657   60651      33   60657
   60654      34   60663   60660      33   60666   60660      33   60666   60663
      34   60672   60669      33   60675   60669      33   60675   60672      34
   60681   60678      33   60684   60678      33   60684   60681      34   60690
   60687      33   60693   60687      33   60693   60690      34   60699   60696
      33   60702   60696      33   60702   60699      34   60708   60705      33
   60711   60705      33   60711   60708      34   60717   60714      33   60720
   60714      33   60720   60717      34   60726   60723      33   60729   60723
      33   60729   60726      34   60735   60732      33   60738   60732      33
   60738   60735      34   60744   60741      33   60747   60741      33   60747
   60744      34   60753   60750      33   60756   60750      33   60756   60753
      34   60762   60759      33   60765   60759      33   60765   60762      34
   60771   60768      33   60774   60768      33   60774   60771      34   60780
   60777      33   60783   60777      33   60783   60780      34   60789   60786
      33   60792   60786      33   60792   60789      34   60798   60795      33
   60801   60795      33   60801   60798      34   60807   60804      33   60810
   60804      33   60810   60807      34   60816   60813      33   60819   60813
      33   60819   60816      34   60825   60822      33   60828   60822      33
   60828   60825      34   60834   60831      33   60837   60831      33   60837
   60834      34   60843   60840      33   60846   60840      33   60846   60843
      34   60852   60849      33   60855   60849      33   60855   60852      34
   60861   60858      33   60864   60858      33   60864   60861      34   60870
   60867      33   60873   60867      33   60873   60870      34   60879   60876
      33   60882   60876      33   60882   60879      34   60888   60885      33
   60891   60885      33   60891   60888      34   60897   60894      33   60900
   60894      33   60900   60897      34   60906   60903      33   60909   60903
      33   60909   60906      34   60915   60912      33   60918   60912      33
   60918   60915      34   60924   60921      33   60927   60921      33   60927
   60924      34   60933   60930      33   60936   60930      33   60936   60933
      34   60942   60939      33   60945   60939      33   60945   60942      34
   60951   60948      33   60954   60948      33   60954   60951      34   60960
   60957      33   60963   60957      33   60963   60960      34   60969   60966
      33   60972   60966      33   60972   60969      34   60978   60975      33
   60981   60975      33   60981   60978      34   60987   60984      33   60990
   60984      33   60990   60987      34   60996   60993      33   60999   60993
      33   60999   60996      34   61005   61002      33   61008   61002      33
   61008   61005      34   61014   61011      33   61017   61011      33   61017
   61014      34   61023   61020      33   61026   61020      33   61026   61023
      34   61032   61029      33   61035   61029      33   61035   61032      34
   61041   61038      33   61044   61038      33   61044   61041      34   61050
   61047      33   61053   61047      33   61053   61050      34   61059   61056
      33   61062   61056      33   61062   61059      34   61068   61065      33
   61071   61065      33   61071   61068      34   61077   61074      33   61080
   61074      33   61080   61077      34   61086   61083      33   61089   61083
      33   61089   61086      34   61095   61092      33   61098   61092      33
   61098   61095      34   61104   61101      33   61107   61101      33   61107
   61104      34   61113   61110      33   61116   61110      33   61116   61113
      34   61122   61119      33   61125   61119      33   61125   61122      34
   61131   61128      33   61134   61128      33   61134   61131      34   61140
   61137      33   61143   61137      33   61143   61140      34   61149   61146
      33   61152   61146      33   61152   61149      34   61158   61155      33
   61161   61155      33   61161   61158      34   61167   61164      33   61170
   61164      33   61170   61167      34   61176   61173      33   61179   61173
      33   61179   61176      34   61185   61182      33   61188   61182      33
   61188   61185      34   61194   61191      33   61197   61191      33   61197
   61194      34   61203   61200      33   61206   61200      33   61206   61203
      34   61212   61209      33   61215   61209      33   61215   61212      34
   61221   61218      33   61224   61218      33   61224   61221      34   61230
   61227      33   61233   61227      33   61233   61230      34   61239   61236
      33   61242   61236      33   61242   61239      34   61248   61245      33
   61251   61245      33   61251   61248      34   61257   61254      33   61260
   61254      33   61260   61257      34   61266   61263      33   61269   61263
      33   61269   61266      34   61275   61272      33   61278   61272      33
   61278   61275      34   61284   61281      33   61287   61281      33   61287
   61284      34   61293   61290      33   61296   61290      33   61296   61293
      34   61302   61299      33   61305   61299      33   61305   61302      34
   61311   61308      33   61314   61308      33   61314   61311      34   61320
   61317      33   61323   61317      33   61323   61320      34   61329   61326
      33   61332   61326      33   61332   61329      34   61338   61335      33
   61341   61335      33   61341   61338      34   61347   61344      33   61350
   61344      33   61350   61347      34   61356   61353      33   61359   61353
      33   61359   61356      34   61365   61362      33   61368   61362      33
   61368   61365      34   61374   61371      33   61377   61371      33   61377
   61374      34   61383   61380      33   61386   61380      33   61386   61383
      34   61392   61389      33   61395   61389      33   61395   61392      34
   61401   61398      33   61404   61398      33   61404   61401      34   61410
   61407      33   61413   61407      33   61413   61410      34   61419   61416
      33   61422   61416      33   61422   61419      34   61428   61425      33
   61431   61425      33   61431   61428      34   61437   61434      33   61440
   61434      33   61440   61437      34   61446   61443      33   61449   61443
      33   61449   61446      34   61455   61452      33   61458   61452      33
   61458   61455      34   61464   61461      33   61467   61461      33   61467
   61464      34   61473   61470      33   61476   61470      33   61476   61473
      34   61482   61479      33   61485   61479      33   61485   61482      34
   61491   61488      33   61494   61488      33   61494   61491      34   61500
   61497      33   61503   61497      33   61503   61500      34   61509   61506
      33   61512   61506      33   61512   61509      34   61518   61515      33
   61521   61515      33   61521   61518      34   61527   61524      33   61530
   61524      33   61530   61527      34   61536   61533      33   61539   61533
      33   61539   61536      34   61545   61542      33   61548   61542      33
   61548   61545      34   61554   61551      33   61557   61551      33   61557
   61554      34   61563   61560      33   61566   61560      33   61566   61563
      34   61572   61569      33   61575   61569      33   61575   61572      34
   61581   61578      33   61584   61578      33   61584   61581      34   61590
   61587      33   61593   61587      33   61593   61590      34   61599   61596
      33   61602   61596      33   61602   61599      34   61608   61605      33
   61611   61605      33   61611   61608      34   61617   61614      33   61620
   61614      33   61620   61617      34   61626   61623      33   61629   61623
      33   61629   61626      34   61635   61632      33   61638   61632      33
   61638   61635      34   61644   61641      33   61647   61641      33   61647
   61644      34   61653   61650      33   61656   61650      33   61656   61653
      34   61662   61659      33   61665   61659      33   61665   61662      34
   61671   61668      33   61674   61668      33   61674   61671      34   61680
   61677      33   61683   61677      33   61683   61680      34   61689   61686
      33   61692   61686      33   61692   61689      34   61698   61695      33
   61701   61695      33   61701   61698      34   61707   61704      33   61710
   61704      33   61710   61707      34   61716   61713      33   61719   61713
      33   61719   61716      34   61725   61722      33   61728   61722      33
   61728   61725      34   61734   61731      33   61737   61731      33   61737
   61734      34   61743   61740      33   61746   61740      33   61746   61743
      34   61752   61749      33   61755   61749      33   61755   61752      34
   61761   61758      33   61764   61758      33   61764   61761      34   61770
   61767      33   61773   61767      33   61773   61770      34   61779   61776
      33   61782   61776      33   61782   61779      34   61788   61785      33
   61791   61785      33   61791   61788      34   61797   61794      33   61800
   61794      33   61800   61797      34   61806   61803      33   61809   61803
      33   61809   61806      34   61815   61812      33   61818   61812      33
   61818   61815      34   61824   61821      33   61827   61821      33   61827
   61824      34   61833   61830      33   61836   61830      33   61836   61833
      34   61842   61839      33   61845   61839      33   61845   61842      34
   61851   61848      33   61854   61848      33   61854   61851      34   61860
   61857      33   61863   61857      33   61863   61860      34   61869   61866
      33   61872   61866      33   61872   61869      34   61878   61875      33
   61881   61875      33   61881   61878      34   61887   61884      33   61890
   61884      33   61890   61887      34   61896   61893      33   61899   61893
      33   61899   61896      34   61905   61902      33   61908   61902      33
   61908   61905      34   61914   61911      33   61917   61911      33   61917
   61914      34   61923   61920      33   61926   61920      33   61926   61923
      34   61932   61929      33   61935   61929      33   61935   61932      34
   61941   61938      33   61944   61938      33   61944   61941      34   61950
   61947      33   61953   61947      33   61953   61950      34   61959   61956
      33   61962   61956      33   61962   61959      34   61968   61965      33
   61971   61965      33   61971   61968      34   61977   61974      33   61980
   61974      33   61980   61977      34   61986   61983      33   61989   61983
      33   61989   61986      34   61995   61992      33   61998   61992      33
   61998   61995      34   62004   62001      33   62007   62001      33   62007
   62004      34   62013   62010      33   62016   62010      33   62016   62013
      34   62022   62019      33   62025   62019      33   62025   62022      34
   62031   62028      33   62034   62028      33   62034   62031      34   62040
   62037      33   62043   62037      33   62043   62040      34   62049   62046
      33   62052   62046      33   62052   62049      34   62058   62055      33
   62061   62055      33   62061   62058      34   62067   62064      33   62070
   62064      33   62070   62067      34   62076   62073      33   62079   62073
      33   62079   62076      34   62085   62082      33   62088   62082      33
   62088   62085      34   62094   62091      33   62097   62091      33   62097
   62094      34   62103   62100      33   62106   62100      33   62106   62103
      34   62112   62109      33   62115   62109      33   62115   62112      34
   62121   62118      33   62124   62118      33   62124   62121      34   62130
   62127      33   62133   62127      33   62133   62130      34   62139   62136
      33   62142   62136      33   62142   62139      34   62148   62145      33
   62151   62145      33   62151   62148      34   62157   62154      33   62160
   62154      33   62160   62157      34   62166   62163      33   62169   62163
      33   62169   62166      34   62175   62172      33   62178   62172      33
   62178   62175      34   62184   62181      33   62187   62181      33   62187
   62184      34   62193   62190      33   62196   62190      33   62196   62193
      34   62202   62199      33   62205   62199      33   62205   62202      34
   62211   62208      33   62214   62208      33   62214   62211      34   62220
   62217      33   62223   62217      33   62223   62220      34   62229   62226
      33   62232   62226      33   62232   62229      34   62238   62235      33
   62241   62235      33   62241   62238      34   62247   62244      33   62250
   62244      33   62250   62247      34   62256   62253      33   62259   62253
      33   62259   62256      34   62265   62262      33   62268   62262      33
   62268   62265      34   62274   62271      33   62277   62271      33   62277
   62274      34   62283   62280      33   62286   62280      33   62286   62283
      34   62292   62289      33   62295   62289      33   62295   62292      34
   62301   62298      33   62304   62298      33   62304   62301      34   62310
   62307      33   62313   62307      33   62313   62310      34   62319   62316
      33   62322   62316      33   62322   62319      34   62328   62325      33
   62331   62325      33   62331   62328      34   62337   62334      33   62340
   62334      33   62340   62337      34   62346   62343      33   62349   62343
      33   62349   62346      34   62355   62352      33   62358   62352      33
   62358   62355      34   62364   62361      33   62367   62361      33   62367
   62364      34   62373   62370      33   62376   62370      33   62376   62373
      34   62382   62379      33   62385   62379      33   62385   62382      34
   62391   62388      33   62394   62388      33   62394   62391      34   62400
   62397      33   62403   62397      33   62403   62400      34   62409   62406
      33   62412   62406      33   62412   62409      34   62418   62415      33
   62421   62415      33   62421   62418      34   62427   62424      33   62430
   62424      33   62430   62427      34   62436   62433      33   62439   62433
      33   62439   62436      34   62445   62442      33   62448   62442      33
   62448   62445      34   62454   62451      33   62457   62451      33   62457
   62454      34   62463   62460      33   62466   62460      33   62466   62463
      34   62472   62469      33   62475   62469      33   62475   62472      34
   62481   62478      33   62484   62478      33   62484   62481      34   62490
   62487      33   62493   62487      33   62493   62490      34   62499   62496
      33   62502   62496      33   62502   62499      34   62508   62505      33
   62511   62505      33   62511   62508      34   62517   62514      33   62520
   62514      33   62520   62517      34   62526   62523      33   62529   62523
      33   62529   62526      34   62535   62532      33   62538   62532      33
   62538   62535      34   62544   62541      33   62547   62541      33   62547
   62544      34   62553   62550      33   62556   62550      33   62556   62553
      34   62562   62559      33   62565   62559      33   62565   62562      34
   62571   62568      33   62574   62568      33   62574   62571      34   62580
   62577      33   62583   62577      33   62583   62580      34   62589   62586
      33   62592   62586      33   62592   62589      34   62598   62595      33
   62601   62595      33   62601   62598      34   62607   62604      33   62610
   62604      33   62610   62607      34   62616   62613      33   62619   62613
      33   62619   62616      34   62625   62622      33   62628   62622      33
   62628   62625      34   62634   62631      33   62637   62631      33   62637
   62634      34   62643   62640      33   62646   62640      33   62646   62643
      34   62652   62649      33   62655   62649      33   62655   62652      34
   62661   62658      33   62664   62658      33   62664   62661      34   62670
   62667      33   62673   62667      33   62673   62670      34   62679   62676
      33   62682   62676      33   62682   62679      34   62688   62685      33
   62691   62685      33   62691   62688      34   62697   62694      33   62700
   62694      33   62700   62697      34   62706   62703      33   62709   62703
      33   62709   62706      34   62715   62712      33   62718   62712      33
   62718   62715      34   62724   62721      33   62727   62721      33   62727
   62724      34   62733   62730      33   62736   62730      33   62736   62733
      34   62742   62739      33   62745   62739      33   62745   62742      34
   62751   62748      33   62754   62748      33   62754   62751      34   62760
   62757      33   62763   62757      33   62763   62760      34   62769   62766
      33   62772   62766      33   62772   62769      34   62778   62775      33
   62781   62775      33   62781   62778      34   62787   62784      33   62790
   62784      33   62790   62787      34   62796   62793      33   62799   62793
      33   62799   62796      34   62805   62802      33   62808   62802      33
   62808   62805      34   62814   62811      33   62817   62811      33   62817
   62814      34   62823   62820      33   62826   62820      33   62826   62823
      34   62832   62829      33   62835   62829      33   62835   62832      34
   62841   62838      33   62844   62838      33   62844   62841      34   62850
   62847      33   62853   62847      33   62853   62850      34   62859   62856
      33   62862   62856      33   62862   62859      34   62868   62865      33
   62871   62865      33   62871   62868      34   62877   62874      33   62880
   62874      33   62880   62877      34   62886   62883      33   62889   62883
      33   62889   62886      34   62895   62892      33   62898   62892      33
   62898   62895      34   62904   62901      33   62907   62901      33   62907
   62904      34   62913   62910      33   62916   62910      33   62916   62913
      34   62922   62919      33   62925   62919      33   62925   62922      34
   62931   62928      33   62934   62928      33   62934   62931      34   62940
   62937      33   62943   62937      33   62943   62940      34   62949   62946
      33   62952   62946      33   62952   62949      34   62958   62955      33
   62961   62955      33   62961   62958      34   62967   62964      33   62970
   62964      33   62970   62967      34   62976   62973      33   62979   62973
      33   62979   62976      34   62985   62982      33   62988   62982      33
   62988   62985      34   62994   62991      33   62997   62991      33   62997
   62994      34   63003   63000      33   63006   63000      33   63006   63003
      34   63012   63009      33   63015   63009      33   63015   63012      34
   63021   63018      33   63024   63018      33   63024   63021      34   63030
   63027      33   63033   63027      33   63033   63030      34   63039   63036
      33   63042   63036      33   63042   63039      34   63048   63045      33
   63051   63045      33   63051   63048      34   63057   63054      33   63060
   63054      33   63060   63057      34   63066   63063      33   63069   63063
      33   63069   63066      34   63075   63072      33   63078   63072      33
   63078   63075      34   63084   63081      33   63087   63081      33   63087
   63084      34   63093   63090      33   63096   63090      33   63096   63093
      34   63102   63099      33   63105   63099      33   63105   63102      34
   63111   63108      33   63114   63108      33   63114   63111      34   63120
   63117      33   63123   63117      33   63123   63120      34   63129   63126
      33   63132   63126      33   63132   63129      34   63138   63135      33
   63141   63135      33   63141   63138      34   63147   63144      33   63150
   63144      33   63150   63147      34   63156   63153      33   63159   63153
      33   63159   63156      34   63165   63162      33   63168   63162      33
   63168   63165      34   63174   63171      33   63177   63171      33   63177
   63174      34   63183   63180      33   63186   63180      33   63186   63183
      34   63192   63189      33   63195   63189      33   63195   63192      34
   63201   63198      33   63204   63198      33   63204   63201      34   63210
   63207      33   63213   63207      33   63213   63210      34   63219   63216
      33   63222   63216      33   63222   63219      34   63228   63225      33
   63231   63225      33   63231   63228      34   63237   63234      33   63240
   63234      33   63240   63237      34   63246   63243      33   63249   63243
      33   63249   63246      34   63255   63252      33   63258   63252      33
   63258   63255      34   63264   63261      33   63267   63261      33   63267
   63264      34   63273   63270      33   63276   63270      33   63276   63273
      34   63282   63279      33   63285   63279      33   63285   63282      34
   63291   63288      33   63294   63288      33   63294   63291      34   63300
   63297      33   63303   63297      33   63303   63300      34   63309   63306
      33   63312   63306      33   63312   63309      34   63318   63315      33
   63321   63315      33   63321   63318      34   63327   63324      33   63330
   63324      33   63330   63327      34   63336   63333      33   63339   63333
      33   63339   63336      34   63345   63342      33   63348   63342      33
   63348   63345      34   63354   63351      33   63357   63351      33   63357
   63354      34   63363   63360      33   63366   63360      33   63366   63363
      34   63372   63369      33   63375   63369      33   63375   63372      34
   63381   63378      33   63384   63378      33   63384   63381      34   63390
   63387      33   63393   63387      33   63393   63390      34   63399   63396
      33   63402   63396      33   63402   63399      34   63408   63405      33
   63411   63405      33   63411   63408      34   63417   63414      33   63420
   63414      33   63420   63417      34   63426   63423      33   63429   63423
      33   63429   63426      34   63435   63432      33   63438   63432      33
   63438   63435      34   63444   63441      33   63447   63441      33   63447
   63444      34   63453   63450      33   63456   63450      33   63456   63453
      34   63462   63459      33   63465   63459      33   63465   63462      34
   63471   63468      33   63474   63468      33   63474   63471      34   63480
   63477      33   63483   63477      33   63483   63480      34   63489   63486
      33   63492   63486      33   63492   63489      34   63498   63495      33
   63501   63495      33   63501   63498      34   63507   63504      33   63510
   63504      33   63510   63507      34   63516   63513      33   63519   63513
      33   63519   63516      34   63525   63522      33   63528   63522      33
   63528   63525      34   63534   63531      33   63537   63531      33   63537
   63534      34   63543   63540      33   63546   63540      33   63546   63543
      34   63552   63549      33   63555   63549      33   63555   63552      34
   63561   63558      33   63564   63558      33   63564   63561      34   63570
   63567      33   63573   63567      33   63573   63570      34   63579   63576
      33   63582   63576      33   63582   63579      34   63588   63585      33
   63591   63585      33   63591   63588      34   63597   63594      33   63600
   63594      33   63600   63597      34   63606   63603      33   63609   63603
      33   63609   63606      34   63615   63612      33   63618   63612      33
   63618   63615      34   63624   63621      33   63627   63621      33   63627
   63624      34   63633   63630      33   63636   63630      33   63636   63633
      34   63642   63639      33   63645   63639      33   63645   63642      34
   63651   63648      33   63654   63648      33   63654   63651      34   63660
   63657      33   63663   63657      33   63663   63660      34   63669   63666
      33   63672   63666      33   63672   63669      34   63678   63675      33
   63681   63675      33   63681   63678      34   63687   63684      33   63690
   63684      33   63690   63687      34   63696   63693      33   63699   63693
      33   63699   63696      34   63705   63702      33   63708   63702      33
   63708   63705      34   63714   63711      33   63717   63711      33   63717
   63714      34   63723   63720      33   63726   63720      33   63726   63723
      34   63732   63729      33   63735   63729      33   63735   63732      34
   63741   63738      33   63744   63738      33   63744   63741      34   63750
   63747      33   63753   63747      33   63753   63750      34   63759   63756
      33   63762   63756      33   63762   63759      34   63768   63765      33
   63771   63765      33   63771   63768      34   63777   63774      33   63780
   63774      33   63780   63777      34   63786   63783      33   63789   63783
      33   63789   63786      34   63795   63792      33   63798   63792      33
   63798   63795      34   63804   63801      33   63807   63801      33   63807
   63804      34   63813   63810      33   63816   63810      33   63816   63813
      34   63822   63819      33   63825   63819      33   63825   63822      34
   63831   63828      33   63834   63828      33   63834   63831      34   63840
   63837      33   63843   63837      33   63843   63840      34   63849   63846
      33   63852   63846      33   63852   63849      34   63858   63855      33
   63861   63855      33   63861   63858      34   63867   63864      33   63870
   63864      33   63870   63867      34   63876   63873      33   63879   63873
      33   63879   63876      34   63885   63882      33   63888   63882      33
   63888   63885      34   63894   63891      33   63897   63891      33   63897
   63894      34   63903   63900      33   63906   63900      33   63906   63903
      34   63912   63909      33   63915   63909      33   63915   63912      34
   63921   63918      33   63924   63918      33   63924   63921      34   63930
   63927      33   63933   63927      33   63933   63930      34   63939   63936
      33   63942   63936      33   63942   63939      34   63948   63945      33
   63951   63945      33   63951   63948      34   63957   63954      33   63960
   63954      33   63960   63957      34   63966   63963      33   63969   63963
      33   63969   63966      34   63975   63972      33   63978   63972      33
   63978   63975      34   63984   63981      33   63987   63981      33   63987
   63984      34   63993   63990      33   63996   63990      33   63996   63993
      34   64002   63999      33   64005   63999      33   64005   64002      34
   64011   64008      33   64014   64008      33   64014   64011      34   64020
   64017      33   64023   64017      33   64023   64020      34   64029   64026
      33   64032   64026      33   64032   64029      34   64038   64035      33
   64041   64035      33   64041   64038      34   64047   64044      33   64050
   64044      33   64050   64047      34   64056   64053      33   64059   64053
      33   64059   64056      34   64065   64062      33   64068   64062      33
   64068   64065      34   64074   64071      33   64077   64071      33   64077
   64074      34   64083   64080      33   64086   64080      33   64086   64083
      34   64092   64089      33   64095   64089      33   64095   64092      34
   64101   64098      33   64104   64098      33   64104   64101      34   64110
   64107      33   64113   64107      33   64113   64110      34   64119   64116
      33   64122   64116      33   64122   64119      34   64128   64125      33
   64131   64125      33   64131   64128      34   64137   64134      33   64140
   64134      33   64140   64137      34   64146   64143      33   64149   64143
      33   64149   64146      34   64155   64152      33   64158   64152      33
   64158   64155      34   64164   64161      33   64167   64161      33   64167
   64164      34   64173   64170      33   64176   64170      33   64176   64173
      34   64182   64179      33   64185   64179      33   64185   64182      34
   64191   64188      33   64194   64188      33   64194   64191      34   64200
   64197      33   64203   64197      33   64203   64200      34   64209   64206
      33   64212   64206      33   64212   64209      34   64218   64215      33
   64221   64215      33   64221   64218      34   64227   64224      33   64230
   64224      33   64230   64227      34   64236   64233      33   64239   64233
      33   64239   64236      34   64245   64242      33   64248   64242      33
   64248   64245      34   64254   64251      33   64257   64251      33   64257
   64254      34   64263   64260      33   64266   64260      33   64266   64263
      34   64272   64269      33   64275   64269      33   64275   64272      34
   64281   64278      33   64284   64278      33   64284   64281      34   64290
   64287      33   64293   64287      33   64293   64290      34   64299   64296
      33   64302   64296      33   64302   64299      34   64308   64305      33
   64311   64305      33   64311   64308      34   64317   64314      33   64320
   64314      33   64320   64317      34   64326   64323      33   64329   64323
      33   64329   64326      34   64335   64332      33   64338   64332      33
   64338   64335      34   64344   64341      33   64347   64341      33   64347
   64344      34   64353   64350      33   64356   64350      33   64356   64353
      34   64362   64359      33   64365   64359      33   64365   64362      34
   64371   64368      33   64374   64368      33   64374   64371      34   64380
   64377      33   64383   64377      33   64383   64380      34   64389   64386
      33   64392   64386      33   64392   64389      34   64398   64395      33
   64401   64395      33   64401   64398      34   64407   64404      33   64410
   64404      33   64410   64407      34   64416   64413      33   64419   64413
      33   64419   64416      34   64425   64422      33   64428   64422      33
   64428   64425      34   64434   64431      33   64437   64431      33   64437
   64434      34   64443   64440      33   64446   64440      33   64446   64443
      34   64452   64449      33   64455   64449      33   64455   64452      34
   64461   64458      33   64464   64458      33   64464   64461      34   64470
   64467      33   64473   64467      33   64473   64470      34   64479   64476
      33   64482   64476      33   64482   64479      34   64488   64485      33
   64491   64485      33   64491   64488      34   64497   64494      33   64500
   64494      33   64500   64497      34   64506   64503      33   64509   64503
      33   64509   64506      34   64515   64512      33   64518   64512      33
   64518   64515      34   64524   64521      33   64527   64521      33   64527
   64524      34   64533   64530      33   64536   64530      33   64536   64533
      34   64542   64539      33   64545   64539      33   64545   64542      34
   64551   64548      33   64554   64548      33   64554   64551      34   64560
   64557      33   64563   64557      33   64563   64560      34   64569   64566
      33   64572   64566      33   64572   64569      34   64578   64575      33
   64581   64575      33   64581   64578      34   64587   64584      33   64590
   64584      33   64590   64587      34   64596   64593      33   64599   64593
      33   64599   64596      34   64605   64602      33   64608   64602      33
   64608   64605      34   64614   64611      33   64617   64611      33   64617
   64614      34   64623   64620      33   64626   64620      33   64626   64623
      34   64632   64629      33   64635   64629      33   64635   64632      34
   64641   64638      33   64644   64638      33   64644   64641      34   64650
   64647      33   64653   64647      33   64653   64650      34   64659   64656
      33   64662   64656      33   64662   64659      34   64668   64665      33
   64671   64665      33   64671   64668      34   64677   64674      33   64680
   64674      33   64680   64677      34   64686   64683      33   64689   64683
      33   64689   64686      34   64695   64692      33   64698   64692      33
   64698   64695      34   64704   64701      33   64707   64701      33   64707
   64704      34   64713   64710      33   64716   64710      33   64716   64713
      34   64722   64719      33   64725   64719      33   64725   64722      34
   64731   64728      33   64734   64728      33   64734   64731      34   64740
   64737      33   64743   64737      33   64743   64740      34   64749   64746
      33   64752   64746      33   64752   64749      34   64758   64755      33
   64761   64755      33   64761   64758      34   64767   64764      33   64770
   64764      33   64770   64767      34   64776   64773      33   64779   64773
      33   64779   64776      34   64785   64782      33   64788   64782      33
   64788   64785      34   64794   64791      33   64797   64791      33   64797
   64794      34   64803   64800      33   64806   64800      33   64806   64803
      34   64812   64809      33   64815   64809      33   64815   64812      34
   64821   64818      33   64824   64818      33   64824   64821      34   64830
   64827      33   64833   64827      33   64833   64830      34   64839   64836
      33   64842   64836      33   64842   64839      34   64848   64845      33
   64851   64845      33   64851   64848      34   64857   64854      33   64860
   64854      33   64860   64857      34   64866   64863      33   64869   64863
      33   64869   64866      34   64875   64872      33   64878   64872      33
   64878   64875      34   64884   64881      33   64887   64881      33   64887
   64884      34   64893   64890      33   64896   64890      33   64896   64893
      34   64902   64899      33   64905   64899      33   64905   64902      34
   64911   64908      33   64914   64908      33   64914   64911      34   64920
   64917      33   64923   64917      33   64923   64920      34   64929   64926
      33   64932   64926      33   64932   64929      34   64938   64935      33
   64941   64935      33   64941   64938      34   64947   64944      33   64950
   64944      33   64950   64947      34   64956   64953      33   64959   64953
      33   64959   64956      34   64965   64962      33   64968   64962      33
   64968   64965      34   64974   64971      33   64977   64971      33   64977
   64974      34   64983   64980      33   64986   64980      33   64986   64983
      34   64992   64989      33   64995   64989      33   64995   64992      34
   65001   64998      33   65004   64998      33   65004   65001      34   65010
   65007      33   65013   65007      33   65013   65010      34   65019   65016
      33   65022   65016      33   65022   65019      34   65028   65025      33
   65031   65025      33   65031   65028      34   65037   65034      33   65040
   65034      33   65040   65037      34   65046   65043      33   65049   65043
      33   65049   65046      34   65055   65052      33   65058   65052      33
   65058   65055      34   65064   65061      33   65067   65061      33   65067
   65064      34   65073   65070      33   65076   65070      33   65076   65073
      34   65082   65079      33   65085   65079      33   65085   65082      34
   65091   65088      33   65094   65088      33   65094   65091      34   65100
   65097      33   65103   65097      33   65103   65100      34   65109   65106
      33   65112   65106      33   65112   65109      34   65118   65115      33
   65121   65115      33   65121   65118      34   65127   65124      33   65130
   65124      33   65130   65127      34   65136   65133      33   65139   65133
      33   65139   65136      34   65145   65142      33   65148   65142      33
   65148   65145      34   65154   65151      33   65157   65151      33   65157
   65154      34   65163   65160      33   65166   65160      33   65166   65163
      34   65172   65169      33   65175   65169      33   65175   65172      34
   65181   65178      33   65184   65178      33   65184   65181      34   65190
   65187      33   65193   65187      33   65193   65190      34   65199   65196
      33   65202   65196      33   65202   65199      34   65208   65205      33
   65211   65205      33   65211   65208      34   65217   65214      33   65220
   65214      33   65220   65217      34   65226   65223      33   65229   65223
      33   65229   65226      34   65235   65232      33   65238   65232      33
   65238   65235      34   65244   65241      33   65247   65241      33   65247
   65244      34   65253   65250      33   65256   65250      33   65256   65253
      34   65262   65259      33   65265   65259      33   65265   65262      34
   65271   65268      33   65274   65268      33   65274   65271      34   65280
   65277      33   65283   65277      33   65283   65280      34   65289   65286
      33   65292   65286      33   65292   65289      34   65298   65295      33
   65301   65295      33   65301   65298      34   65307   65304      33   65310
   65304      33   65310   65307      34   65316   65313      33   65319   65313
      33   65319   65316      34   65325   65322      33   65328   65322      33
   65328   65325      34   65334   65331      33   65337   65331      33   65337
   65334      34   65343   65340      33   65346   65340      33   65346   65343
      34   65352   65349      33   65355   65349      33   65355   65352      34
   65361   65358      33   65364   65358      33   65364   65361      34   65370
   65367      33   65373   65367      33   65373   65370      34   65379   65376
      33   65382   65376      33   65382   65379      34   65388   65385      33
   65391   65385      33   65391   65388      34   65397   65394      33   65400
   65394      33   65400   65397      34   65406   65403      33   65409   65403
      33   65409   65406      34   65415   65412      33   65418   65412      33
   65418   65415      34   65424   65421      33   65427   65421      33   65427
   65424      34   65433   65430      33   65436   65430      33   65436   65433
      34   65442   65439      33   65445   65439      33   65445   65442      34
   65451   65448      33   65454   65448      33   65454   65451      34   65460
   65457      33   65463   65457      33   65463   65460      34   65469   65466
      33   65472   65466      33   65472   65469      34   65478   65475      33
   65481   65475      33   65481   65478      34   65487   65484      33   65490
   65484      33   65490   65487      34   65496   65493      33   65499   65493
      33   65499   65496      34   65505   65502      33   65508   65502      33
   65508   65505      34   65514   65511      33   65517   65511      33   65517
   65514      34   65523   65520      33   65526   65520      33   65526   65523
      34   65532   65529      33   65535   65529      33   65535   65532      34
   65541   65538      33   65544   65538      33   65544   65541      34   65550
   65547      33   65553   65547      33   65553   65550      34   65559   65556
      33   65562   65556      33   65562   65559      34   65568   65565      33
   65571   65565      33   65571   65568      34   65577   65574      33   65580
   65574      33   65580   65577      34   65586   65583      33   65589   65583
      33   65589   65586      34   65595   65592      33   65598   65592      33
   65598   65595      34   65604   65601      33   65607   65601      33   65607
   65604      34   65613   65610      33   65616   65610      33   65616   65613
      34   65622   65619      33   65625   65619      33   65625   65622      34
   65631   65628      33   65634   65628      33   65634   65631      34   65640
   65637      33   65643   65637      33   65643   65640      34   65649   65646
      33   65652   65646      33   65652   65649      34   65658   65655      33
   65661   65655      33   65661   65658      34   65667   65664      33   65670
   65664      33   65670   65667      34   65676   65673      33   65679   65673
      33   65679   65676      34   65685   65682      33   65688   65682      33
   65688   65685      34   65694   65691      33   65697   65691      33   65697
   65694      34   65703   65700      33   65706   65700      33   65706   65703
      34   65712   65709      33   65715   65709      33   65715   65712      34
   65721   65718      33   65724   65718      33   65724   65721      34   65730
   65727      33   65733   65727      33   65733   65730      34   65739   65736
      33   65742   65736      33   65742   65739      34   65748   65745      33
   65751   65745      33   65751   65748      34   65757   65754      33   65760
   65754      33   65760   65757      34   65766   65763      33   65769   65763
      33   65769   65766      34   65775   65772      33   65778   65772      33
   65778   65775      34   65784   65781      33   65787   65781      33   65787
   65784      34   65793   65790      33   65796   65790      33   65796   65793
      34   65802   65799      33   65805   65799      33   65805   65802      34
   65811   65808      33   65814   65808      33   65814   65811      34   65820
   65817      33   65823   65817      33   65823   65820      34   65829   65826
      33   65832   65826      33   65832   65829      34   65838   65835      33
   65841   65835      33   65841   65838      34   65847   65844      33   65850
   65844      33   65850   65847      34   65856   65853      33   65859   65853
      33   65859   65856      34   65865   65862      33   65868   65862      33
   65868   65865      34   65874   65871      33   65877   65871      33   65877
   65874      34   65883   65880      33   65886   65880      33   65886   65883
      34   65892   65889      33   65895   65889      33   65895   65892      34
   65901   65898      33   65904   65898      33   65904   65901      34   65910
   65907      33   65913   65907      33   65913   65910      34   65919   65916
      33   65922   65916      33   65922   65919      34   65928   65925      33
   65931   65925      33   65931   65928      34   65937   65934      33   65940
   65934      33   65940   65937      34   65946   65943      33   65949   65943
      33   65949   65946      34   65955   65952      33   65958   65952      33
   65958   65955      34   65964   65961      33   65967   65961      33   65967
   65964      34   65973   65970      33   65976   65970      33   65976   65973
      34   65982   65979      33   65985   65979      33   65985   65982      34
   65991   65988      33   65994   65988      33   65994   65991      34   66000
   65997      33   66003   65997      33   66003   66000      34   66009   66006
      33   66012   66006      33   66012   66009      34   66018   66015      33
   66021   66015      33   66021   66018      34   66027   66024      33   66030
   66024      33   66030   66027      34   66036   66033      33   66039   66033
      33   66039   66036      34   66045   66042      33   66048   66042      33
   66048   66045      34   66054   66051      33   66057   66051      33   66057
   66054      34   66063   66060      33   66066   66060      33   66066   66063
      34   66072   66069      33   66075   66069      33   66075   66072      34
   66081   66078      33   66084   66078      33   66084   66081      34   66090
   66087      33   66093   66087      33   66093   66090      34   66099   66096
      33   66102   66096      33   66102   66099      34   66108   66105      33
   66111   66105      33   66111   66108      34   66117   66114      33   66120
   66114      33   66120   66117      34   66126   66123      33   66129   66123
      33   66129   66126      34   66135   66132      33   66138   66132      33
   66138   66135      34   66144   66141      33   66147   66141      33   66147
   66144      34   66153   66150      33   66156   66150      33   66156   66153
      34   66162   66159      33   66165   66159      33   66165   66162      34
   66171   66168      33   66174   66168      33   66174   66171      34   66180
   66177      33   66183   66177      33   66183   66180      34   66189   66186
      33   66192   66186      33   66192   66189      34   66198   66195      33
   66201   66195      33   66201   66198      34   66207   66204      33   66210
   66204      33   66210   66207      34   66216   66213      33   66219   66213
      33   66219   66216      34   66225   66222      33   66228   66222      33
   66228   66225      34   66234   66231      33   66237   66231      33   66237
   66234      34   66243   66240      33   66246   66240      33   66246   66243
      34   66252   66249      33   66255   66249      33   66255   66252      34
   66261   66258      33   66264   66258      33   66264   66261      34   66270
   66267      33   66273   66267      33   66273   66270      34   66279   66276
      33   66282   66276      33   66282   66279      34   66288   66285      33
   66291   66285      33   66291   66288      34   66297   66294      33   66300
   66294      33   66300   66297      34   66306   66303      33   66309   66303
      33   66309   66306      34   66315   66312      33   66318   66312      33
   66318   66315      34   66324   66321      33   66327   66321      33   66327
   66324      34   66333   66330      33   66336   66330      33   66336   66333
      34   66342   66339      33   66345   66339      33   66345   66342      34
   66351   66348      33   66354   66348      33   66354   66351      34   66360
   66357      33   66363   66357      33   66363   66360      34   66369   66366
      33   66372   66366      33   66372   66369      34   66378   66375      33
   66381   66375      33   66381   66378      34   66387   66384      33   66390
   66384      33   66390   66387      34   66396   66393      33   66399   66393
      33   66399   66396      34   66405   66402      33   66408   66402      33
   66408   66405      34   66414   66411      33   66417   66411      33   66417
   66414      34   66423   66420      33   66426   66420      33   66426   66423
      34   66432   66429      33   66435   66429      33   66435   66432      34
   66441   66438      33   66444   66438      33   66444   66441      34   66450
   66447      33   66453   66447      33   66453   66450      34   66459   66456
      33   66462   66456      33   66462   66459      34   66468   66465      33
   66471   66465      33   66471   66468      34   66477   66474      33   66480
   66474      33   66480   66477      34   66486   66483      33   66489   66483
      33   66489   66486      34   66495   66492      33   66498   66492      33
   66498   66495      34   66504   66501      33   66507   66501      33   66507
   66504      34   66513   66510      33   66516   66510      33   66516   66513
      34   66522   66519      33   66525   66519      33   66525   66522      34
   66531   66528      33   66534   66528      33   66534   66531      34   66540
   66537      33   66543   66537      33   66543   66540      34   66549   66546
      33   66552   66546      33   66552   66549      34   66558   66555      33
   66561   66555      33   66561   66558      34   66567   66564      33   66570
   66564      33   66570   66567      34   66576   66573      33   66579   66573
      33   66579   66576      34   66585   66582      33   66588   66582      33
   66588   66585      34   66594   66591      33   66597   66591      33   66597
   66594      34   66603   66600      33   66606   66600      33   66606   66603
      34   66612   66609      33   66615   66609      33   66615   66612      34
   66621   66618      33   66624   66618      33   66624   66621      34   66630
   66627      33   66633   66627      33   66633   66630      34   66639   66636
      33   66642   66636      33   66642   66639      34   66648   66645      33
   66651   66645      33   66651   66648      34   66657   66654      33   66660
   66654      33   66660   66657      34   66666   66663      33   66669   66663
      33   66669   66666      34   66675   66672      33   66678   66672      33
   66678   66675      34   66684   66681      33   66687   66681      33   66687
   66684      34   66693   66690      33   66696   66690      33   66696   66693
      34   66702   66699      33   66705   66699      33   66705   66702      34
   66711   66708      33   66714   66708      33   66714   66711      34   66720
   66717      33   66723   66717      33   66723   66720      34   66729   66726
      33   66732   66726      33   66732   66729      34   66738   66735      33
   66741   66735      33   66741   66738      34   66747   66744      33   66750
   66744      33   66750   66747      34   66756   66753      33   66759   66753
      33   66759   66756      34   66765   66762      33   66768   66762      33
   66768   66765      34   66774   66771      33   66777   66771      33   66777
   66774      34   66783   66780      33   66786   66780      33   66786   66783
      34   66792   66789      33   66795   66789      33   66795   66792      34
   66801   66798      33   66804   66798      33   66804   66801      34   66810
   66807      33   66813   66807      33   66813   66810      34   66819   66816
      33   66822   66816      33   66822   66819      34   66828   66825      33
   66831   66825      33   66831   66828      34   66837   66834      33   66840
   66834      33   66840   66837      34   66846   66843      33   66849   66843
      33   66849   66846      34   66855   66852      33   66858   66852      33
   66858   66855      34   66864   66861      33   66867   66861      33   66867
   66864      34   66873   66870      33   66876   66870      33   66876   66873
      34   66882   66879      33   66885   66879      33   66885   66882      34
   66891   66888      33   66894   66888      33   66894   66891      34   66900
   66897      33   66903   66897      33   66903   66900      34   66909   66906
      33   66912   66906      33   66912   66909      34   66918   66915      33
   66921   66915      33   66921   66918      34   66927   66924      33   66930
   66924      33   66930   66927      34   66936   66933      33   66939   66933
      33   66939   66936      34   66945   66942      33   66948   66942      33
   66948   66945      34   66954   66951      33   66957   66951      33   66957
   66954      34   66963   66960      33   66966   66960      33   66966   66963
      34   66972   66969      33   66975   66969      33   66975   66972      34
   66981   66978      33   66984   66978      33   66984   66981      34   66990
   66987      33   66993   66987      33   66993   66990      34   66999   66996
      33   67002   66996      33   67002   66999      34   67008   67005      33
   67011   67005      33   67011   67008      34   67017   67014      33   67020
   67014      33   67020   67017      34   67026   67023      33   67029   67023
      33   67029   67026      34   67035   67032      33   67038   67032      33
   67038   67035      34   67044   67041      33   67047   67041      33   67047
   67044      34   67053   67050      33   67056   67050      33   67056   67053
      34   67062   67059      33   67065   67059      33   67065   67062      34
   67071   67068      33   67074   67068      33   67074   67071      34   67080
   67077      33   67083   67077      33   67083   67080      34   67089   67086
      33   67092   67086      33   67092   67089      34   67098   67095      33
   67101   67095      33   67101   67098      34   67107   67104      33   67110
   67104      33   67110   67107      34   67116   67113      33   67119   67113
      33   67119   67116      34   67125   67122      33   67128   67122      33
   67128   67125      34   67134   67131      33   67137   67131      33   67137
   67134      34   67143   67140      33   67146   67140      33   67146   67143
      34   67152   67149      33   67155   67149      33   67155   67152      34
   67161   67158      33   67164   67158      33   67164   67161      34   67170
   67167      33   67173   67167      33   67173   67170      34   67179   67176
      33   67182   67176      33   67182   67179      34   67188   67185      33
   67191   67185      33   67191   67188      34   67197   67194      33   67200
   67194      33   67200   67197      34   67206   67203      33   67209   67203
      33   67209   67206      34   67215   67212      33   67218   67212      33
   67218   67215      34   67224   67221      33   67227   67221      33   67227
   67224      34   67233   67230      33   67236   67230      33   67236   67233
      34   67242   67239      33   67245   67239      33   67245   67242      34
   67251   67248      33   67254   67248      33   67254   67251      34   67260
   67257      33   67263   67257      33   67263   67260      34   67269   67266
      33   67272   67266      33   67272   67269      34   67278   67275      33
   67281   67275      33   67281   67278      34   67287   67284      33   67290
   67284      33   67290   67287      34   67296   67293      33   67299   67293
      33   67299   67296      34   67305   67302      33   67308   67302      33
   67308   67305      34   67314   67311      33   67317   67311      33   67317
   67314      34   67323   67320      33   67326   67320      33   67326   67323
      34   67332   67329      33   67335   67329      33   67335   67332      34
   67341   67338      33   67344   67338      33   67344   67341      34   67350
   67347      33   67353   67347      33   67353   67350      34   67359   67356
      33   67362   67356      33   67362   67359      34   67368   67365      33
   67371   67365      33   67371   67368      34   67377   67374      33   67380
   67374      33   67380   67377      34   67386   67383      33   67389   67383
      33   67389   67386      34   67395   67392      33   67398   67392      33
   67398   67395      34   67404   67401      33   67407   67401      33   67407
   67404      34   67413   67410      33   67416   67410      33   67416   67413
      34   67422   67419      33   67425   67419      33   67425   67422      34
   67431   67428      33   67434   67428      33   67434   67431      34   67440
   67437      33   67443   67437      33   67443   67440      34   67449   67446
      33   67452   67446      33   67452   67449      34   67458   67455      33
   67461   67455      33   67461   67458      34   67467   67464      33   67470
   67464      33   67470   67467      34   67476   67473      33   67479   67473
      33   67479   67476      34   67485   67482      33   67488   67482      33
   67488   67485      34   67494   67491      33   67497   67491      33   67497
   67494      34   67503   67500      33   67506   67500      33   67506   67503
      34   67512   67509      33   67515   67509      33   67515   67512      34
   67521   67518      33   67524   67518      33   67524   67521      34   67530
   67527      33   67533   67527      33   67533   67530      34   67539   67536
      33   67542   67536      33   67542   67539      34   67548   67545      33
   67551   67545      33   67551   67548      34   67557   67554      33   67560
   67554      33   67560   67557      34   67566   67563      33   67569   67563
      33   67569   67566      34   67575   67572      33   67578   67572      33
   67578   67575      34   67584   67581      33   67587   67581      33   67587
   67584      34   67593   67590      33   67596   67590      33   67596   67593
      34   67602   67599      33   67605   67599      33   67605   67602      34
   67611   67608      33   67614   67608      33   67614   67611      34   67620
   67617      33   67623   67617      33   67623   67620      34   67629   67626
      33   67632   67626      33   67632   67629      34   67638   67635      33
   67641   67635      33   67641   67638      34   67647   67644      33   67650
   67644      33   67650   67647      34   67656   67653      33   67659   67653
      33   67659   67656      34   67665   67662      33   67668   67662      33
   67668   67665      34   67674   67671      33   67677   67671      33   67677
   67674      34   67683   67680      33   67686   67680      33   67686   67683
      34   67692   67689      33   67695   67689      33   67695   67692      34
   67701   67698      33   67704   67698      33   67704   67701      34   67710
   67707      33   67713   67707      33   67713   67710      34   67719   67716
      33   67722   67716      33   67722   67719      34   67728   67725      33
   67731   67725      33   67731   67728      34   67737   67734      33   67740
   67734      33   67740   67737      34   67746   67743      33   67749   67743
      33   67749   67746      34   67755   67752      33   67758   67752      33
   67758   67755      34   67764   67761      33   67767   67761      33   67767
   67764      34   67773   67770      33   67776   67770      33   67776   67773
      34   67782   67779      33   67785   67779      33   67785   67782      34
   67791   67788      33   67794   67788      33   67794   67791      34   67800
   67797      33   67803   67797      33   67803   67800      34   67809   67806
      33   67812   67806      33   67812   67809      34   67818   67815      33
   67821   67815      33   67821   67818      34   67827   67824      33   67830
   67824      33   67830   67827      34   67836   67833      33   67839   67833
      33   67839   67836      34   67845   67842      33   67848   67842      33
   67848   67845      34   67854   67851      33   67857   67851      33   67857
   67854      34   67863   67860      33   67866   67860      33   67866   67863
      34   67872   67869      33   67875   67869      33   67875   67872      34
   67881   67878      33   67884   67878      33   67884   67881      34   67890
   67887      33   67893   67887      33   67893   67890      34   67899   67896
      33   67902   67896      33   67902   67899      34   67908   67905      33
   67911   67905      33   67911   67908      34   67917   67914      33   67920
   67914      33   67920   67917      34   67926   67923      33   67929   67923
      33   67929   67926      34   67935   67932      33   67938   67932      33
   67938   67935      34   67944   67941      33   67947   67941      33   67947
   67944      34   67953   67950      33   67956   67950      33   67956   67953
      34   67962   67959      33   67965   67959      33   67965   67962      34
   67971   67968      33   67974   67968      33   67974   67971      34   67980
   67977      33   67983   67977      33   67983   67980      34   67989   67986
      33   67992   67986      33   67992   67989      34   67998   67995      33
   68001   67995      33   68001   67998      34   68007   68004      33   68010
   68004      33   68010   68007      34   68016   68013      33   68019   68013
      33   68019   68016      34   68025   68022      33   68028   68022      33
   68028   68025      34   68034   68031      33   68037   68031      33   68037
   68034      34   68043   68040      33   68046   68040      33   68046   68043
      34   68052   68049      33   68055   68049      33   68055   68052      34
   68061   68058      33   68064   68058      33   68064   68061      34   68070
   68067      33   68073   68067      33   68073   68070      34   68079   68076
      33   68082   68076      33   68082   68079      34   68088   68085      33
   68091   68085      33   68091   68088      34   68097   68094      33   68100
   68094      33   68100   68097      34   68106   68103      33   68109   68103
      33   68109   68106      34   68115   68112      33   68118   68112      33
   68118   68115      34   68124   68121      33   68127   68121      33   68127
   68124      34   68133   68130      33   68136   68130      33   68136   68133
      34   68142   68139      33   68145   68139      33   68145   68142      34
   68151   68148      33   68154   68148      33   68154   68151      34   68160
   68157      33   68163   68157      33   68163   68160      34   68169   68166
      33   68172   68166      33   68172   68169      34   68178   68175      33
   68181   68175      33   68181   68178      34   68187   68184      33   68190
   68184      33   68190   68187      34   68196   68193      33   68199   68193
      33   68199   68196      34   68205   68202      33   68208   68202      33
   68208   68205      34   68214   68211      33   68217   68211      33   68217
   68214      34   68223   68220      33   68226   68220      33   68226   68223
      34   68232   68229      33   68235   68229      33   68235   68232      34
   68241   68238      33   68244   68238      33   68244   68241      34   68250
   68247      33   68253   68247      33   68253   68250      34   68259   68256
      33   68262   68256      33   68262   68259      34   68268   68265      33
   68271   68265      33   68271   68268      34   68277   68274      33   68280
   68274      33   68280   68277      34   68286   68283      33   68289   68283
      33   68289   68286      34   68295   68292      33   68298   68292      33
   68298   68295      34   68304   68301      33   68307   68301      33   68307
   68304      34   68313   68310      33   68316   68310      33   68316   68313
      34   68322   68319      33   68325   68319      33   68325   68322      34
   68331   68328      33   68334   68328      33   68334   68331      34   68340
   68337      33   68343   68337      33   68343   68340      34   68349   68346
      33   68352   68346      33   68352   68349      34   68358   68355      33
   68361   68355      33   68361   68358      34   68367   68364      33   68370
   68364      33   68370   68367      34   68376   68373      33   68379   68373
      33   68379   68376      34   68385   68382      33   68388   68382      33
   68388   68385      34   68394   68391      33   68397   68391      33   68397
   68394      34   68403   68400      33   68406   68400      33   68406   68403
      34   68412   68409      33   68415   68409      33   68415   68412      34
   68421   68418      33   68424   68418      33   68424   68421      34   68430
   68427      33   68433   68427      33   68433   68430      34   68439   68436
      33   68442   68436      33   68442   68439      34   68448   68445      33
   68451   68445      33   68451   68448      34   68457   68454      33   68460
   68454      33   68460   68457      34   68466   68463      33   68469   68463
      33   68469   68466      34   68475   68472      33   68478   68472      33
   68478   68475      34   68484   68481      33   68487   68481      33   68487
   68484      34   68493   68490      33   68496   68490      33   68496   68493
      34   68502   68499      33   68505   68499      33   68505   68502      34
   68511   68508      33   68514   68508      33   68514   68511      34   68520
   68517      33   68523   68517      33   68523   68520      34   68529   68526
      33   68532   68526      33   68532   68529      34   68538   68535      33
   68541   68535      33   68541   68538      34   68547   68544      33   68550
   68544      33   68550   68547      34   68556   68553      33   68559   68553
      33   68559   68556      34   68565   68562      33   68568   68562      33
   68568   68565      34   68574   68571      33   68577   68571      33   68577
   68574      34   68583   68580      33   68586   68580      33   68586   68583
      34   68592   68589      33   68595   68589      33   68595   68592      34
   68601   68598      33   68604   68598      33   68604   68601      34   68610
   68607      33   68613   68607      33   68613   68610      34   68619   68616
      33   68622   68616      33   68622   68619      34   68628   68625      33
   68631   68625      33   68631   68628      34   68637   68634      33   68640
   68634      33   68640   68637      34   68646   68643      33   68649   68643
      33   68649   68646      34   68655   68652      33   68658   68652      33
   68658   68655      34   68664   68661      33   68667   68661      33   68667
   68664      34   68673   68670      33   68676   68670      33   68676   68673
      34   68682   68679      33   68685   68679      33   68685   68682      34
   68691   68688      33   68694   68688      33   68694   68691      34   68700
   68697      33   68703   68697      33   68703   68700      34   68709   68706
      33   68712   68706      33   68712   68709      34   68718   68715      33
   68721   68715      33   68721   68718      34   68727   68724      33   68730
   68724      33   68730   68727      34   68736   68733      33   68739   68733
      33   68739   68736      34   68745   68742      33   68748   68742      33
   68748   68745      34   68754   68751      33   68757   68751      33   68757
   68754      34   68763   68760      33   68766   68760      33   68766   68763
      34   68772   68769      33   68775   68769      33   68775   68772      34
   68781   68778      33   68784   68778      33   68784   68781      34   68790
   68787      33   68793   68787      33   68793   68790      34   68799   68796
      33   68802   68796      33   68802   68799      34   68808   68805      33
   68811   68805      33   68811   68808      34   68817   68814      33   68820
   68814      33   68820   68817      34   68826   68823      33   68829   68823
      33   68829   68826      34   68835   68832      33   68838   68832      33
   68838   68835      34   68844   68841      33   68847   68841      33   68847
   68844      34   68853   68850      33   68856   68850      33   68856   68853
      34   68862   68859      33   68865   68859      33   68865   68862      34
   68871   68868      33   68874   68868      33   68874   68871      34   68880
   68877      33   68883   68877      33   68883   68880      34   68889   68886
      33   68892   68886      33   68892   68889      34   68898   68895      33
   68901   68895      33   68901   68898      34   68907   68904      33   68910
   68904      33   68910   68907      34   68916   68913      33   68919   68913
      33   68919   68916      34   68925   68922      33   68928   68922      33
   68928   68925      34   68934   68931      33   68937   68931      33   68937
   68934      34   68943   68940      33   68946   68940      33   68946   68943
      34   68952   68949      33   68955   68949      33   68955   68952      34
   68961   68958      33   68964   68958      33   68964   68961      34   68970
   68967      33   68973   68967      33   68973   68970      34   68979   68976
      33   68982   68976      33   68982   68979      34   68988   68985      33
   68991   68985      33   68991   68988      34   68997   68994      33   69000
   68994      33   69000   68997      34   69006   69003      33   69009   69003
      33   69009   69006      34   69015   69012      33   69018   69012      33
   69018   69015      34   69024   69021      33   69027   69021      33   69027
   69024      34   69033   69030      33   69036   69030      33   69036   69033
      34   69042   69039      33   69045   69039      33   69045   69042      34
   69051   69048      33   69054   69048      33   69054   69051      34   69060
   69057      33   69063   69057      33   69063   69060      34   69069   69066
      33   69072   69066      33   69072   69069      34   69078   69075      33
   69081   69075      33   69081   69078      34   69087   69084      33   69090
   69084      33   69090   69087      34   69096   69093      33   69099   69093
      33   69099   69096      34   69105   69102      33   69108   69102      33
   69108   69105      34   69114   69111      33   69117   69111      33   69117
   69114      34   69123   69120      33   69126   69120      33   69126   69123
      34   69132   69129      33   69135   69129      33   69135   69132      34
   69141   69138      33   69144   69138      33   69144   69141      34   69150
   69147      33   69153   69147      33   69153   69150      34   69159   69156
      33   69162   69156      33   69162   69159      34   69168   69165      33
   69171   69165      33   69171   69168      34   69177   69174      33   69180
   69174      33   69180   69177      34   69186   69183      33   69189   69183
      33   69189   69186      34   69195   69192      33   69198   69192      33
   69198   69195      34   69204   69201      33   69207   69201      33   69207
   69204      34   69213   69210      33   69216   69210      33   69216   69213
      34   69222   69219      33   69225   69219      33   69225   69222      34
   69231   69228      33   69234   69228      33   69234   69231      34   69240
   69237      33   69243   69237      33   69243   69240      34   69249   69246
      33   69252   69246      33   69252   69249      34   69258   69255      33
   69261   69255      33   69261   69258      34   69267   69264      33   69270
   69264      33   69270   69267      34   69276   69273      33   69279   69273
      33   69279   69276      34   69285   69282      33   69288   69282      33
   69288   69285      34   69294   69291      33   69297   69291      33   69297
   69294      34   69303   69300      33   69306   69300      33   69306   69303
      34   69312   69309      33   69315   69309      33   69315   69312      34
   69321   69318      33   69324   69318      33   69324   69321      34   69330
   69327      33   69333   69327      33   69333   69330      34   69339   69336
      33   69342   69336      33   69342   69339      34   69348   69345      33
   69351   69345      33   69351   69348      34   69357   69354      33   69360
   69354      33   69360   69357      34   69366   69363      33   69369   69363
      33   69369   69366      34   69375   69372      33   69378   69372      33
   69378   69375      34   69384   69381      33   69387   69381      33   69387
   69384      34   69393   69390      33   69396   69390      33   69396   69393
      34   69402   69399      33   69405   69399      33   69405   69402      34
   69411   69408      33   69414   69408      33   69414   69411      34   69420
   69417      33   69423   69417      33   69423   69420      34   69429   69426
      33   69432   69426      33   69432   69429      34   69438   69435      33
   69441   69435      33   69441   69438      34   69447   69444      33   69450
   69444      33   69450   69447      34   69456   69453      33   69459   69453
      33   69459   69456      34   69465   69462      33   69468   69462      33
   69468   69465      34   69474   69471      33   69477   69471      33   69477
   69474      34   69483   69480      33   69486   69480      33   69486   69483
      34   69492   69489      33   69495   69489      33   69495   69492      34
   69501   69498      33   69504   69498      33   69504   69501      34   69510
   69507      33   69513   69507      33   69513   69510      34   69519   69516
      33   69522   69516      33   69522   69519      34   69528   69525      33
   69531   69525      33   69531   69528      34   69537   69534      33   69540
   69534      33   69540   69537      34   69546   69543      33   69549   69543
      33   69549   69546      34   69555   69552      33   69558   69552      33
   69558   69555      34   69564   69561      33   69567   69561      33   69567
   69564      34   69573   69570      33   69576   69570      33   69576   69573
      34   69582   69579      33   69585   69579      33   69585   69582      34
   69591   69588      33   69594   69588      33   69594   69591      34   69600
   69597      33   69603   69597      33   69603   69600      34   69609   69606
      33   69612   69606      33   69612   69609      34   69618   69615      33
   69621   69615      33   69621   69618      34   69627   69624      33   69630
   69624      33   69630   69627      34   69636   69633      33   69639   69633
      33   69639   69636      34   69645   69642      33   69648   69642      33
   69648   69645      34   69654   69651      33   69657   69651      33   69657
   69654      34   69663   69660      33   69666   69660      33   69666   69663
      34   69672   69669      33   69675   69669      33   69675   69672      34
   69681   69678      33   69684   69678      33   69684   69681      34   69690
   69687      33   69693   69687      33   69693   69690      34   69699   69696
      33   69702   69696      33   69702   69699      34   69708   69705      33
   69711   69705      33   69711   69708      34   69717   69714      33   69720
   69714      33   69720   69717      34   69726   69723      33   69729   69723
      33   69729   69726      34   69735   69732      33   69738   69732      33
   69738   69735      34   69744   69741      33   69747   69741      33   69747
   69744      34   69753   69750      33   69756   69750      33   69756   69753
      34   69762   69759      33   69765   69759      33   69765   69762      34
   69771   69768      33   69774   69768      33   69774   69771      34   69780
   69777      33   69783   69777      33   69783   69780      34   69789   69786
      33   69792   69786      33   69792   69789      34   69798   69795      33
   69801   69795      33   69801   69798      34   69807   69804      33   69810
   69804      33   69810   69807      34   69816   69813      33   69819   69813
      33   69819   69816      34   69825   69822      33   69828   69822      33
   69828   69825      34   69834   69831      33   69837   69831      33   69837
   69834      34   69843   69840      33   69846   69840      33   69846   69843
      34   69852   69849      33   69855   69849      33   69855   69852      34
   69861   69858      33   69864   69858      33   69864   69861      34   69870
   69867      33   69873   69867      33   69873   69870      34   69879   69876
      33   69882   69876      33   69882   69879      34   69888   69885      33
   69891   69885      33   69891   69888      34   69897   69894      33   69900
   69894      33   69900   69897      34   69906   69903      33   69909   69903
      33   69909   69906      34   69915   69912      33   69918   69912      33
   69918   69915      34   69924   69921      33   69927   69921      33   69927
   69924      34   69933   69930      33   69936   69930      33   69936   69933
      34   69942   69939      33   69945   69939      33   69945   69942      34
   69951   69948      33   69954   69948      33   69954   69951      34   69960
   69957      33   69963   69957      33   69963   69960      34   69969   69966
      33   69972   69966      33   69972   69969      34   69978   69975      33
   69981   69975      33   69981   69978      34   69987   69984      33   69990
   69984      33   69990   69987      34   69996   69993      33   69999   69993
      33   69999   69996      34   70005   70002      33   70008   70002      33
   70008   70005      34   70014   70011      33   70017   70011      33   70017
   70014      34   70023   70020      33   70026   70020      33   70026   70023
      34   70032   70029      33   70035   70029      33   70035   70032      34
   70041   70038      33   70044   70038      33   70044   70041      34   70050
   70047      33   70053   70047      33   70053   70050      34   70059   70056
      33   70062   70056      33   70062   70059      34   70068   70065      33
   70071   70065      33   70071   70068      34   70077   70074      33   70080
   70074      33   70080   70077      34   70086   70083      33   70089   70083
      33   70089   70086      34   70095   70092      33   70098   70092      33
   70098   70095      34   70104   70101      33   70107   70101      33   70107
   70104      34   70113   70110      33   70116   70110      33   70116   70113
      34   70122   70119      33   70125   70119      33   70125   70122      34
   70131   70128      33   70134   70128      33   70134   70131      34   70140
   70137      33   70143   70137      33   70143   70140      34   70149   70146
      33   70152   70146      33   70152   70149      34   70158   70155      33
   70161   70155      33   70161   70158      34   70167   70164      33   70170
   70164      33   70170   70167      34   70176   70173      33   70179   70173
      33   70179   70176      34   70185   70182      33   70188   70182      33
   70188   70185      34   70194   70191      33   70197   70191      33   70197
   70194      34   70203   70200      33   70206   70200      33   70206   70203
      34   70212   70209      33   70215   70209      33   70215   70212      34
   70221   70218      33   70224   70218      33   70224   70221      34   70230
   70227      33   70233   70227      33   70233   70230      34   70239   70236
      33   70242   70236      33   70242   70239      34   70248   70245      33
   70251   70245      33   70251   70248      34   70257   70254      33   70260
   70254      33   70260   70257      34   70266   70263      33   70269   70263
      33   70269   70266      34   70275   70272      33   70278   70272      33
   70278   70275      34   70284   70281      33   70287   70281      33   70287
   70284      34   70293   70290      33   70296   70290      33   70296   70293
      34   70302   70299      33   70305   70299      33   70305   70302      34
   70311   70308      33   70314   70308      33   70314   70311      34   70320
   70317      33   70323   70317      33   70323   70320      34   70329   70326
      33   70332   70326      33   70332   70329      34   70338   70335      33
   70341   70335      33   70341   70338      34   70347   70344      33   70350
   70344      33   70350   70347      34   70356   70353      33   70359   70353
      33   70359   70356      34   70365   70362      33   70368   70362      33
   70368   70365      34   70374   70371      33   70377   70371      33   70377
   70374      34   70383   70380      33   70386   70380      33   70386   70383
      34   70392   70389      33   70395   70389      33   70395   70392      34
   70401   70398      33   70404   70398      33   70404   70401      34   70410
   70407      33   70413   70407      33   70413   70410      34   70419   70416
      33   70422   70416      33   70422   70419      34   70428   70425      33
   70431   70425      33   70431   70428      34   70437   70434      33   70440
   70434      33   70440   70437      34   70446   70443      33   70449   70443
      33   70449   70446      34   70455   70452      33   70458   70452      33
   70458   70455      34   70464   70461      33   70467   70461      33   70467
   70464      34   70473   70470      33   70476   70470      33   70476   70473
      34   70482   70479      33   70485   70479      33   70485   70482      34
   70491   70488      33   70494   70488      33   70494   70491      34   70500
   70497      33   70503   70497      33   70503   70500      34   70509   70506
      33   70512   70506      33   70512   70509      34   70518   70515      33
   70521   70515      33   70521   70518      34   70527   70524      33   70530
   70524      33   70530   70527      34   70536   70533      33   70539   70533
      33   70539   70536      34   70545   70542      33   70548   70542      33
   70548   70545      34   70554   70551      33   70557   70551      33   70557
   70554      34   70563   70560      33   70566   70560      33   70566   70563
      34   70572   70569      33   70575   70569      33   70575   70572      34
   70581   70578      33   70584   70578      33   70584   70581      34   70590
   70587      33   70593   70587      33   70593   70590      34   70599   70596
      33   70602   70596      33   70602   70599      34   70608   70605      33
   70611   70605      33   70611   70608      34   70617   70614      33   70620
   70614      33   70620   70617      34   70626   70623      33   70629   70623
      33   70629   70626      34   70635   70632      33   70638   70632      33
   70638   70635      34   70644   70641      33   70647   70641      33   70647
   70644      34   70653   70650      33   70656   70650      33   70656   70653
      34   70662   70659      33   70665   70659      33   70665   70662      34
   70671   70668      33   70674   70668      33   70674   70671      34   70680
   70677      33   70683   70677      33   70683   70680      34   70689   70686
      33   70692   70686      33   70692   70689      34   70698   70695      33
   70701   70695      33   70701   70698      34   70707   70704      33   70710
   70704      33   70710   70707      34   70716   70713      33   70719   70713
      33   70719   70716      34   70725   70722      33   70728   70722      33
   70728   70725      34   70734   70731      33   70737   70731      33   70737
   70734      34   70743   70740      33   70746   70740      33   70746   70743
      34   70752   70749      33   70755   70749      33   70755   70752      34
   70761   70758      33   70764   70758      33   70764   70761      34   70770
   70767      33   70773   70767      33   70773   70770      34   70779   70776
      33   70782   70776      33   70782   70779      34   70788   70785      33
   70791   70785      33   70791   70788      34   70797   70794      33   70800
   70794      33   70800   70797      34   70806   70803      33   70809   70803
      33   70809   70806      34   70815   70812      33   70818   70812      33
   70818   70815      34   70824   70821      33   70827   70821      33   70827
   70824      34   70833   70830      33   70836   70830      33   70836   70833
      34   70842   70839      33   70845   70839      33   70845   70842      34
   70851   70848      33   70854   70848      33   70854   70851      34   70860
   70857      33   70863   70857      33   70863   70860      34   70869   70866
      33   70872   70866      33   70872   70869      34   70878   70875      33
   70881   70875      33   70881   70878      34   70887   70884      33   70890
   70884      33   70890   70887      34   70896   70893      33   70899   70893
      33   70899   70896      34   70905   70902      33   70908   70902      33
   70908   70905      34   70914   70911      33   70917   70911      33   70917
   70914      34   70923   70920      33   70926   70920      33   70926   70923
      34   70932   70929      33   70935   70929      33   70935   70932      34
   70941   70938      33   70944   70938      33   70944   70941      34   70950
   70947      33   70953   70947      33   70953   70950      34   70959   70956
      33   70962   70956      33   70962   70959      34   70968   70965      33
   70971   70965      33   70971   70968      34   70977   70974      33   70980
   70974      33   70980   70977      34   70986   70983      33   70989   70983
      33   70989   70986      34   70995   70992      33   70998   70992      33
   70998   70995      34   71004   71001      33   71007   71001      33   71007
   71004      34   71013   71010      33   71016   71010      33   71016   71013
      34   71022   71019      33   71025   71019      33   71025   71022      34
   71031   71028      33   71034   71028      33   71034   71031      34   71040
   71037      33   71043   71037      33   71043   71040      34   71049   71046
      33   71052   71046      33   71052   71049      34   71058   71055      33
   71061   71055      33   71061   71058      34   71067   71064      33   71070
   71064      33   71070   71067      34   71076   71073      33   71079   71073
      33   71079   71076      34   71085   71082      33   71088   71082      33
   71088   71085      34   71094   71091      33   71097   71091      33   71097
   71094      34   71103   71100      33   71106   71100      33   71106   71103
      34   71112   71109      33   71115   71109      33   71115   71112      34
   71121   71118      33   71124   71118      33   71124   71121      34   71130
   71127      33   71133   71127      33   71133   71130      34   71139   71136
      33   71142   71136      33   71142   71139      34   71148   71145      33
   71151   71145      33   71151   71148      34   71157   71154      33   71160
   71154      33   71160   71157      34   71166   71163      33   71169   71163
      33   71169   71166      34   71175   71172      33   71178   71172      33
   71178   71175      34   71184   71181      33   71187   71181      33   71187
   71184      34   71193   71190      33   71196   71190      33   71196   71193
      34   71202   71199      33   71205   71199      33   71205   71202      34
   71211   71208      33   71214   71208      33   71214   71211      34   71220
   71217      33   71223   71217      33   71223   71220      34   71229   71226
      33   71232   71226      33   71232   71229      34   71238   71235      33
   71241   71235      33   71241   71238      34   71247   71244      33   71250
   71244      33   71250   71247      34   71256   71253      33   71259   71253
      33   71259   71256      34   71265   71262      33   71268   71262      33
   71268   71265      34   71274   71271      33   71277   71271      33   71277
   71274      34   71283   71280      33   71286   71280      33   71286   71283
      34   71292   71289      33   71295   71289      33   71295   71292      34
   71301   71298      33   71304   71298      33   71304   71301      34   71310
   71307      33   71313   71307      33   71313   71310      34   71319   71316
      33   71322   71316      33   71322   71319      34   71328   71325      33
   71331   71325      33   71331   71328      34   71337   71334      33   71340
   71334      33   71340   71337      34   71346   71343      33   71349   71343
      33   71349   71346      34   71355   71352      33   71358   71352      33
   71358   71355      34   71364   71361      33   71367   71361      33   71367
   71364      34   71373   71370      33   71376   71370      33   71376   71373
      34   71382   71379      33   71385   71379      33   71385   71382      34
   71391   71388      33   71394   71388      33   71394   71391      34   71400
   71397      33   71403   71397      33   71403   71400      34   71409   71406
      33   71412   71406      33   71412   71409      34   71418   71415      33
   71421   71415      33   71421   71418      34   71427   71424      33   71430
   71424      33   71430   71427      34   71436   71433      33   71439   71433
      33   71439   71436      34   71445   71442      33   71448   71442      33
   71448   71445      34   71454   71451      33   71457   71451      33   71457
   71454      34   71463   71460      33   71466   71460      33   71466   71463
      34   71472   71469      33   71475   71469      33   71475   71472      34
   71481   71478      33   71484   71478      33   71484   71481      34   71490
   71487      33   71493   71487      33   71493   71490      34   71499   71496
      33   71502   71496      33   71502   71499      34   71508   71505      33
   71511   71505      33   71511   71508      34   71517   71514      33   71520
   71514      33   71520   71517      34   71526   71523      33   71529   71523
      33   71529   71526      34   71535   71532      33   71538   71532      33
   71538   71535      34   71544   71541      33   71547   71541      33   71547
   71544      34   71553   71550      33   71556   71550      33   71556   71553
      34   71562   71559      33   71565   71559      33   71565   71562      34
   71571   71568      33   71574   71568      33   71574   71571      34   71580
   71577      33   71583   71577      33   71583   71580      34   71589   71586
      33   71592   71586      33   71592   71589      34   71598   71595      33
   71601   71595      33   71601   71598      34   71607   71604      33   71610
   71604      33   71610   71607      34   71616   71613      33   71619   71613
      33   71619   71616      34   71625   71622      33   71628   71622      33
   71628   71625      34   71634   71631      33   71637   71631      33   71637
   71634      34   71643   71640      33   71646   71640      33   71646   71643
      34   71652   71649      33   71655   71649      33   71655   71652      34
   71661   71658      33   71664   71658      33   71664   71661      34   71670
   71667      33   71673   71667      33   71673   71670      34   71679   71676
      33   71682   71676      33   71682   71679      34   71688   71685      33
   71691   71685      33   71691   71688      34   71697   71694      33   71700
   71694      33   71700   71697      34   71706   71703      33   71709   71703
      33   71709   71706      34   71715   71712      33   71718   71712      33
   71718   71715      34   71724   71721      33   71727   71721      33   71727
   71724      34   71733   71730      33   71736   71730      33   71736   71733
      34   71742   71739      33   71745   71739      33   71745   71742      34
   71751   71748      33   71754   71748      33   71754   71751      34   71760
   71757      33   71763   71757      33   71763   71760      34   71769   71766
      33   71772   71766      33   71772   71769      34   71778   71775      33
   71781   71775      33   71781   71778      34   71787   71784      33   71790
   71784      33   71790   71787      34   71796   71793      33   71799   71793
      33   71799   71796      34   71805   71802      33   71808   71802      33
   71808   71805      34   71814   71811      33   71817   71811      33   71817
   71814      34   71823   71820      33   71826   71820      33   71826   71823
      34   71832   71829      33   71835   71829      33   71835   71832      34
   71841   71838      33   71844   71838      33   71844   71841      34   71850
   71847      33   71853   71847      33   71853   71850      34   71859   71856
      33   71862   71856      33   71862   71859      34   71868   71865      33
   71871   71865      33   71871   71868      34   71877   71874      33   71880
   71874      33   71880   71877      34   71886   71883      33   71889   71883
      33   71889   71886      34   71895   71892      33   71898   71892      33
   71898   71895      34   71904   71901      33   71907   71901      33   71907
   71904      34   71913   71910      33   71916   71910      33   71916   71913
      34   71922   71919      33   71925   71919      33   71925   71922      34
   71931   71928      33   71934   71928      33   71934   71931      34   71940
   71937      33   71943   71937      33   71943   71940      34   71949   71946
      33   71952   71946      33   71952   71949      34   71958   71955      33
   71961   71955      33   71961   71958      34   71967   71964      33   71970
   71964      33   71970   71967      34   71976   71973      33   71979   71973
      33   71979   71976      34   71985   71982      33   71988   71982      33
   71988   71985      34   71994   71991      33   71997   71991      33   71997
   71994      34   72003   72000      33   72006   72000      33   72006   72003
      34   72012   72009      33   72015   72009      33   72015   72012      34
   72021   72018      33   72024   72018      33   72024   72021      34   72030
   72027      33   72033   72027      33   72033   72030      34   72039   72036
      33   72042   72036      33   72042   72039      34   72048   72045      33
   72051   72045      33   72051   72048      34   72057   72054      33   72060
   72054      33   72060   72057      34   72066   72063      33   72069   72063
      33   72069   72066      34   72075   72072      33   72078   72072      33
   72078   72075      34   72084   72081      33   72087   72081      33   72087
   72084      34   72093   72090      33   72096   72090      33   72096   72093
      34   72102   72099      33   72105   72099      33   72105   72102      34
   72111   72108      33   72114   72108      33   72114   72111      34   72120
   72117      33   72123   72117      33   72123   72120      34   72129   72126
      33   72132   72126      33   72132   72129      34   72138   72135      33
   72141   72135      33   72141   72138      34   72147   72144      33   72150
   72144      33   72150   72147      34   72156   72153      33   72159   72153
      33   72159   72156      34   72165   72162      33   72168   72162      33
   72168   72165      34   72174   72171      33   72177   72171      33   72177
   72174      34   72183   72180      33   72186   72180      33   72186   72183
      34   72192   72189      33   72195   72189      33   72195   72192      34
   72201   72198      33   72204   72198      33   72204   72201      34   72210
   72207      33   72213   72207      33   72213   72210      34   72219   72216
      33   72222   72216      33   72222   72219      34   72228   72225      33
   72231   72225      33   72231   72228      34   72237   72234      33   72240
   72234      33   72240   72237      34   72246   72243      33   72249   72243
      33   72249   72246      34   72255   72252      33   72258   72252      33
   72258   72255      34   72264   72261      33   72267   72261      33   72267
   72264      34   72273   72270      33   72276   72270      33   72276   72273
      34   72282   72279      33   72285   72279      33   72285   72282      34
   72291   72288      33   72294   72288      33   72294   72291      34   72300
   72297      33   72303   72297      33   72303   72300      34   72309   72306
      33   72312   72306      33   72312   72309      34   72318   72315      33
   72321   72315      33   72321   72318      34   72327   72324      33   72330
   72324      33   72330   72327      34   72336   72333      33   72339   72333
      33   72339   72336      34   72345   72342      33   72348   72342      33
   72348   72345      34   72354   72351      33   72357   72351      33   72357
   72354      34   72363   72360      33   72366   72360      33   72366   72363
      34   72372   72369      33   72375   72369      33   72375   72372      34
   72381   72378      33   72384   72378      33   72384   72381      34   72390
   72387      33   72393   72387      33   72393   72390      34   72399   72396
      33   72402   72396      33   72402   72399      34   72408   72405      33
   72411   72405      33   72411   72408      34   72417   72414      33   72420
   72414      33   72420   72417      34   72426   72423      33   72429   72423
      33   72429   72426      34   72435   72432      33   72438   72432      33
   72438   72435      34   72444   72441      33   72447   72441      33   72447
   72444      34   72453   72450      33   72456   72450      33   72456   72453
      34   72462   72459      33   72465   72459      33   72465   72462      34
   72471   72468      33   72474   72468      33   72474   72471      34   72480
   72477      33   72483   72477      33   72483   72480      34   72489   72486
      33   72492   72486      33   72492   72489      34   72498   72495      33
   72501   72495      33   72501   72498      34   72507   72504      33   72510
   72504      33   72510   72507      34   72516   72513      33   72519   72513
      33   72519   72516      34   72525   72522      33   72528   72522      33
   72528   72525      34   72534   72531      33   72537   72531      33   72537
   72534      34   72543   72540      33   72546   72540      33   72546   72543
      34   72552   72549      33   72555   72549      33   72555   72552      34
   72561   72558      33   72564   72558      33   72564   72561      34   72570
   72567      33   72573   72567      33   72573   72570      34   72579   72576
      33   72582   72576      33   72582   72579      34   72588   72585      33
   72591   72585      33   72591   72588      34   72597   72594      33   72600
   72594      33   72600   72597      34   72606   72603      33   72609   72603
      33   72609   72606      34   72615   72612      33   72618   72612      33
   72618   72615      34   72624   72621      33   72627   72621      33   72627
   72624      34   72633   72630      33   72636   72630      33   72636   72633
      34   72642   72639      33   72645   72639      33   72645   72642      34
   72651   72648      33   72654   72648      33   72654   72651      34   72660
   72657      33   72663   72657      33   72663   72660      34   72669   72666
      33   72672   72666      33   72672   72669      34   72678   72675      33
   72681   72675      33   72681   72678      34   72687   72684      33   72690
   72684      33   72690   72687      34   72696   72693      33   72699   72693
      33   72699   72696      34   72705   72702      33   72708   72702      33
   72708   72705      34   72714   72711      33   72717   72711      33   72717
   72714      34   72723   72720      33   72726   72720      33   72726   72723
      34   72732   72729      33   72735   72729      33   72735   72732      34
   72741   72738      33   72744   72738      33   72744   72741      34   72750
   72747      33   72753   72747      33   72753   72750      34   72759   72756
      33   72762   72756      33   72762   72759      34   72768   72765      33
   72771   72765      33   72771   72768      34   72777   72774      33   72780
   72774      33   72780   72777      34   72786   72783      33   72789   72783
      33   72789   72786      34   72795   72792      33   72798   72792      33
   72798   72795      34   72804   72801      33   72807   72801      33   72807
   72804      34   72813   72810      33   72816   72810      33   72816   72813
      34   72822   72819      33   72825   72819      33   72825   72822      34
   72831   72828      33   72834   72828      33   72834   72831      34   72840
   72837      33   72843   72837      33   72843   72840      34   72849   72846
      33   72852   72846      33   72852   72849      34   72858   72855      33
   72861   72855      33   72861   72858      34   72867   72864      33   72870
   72864      33   72870   72867      34   72876   72873      33   72879   72873
      33   72879   72876      34   72885   72882      33   72888   72882      33
   72888   72885      34   72894   72891      33   72897   72891      33   72897
   72894      34   72903   72900      33   72906   72900      33   72906   72903
      34   72912   72909      33   72915   72909      33   72915   72912      34
   72921   72918      33   72924   72918      33   72924   72921      34   72930
   72927      33   72933   72927      33   72933   72930      34   72939   72936
      33   72942   72936      33   72942   72939      34   72948   72945      33
   72951   72945      33   72951   72948      34   72957   72954      33   72960
   72954      33   72960   72957      34   72966   72963      33   72969   72963
      33   72969   72966      34   72975   72972      33   72978   72972      33
   72978   72975      34   72984   72981      33   72987   72981      33   72987
   72984      34   72993   72990      33   72996   72990      33   72996   72993
      34   73002   72999      33   73005   72999      33   73005   73002      34
   73011   73008      33   73014   73008      33   73014   73011      34   73020
   73017      33   73023   73017      33   73023   73020      34   73029   73026
      33   73032   73026      33   73032   73029      34   73038   73035      33
   73041   73035      33   73041   73038      34   73047   73044      33   73050
   73044      33   73050   73047      34   73056   73053      33   73059   73053
      33   73059   73056      34   73065   73062      33   73068   73062      33
   73068   73065      34   73074   73071      33   73077   73071      33   73077
   73074      34   73083   73080      33   73086   73080      33   73086   73083
      34   73092   73089      33   73095   73089      33   73095   73092      34
   73101   73098      33   73104   73098      33   73104   73101      34   73110
   73107      33   73113   73107      33   73113   73110      34   73119   73116
      33   73122   73116      33   73122   73119      34   73128   73125      33
   73131   73125      33   73131   73128      34   73137   73134      33   73140
   73134      33   73140   73137      34   73146   73143      33   73149   73143
      33   73149   73146      34   73155   73152      33   73158   73152      33
   73158   73155      34   73164   73161      33   73167   73161      33   73167
   73164      34   73173   73170      33   73176   73170      33   73176   73173
      34   73182   73179      33   73185   73179      33   73185   73182      34
   73191   73188      33   73194   73188      33   73194   73191      34   73200
   73197      33   73203   73197      33   73203   73200      34   73209   73206
      33   73212   73206      33   73212   73209      34   73218   73215      33
   73221   73215      33   73221   73218      34   73227   73224      33   73230
   73224      33   73230   73227      34   73236   73233      33   73239   73233
      33   73239   73236      34   73245   73242      33   73248   73242      33
   73248   73245      34   73254   73251      33   73257   73251      33   73257
   73254      34   73263   73260      33   73266   73260      33   73266   73263
      34   73272   73269      33   73275   73269      33   73275   73272      34
   73281   73278      33   73284   73278      33   73284   73281      34   73290
   73287      33   73293   73287      33   73293   73290      34   73299   73296
      33   73302   73296      33   73302   73299      34   73308   73305      33
   73311   73305      33   73311   73308      34   73317   73314      33   73320
   73314      33   73320   73317      34   73326   73323      33   73329   73323
      33   73329   73326      34   73335   73332      33   73338   73332      33
   73338   73335      34   73344   73341      33   73347   73341      33   73347
   73344      34   73353   73350      33   73356   73350      33   73356   73353
      34   73362   73359      33   73365   73359      33   73365   73362      34
   73371   73368      33   73374   73368      33   73374   73371      34   73380
   73377      33   73383   73377      33   73383   73380      34   73389   73386
      33   73392   73386      33   73392   73389      34   73398   73395      33
   73401   73395      33   73401   73398      34   73407   73404      33   73410
   73404      33   73410   73407      34   73416   73413      33   73419   73413
      33   73419   73416      34   73425   73422      33   73428   73422      33
   73428   73425      34   73434   73431      33   73437   73431      33   73437
   73434      34   73443   73440      33   73446   73440      33   73446   73443
      34   73452   73449      33   73455   73449      33   73455   73452      34
   73461   73458      33   73464   73458      33   73464   73461      34   73470
   73467      33   73473   73467      33   73473   73470      34   73479   73476
      33   73482   73476      33   73482   73479      34   73488   73485      33
   73491   73485      33   73491   73488      34   73497   73494      33   73500
   73494      33   73500   73497      34   73506   73503      33   73509   73503
      33   73509   73506      34   73515   73512      33   73518   73512      33
   73518   73515      34   73524   73521      33   73527   73521      33   73527
   73524      34   73533   73530      33   73536   73530      33   73536   73533
      34   73542   73539      33   73545   73539      33   73545   73542      34
   73551   73548      33   73554   73548      33   73554   73551      34   73560
   73557      33   73563   73557      33   73563   73560      34   73569   73566
      33   73572   73566      33   73572   73569      34   73578   73575      33
   73581   73575      33   73581   73578      34   73587   73584      33   73590
   73584      33   73590   73587      34   73596   73593      33   73599   73593
      33   73599   73596      34   73605   73602      33   73608   73602      33
   73608   73605      34   73614   73611      33   73617   73611      33   73617
   73614      34   73623   73620      33   73626   73620      33   73626   73623
      34   73632   73629      33   73635   73629      33   73635   73632      34
   73641   73638      33   73644   73638      33   73644   73641      34   73650
   73647      33   73653   73647      33   73653   73650      34   73659   73656
      33   73662   73656      33   73662   73659      34   73668   73665      33
   73671   73665      33   73671   73668      34   73677   73674      33   73680
   73674      33   73680   73677      34   73686   73683      33   73689   73683
      33   73689   73686      34   73695   73692      33   73698   73692      33
   73698   73695      34   73704   73701      33   73707   73701      33   73707
   73704      34   73713   73710      33   73716   73710      33   73716   73713
      34   73722   73719      33   73725   73719      33   73725   73722      34
   73731   73728      33   73734   73728      33   73734   73731      34   73740
   73737      33   73743   73737      33   73743   73740      34   73749   73746
      33   73752   73746      33   73752   73749      34   73758   73755      33
   73761   73755      33   73761   73758      34   73767   73764      33   73770
   73764      33   73770   73767      34   73776   73773      33   73779   73773
      33   73779   73776      34   73785   73782      33   73788   73782      33
   73788   73785      34   73794   73791      33   73797   73791      33   73797
   73794      34   73803   73800      33   73806   73800      33   73806   73803
      34   73812   73809      33   73815   73809      33   73815   73812      34
   73821   73818      33   73824   73818      33   73824   73821      34   73830
   73827      33   73833   73827      33   73833   73830      34   73839   73836
      33   73842   73836      33   73842   73839      34   73848   73845      33
   73851   73845      33   73851   73848      34   73857   73854      33   73860
   73854      33   73860   73857      34   73866   73863      33   73869   73863
      33   73869   73866      34   73875   73872      33   73878   73872      33
   73878   73875      34   73884   73881      33   73887   73881      33   73887
   73884      34   73893   73890      33   73896   73890      33   73896   73893
      34   73902   73899      33   73905   73899      33   73905   73902      34
   73911   73908      33   73914   73908      33   73914   73911      34   73920
   73917      33   73923   73917      33   73923   73920      34   73929   73926
      33   73932   73926      33   73932   73929      34   73938   73935      33
   73941   73935      33   73941   73938      34   73947   73944      33   73950
   73944      33   73950   73947      34   73956   73953      33   73959   73953
      33   73959   73956      34   73965   73962      33   73968   73962      33
   73968   73965      34   73974   73971      33   73977   73971      33   73977
   73974      34   73983   73980      33   73986   73980      33   73986   73983
      34   73992   73989      33   73995   73989      33   73995   73992      34
   74001   73998      33   74004   73998      33   74004   74001      34   74010
   74007      33   74013   74007      33   74013   74010      34   74019   74016
      33   74022   74016      33   74022   74019      34   74028   74025      33
   74031   74025      33   74031   74028      34   74037   74034      33   74040
   74034      33   74040   74037      34   74046   74043      33   74049   74043
      33   74049   74046      34   74055   74052      33   74058   74052      33
   74058   74055      34   74064   74061      33   74067   74061      33   74067
   74064      34   74073   74070      33   74076   74070      33   74076   74073
      34   74082   74079      33   74085   74079      33   74085   74082      34
   74091   74088      33   74094   74088      33   74094   74091      34   74100
   74097      33   74103   74097      33   74103   74100      34   74109   74106
      33   74112   74106      33   74112   74109      34   74118   74115      33
   74121   74115      33   74121   74118      34   74127   74124      33   74130
   74124      33   74130   74127      34   74136   74133      33   74139   74133
      33   74139   74136      34   74145   74142      33   74148   74142      33
   74148   74145      34   74154   74151      33   74157   74151      33   74157
   74154      34   74163   74160      33   74166   74160      33   74166   74163
      34   74172   74169      33   74175   74169      33   74175   74172      34
   74181   74178      33   74184   74178      33   74184   74181      34   74190
   74187      33   74193   74187      33   74193   74190      34   74199   74196
      33   74202   74196      33   74202   74199      34   74208   74205      33
   74211   74205      33   74211   74208      34   74217   74214      33   74220
   74214      33   74220   74217      34   74226   74223      33   74229   74223
      33   74229   74226      34   74235   74232      33   74238   74232      33
   74238   74235      34   74244   74241      33   74247   74241      33   74247
   74244      34   74253   74250      33   74256   74250      33   74256   74253
      34   74262   74259      33   74265   74259      33   74265   74262      34
   74271   74268      33   74274   74268      33   74274   74271      34   74280
   74277      33   74283   74277      33   74283   74280      34   74289   74286
      33   74292   74286      33   74292   74289      34   74298   74295      33
   74301   74295      33   74301   74298      34   74307   74304      33   74310
   74304      33   74310   74307      34   74316   74313      33   74319   74313
      33   74319   74316      34   74325   74322      33   74328   74322      33
   74328   74325      34   74334   74331      33   74337   74331      33   74337
   74334      34   74343   74340      33   74346   74340      33   74346   74343
      34   74352   74349      33   74355   74349      33   74355   74352      34
   74361   74358      33   74364   74358      33   74364   74361      34   74370
   74367      33   74373   74367      33   74373   74370      34   74379   74376
      33   74382   74376      33   74382   74379      34   74388   74385      33
   74391   74385      33   74391   74388      34   74397   74394      33   74400
   74394      33   74400   74397      34   74406   74403      33   74409   74403
      33   74409   74406      34   74415   74412      33   74418   74412      33
   74418   74415      34   74424   74421      33   74427   74421      33   74427
   74424      34   74433   74430      33   74436   74430      33   74436   74433
      34   74442   74439      33   74445   74439      33   74445   74442      34
   74451   74448      33   74454   74448      33   74454   74451      34   74460
   74457      33   74463   74457      33   74463   74460      34   74469   74466
      33   74472   74466      33   74472   74469      34   74478   74475      33
   74481   74475      33   74481   74478      34   74487   74484      33   74490
   74484      33   74490   74487      34   74496   74493      33   74499   74493
      33   74499   74496      34   74505   74502      33   74508   74502      33
   74508   74505      34   74514   74511      33   74517   74511      33   74517
   74514      34   74523   74520      33   74526   74520      33   74526   74523
      34   74532   74529      33   74535   74529      33   74535   74532      34
   74541   74538      33   74544   74538      33   74544   74541      34   74550
   74547      33   74553   74547      33   74553   74550      34   74559   74556
      33   74562   74556      33   74562   74559      34   74568   74565      33
   74571   74565      33   74571   74568      34   74577   74574      33   74580
   74574      33   74580   74577      34   74586   74583      33   74589   74583
      33   74589   74586      34   74595   74592      33   74598   74592      33
   74598   74595      34   74604   74601      33   74607   74601      33   74607
   74604      34   74613   74610      33   74616   74610      33   74616   74613
      34   74622   74619      33   74625   74619      33   74625   74622      34
   74631   74628      33   74634   74628      33   74634   74631      34   74640
   74637      33   74643   74637      33   74643   74640      34   74649   74646
      33   74652   74646      33   74652   74649      34   74658   74655      33
   74661   74655      33   74661   74658      34   74667   74664      33   74670
   74664      33   74670   74667      34   74676   74673      33   74679   74673
      33   74679   74676      34   74685   74682      33   74688   74682      33
   74688   74685      34   74694   74691      33   74697   74691      33   74697
   74694      34   74703   74700      33   74706   74700      33   74706   74703
      34   74712   74709      33   74715   74709      33   74715   74712      34
   74721   74718      33   74724   74718      33   74724   74721      34   74730
   74727      33   74733   74727      33   74733   74730      34   74739   74736
      33   74742   74736      33   74742   74739      34   74748   74745      33
   74751   74745      33   74751   74748      34   74757   74754      33   74760
   74754      33   74760   74757      34   74766   74763      33   74769   74763
      33   74769   74766      34   74775   74772      33   74778   74772      33
   74778   74775      34   74784   74781      33   74787   74781      33   74787
   74784      34   74793   74790      33   74796   74790      33   74796   74793
      34   74802   74799      33   74805   74799      33   74805   74802      34
   74811   74808      33   74814   74808      33   74814   74811      34   74820
   74817      33   74823   74817      33   74823   74820      34   74829   74826
      33   74832   74826      33   74832   74829      34   74838   74835      33
   74841   74835      33   74841   74838      34   74847   74844      33   74850
   74844      33   74850   74847      34   74856   74853      33   74859   74853
      33   74859   74856      34   74865   74862      33   74868   74862      33
   74868   74865      34   74874   74871      33   74877   74871      33   74877
   74874      34   74883   74880      33   74886   74880      33   74886   74883
      34   74892   74889      33   74895   74889      33   74895   74892      34
   74901   74898      33   74904   74898      33   74904   74901      34   74910
   74907      33   74913   74907      33   74913   74910      34   74919   74916
      33   74922   74916      33   74922   74919      34   74928   74925      33
   74931   74925      33   74931   74928      34   74937   74934      33   74940
   74934      33   74940   74937      34   74946   74943      33   74949   74943
      33   74949   74946      34   74955   74952      33   74958   74952      33
   74958   74955      34   74964   74961      33   74967   74961      33   74967
   74964      34   74973   74970      33   74976   74970      33   74976   74973
      34   74982   74979      33   74985   74979      33   74985   74982      34
   74991   74988      33   74994   74988      33   74994   74991      34   75000
   74997      33   75003   74997      33   75003   75000      34   75009   75006
      33   75012   75006      33   75012   75009      34   75018   75015      33
   75021   75015      33   75021   75018      34   75027   75024      33   75030
   75024      33   75030   75027      34   75036   75033      33   75039   75033
      33   75039   75036      34   75045   75042      33   75048   75042      33
   75048   75045      34   75054   75051      33   75057   75051      33   75057
   75054      34   75063   75060      33   75066   75060      33   75066   75063
      34   75072   75069      33   75075   75069      33   75075   75072      34
   75081   75078      33   75084   75078      33   75084   75081      34   75090
   75087      33   75093   75087      33   75093   75090      34   75099   75096
      33   75102   75096      33   75102   75099      34   75108   75105      33
   75111   75105      33   75111   75108      34   75117   75114      33   75120
   75114      33   75120   75117      34   75126   75123      33   75129   75123
      33   75129   75126      34   75135   75132      33   75138   75132      33
   75138   75135      34   75144   75141      33   75147   75141      33   75147
   75144      34   75153   75150      33   75156   75150      33   75156   75153
      34   75162   75159      33   75165   75159      33   75165   75162      34
   75171   75168      33   75174   75168      33   75174   75171      34   75180
   75177      33   75183   75177      33   75183   75180      34   75189   75186
      33   75192   75186      33   75192   75189      34   75198   75195      33
   75201   75195      33   75201   75198      34   75207   75204      33   75210
   75204      33   75210   75207      34   75216   75213      33   75219   75213
      33   75219   75216      34   75225   75222      33   75228   75222      33
   75228   75225      34   75234   75231      33   75237   75231      33   75237
   75234      34   75243   75240      33   75246   75240      33   75246   75243
      34   75252   75249      33   75255   75249      33   75255   75252      34
   75261   75258      33   75264   75258      33   75264   75261      34   75270
   75267      33   75273   75267      33   75273   75270      34   75279   75276
      33   75282   75276      33   75282   75279      34   75288   75285      33
   75291   75285      33   75291   75288      34   75297   75294      33   75300
   75294      33   75300   75297      34   75306   75303      33   75309   75303
      33   75309   75306      34   75315   75312      33   75318   75312      33
   75318   75315      34   75324   75321      33   75327   75321      33   75327
   75324      34   75333   75330      33   75336   75330      33   75336   75333
      34   75342   75339      33   75345   75339      33   75345   75342      34
   75351   75348      33   75354   75348      33   75354   75351      34   75360
   75357      33   75363   75357      33   75363   75360      34   75369   75366
      33   75372   75366      33   75372   75369      34   75378   75375      33
   75381   75375      33   75381   75378      34   75387   75384      33   75390
   75384      33   75390   75387      34   75396   75393      33   75399   75393
      33   75399   75396      34   75405   75402      33   75408   75402      33
   75408   75405      34   75414   75411      33   75417   75411      33   75417
   75414      34   75423   75420      33   75426   75420      33   75426   75423
      34   75432   75429      33   75435   75429      33   75435   75432      34
   75441   75438      33   75444   75438      33   75444   75441      34   75450
   75447      33   75453   75447      33   75453   75450      34   75459   75456
      33   75462   75456      33   75462   75459      34   75468   75465      33
   75471   75465      33   75471   75468      34   75477   75474      33   75480
   75474      33   75480   75477      34   75486   75483      33   75489   75483
      33   75489   75486      34   75495   75492      33   75498   75492      33
   75498   75495      34   75504   75501      33   75507   75501      33   75507
   75504      34   75513   75510      33   75516   75510      33   75516   75513
      34   75522   75519      33   75525   75519      33   75525   75522      34
   75531   75528      33   75534   75528      33   75534   75531      34   75540
   75537      33   75543   75537      33   75543   75540      34   75549   75546
      33   75552   75546      33   75552   75549      34   75558   75555      33
   75561   75555      33   75561   75558      34   75567   75564      33   75570
   75564      33   75570   75567      34   75576   75573      33   75579   75573
      33   75579   75576      34   75585   75582      33   75588   75582      33
   75588   75585      34   75594   75591      33   75597   75591      33   75597
   75594      34   75603   75600      33   75606   75600      33   75606   75603
      34   75612   75609      33   75615   75609      33   75615   75612      34
   75621   75618      33   75624   75618      33   75624   75621      34   75630
   75627      33   75633   75627      33   75633   75630      34   75639   75636
      33   75642   75636      33   75642   75639      34   75648   75645      33
   75651   75645      33   75651   75648      34   75657   75654      33   75660
   75654      33   75660   75657      34   75666   75663      33   75669   75663
      33   75669   75666      34   75675   75672      33   75678   75672      33
   75678   75675      34   75684   75681      33   75687   75681      33   75687
   75684      34   75693   75690      33   75696   75690      33   75696   75693
      34   75702   75699      33   75705   75699      33   75705   75702      34
   75711   75708      33   75714   75708      33   75714   75711      34   75720
   75717      33   75723   75717      33   75723   75720      34   75729   75726
      33   75732   75726      33   75732   75729      34   75738   75735      33
   75741   75735      33   75741   75738      34   75747   75744      33   75750
   75744      33   75750   75747      34   75756   75753      33   75759   75753
      33   75759   75756      34   75765   75762      33   75768   75762      33
   75768   75765      34   75774   75771      33   75777   75771      33   75777
   75774      34   75783   75780      33   75786   75780      33   75786   75783
      34   75792   75789      33   75795   75789      33   75795   75792      34
   75801   75798      33   75804   75798      33   75804   75801      34   75810
   75807      33   75813   75807      33   75813   75810      34   75819   75816
      33   75822   75816      33   75822   75819      34   75828   75825      33
   75831   75825      33   75831   75828      34   75837   75834      33   75840
   75834      33   75840   75837      34   75846   75843      33   75849   75843
      33   75849   75846      34   75855   75852      33   75858   75852      33
   75858   75855      34   75864   75861      33   75867   75861      33   75867
   75864      34   75873   75870      33   75876   75870      33   75876   75873
      34   75882   75879      33   75885   75879      33   75885   75882      34
   75891   75888      33   75894   75888      33   75894   75891      34   75900
   75897      33   75903   75897      33   75903   75900      34   75909   75906
      33   75912   75906      33   75912   75909      34   75918   75915      33
   75921   75915      33   75921   75918      34   75927   75924      33   75930
   75924      33   75930   75927      34   75936   75933      33   75939   75933
      33   75939   75936      34   75945   75942      33   75948   75942      33
   75948   75945      34   75954   75951      33   75957   75951      33   75957
   75954      34   75963   75960      33   75966   75960      33   75966   75963
      34   75972   75969      33   75975   75969      33   75975   75972      34
   75981   75978      33   75984   75978      33   75984   75981      34   75990
   75987      33   75993   75987      33   75993   75990      34   75999   75996
      33   76002   75996      33   76002   75999      34   76008   76005      33
   76011   76005      33   76011   76008      34   76017   76014      33   76020
   76014      33   76020   76017      34   76026   76023      33   76029   76023
      33   76029   76026      34   76035   76032      33   76038   76032      33
   76038   76035      34   76044   76041      33   76047   76041      33   76047
   76044      34   76053   76050      33   76056   76050      33   76056   76053
      34   76062   76059      33   76065   76059      33   76065   76062      34
   76071   76068      33   76074   76068      33   76074   76071      34   76080
   76077      33   76083   76077      33   76083   76080      34   76089   76086
      33   76092   76086      33   76092   76089      34   76098   76095      33
   76101   76095      33   76101   76098      34   76107   76104      33   76110
   76104      33   76110   76107      34   76116   76113      33   76119   76113
      33   76119   76116      34   76125   76122      33   76128   76122      33
   76128   76125      34   76134   76131      33   76137   76131      33   76137
   76134      34   76143   76140      33   76146   76140      33   76146   76143
      34   76152   76149      33   76155   76149      33   76155   76152      34
   76161   76158      33   76164   76158      33   76164   76161      34   76170
   76167      33   76173   76167      33   76173   76170      34   76179   76176
      33   76182   76176      33   76182   76179      34   76188   76185      33
   76191   76185      33   76191   76188      34   76197   76194      33   76200
   76194      33   76200   76197      34   76206   76203      33   76209   76203
      33   76209   76206      34   76215   76212      33   76218   76212      33
   76218   76215      34   76224   76221      33   76227   76221      33   76227
   76224      34   76233   76230      33   76236   76230      33   76236   76233
      34   76242   76239      33   76245   76239      33   76245   76242      34
   76251   76248      33   76254   76248      33   76254   76251      34   76260
   76257      33   76263   76257      33   76263   76260      34   76269   76266
      33   76272   76266      33   76272   76269      34   76278   76275      33
   76281   76275      33   76281   76278      34   76287   76284      33   76290
   76284      33   76290   76287      34   76296   76293      33   76299   76293
      33   76299   76296      34   76305   76302      33   76308   76302      33
   76308   76305      34   76314   76311      33   76317   76311      33   76317
   76314      34   76323   76320      33   76326   76320      33   76326   76323
      34   76332   76329      33   76335   76329      33   76335   76332      34
   76341   76338      33   76344   76338      33   76344   76341      34   76350
   76347      33   76353   76347      33   76353   76350      34   76359   76356
      33   76362   76356      33   76362   76359      34   76368   76365      33
   76371   76365      33   76371   76368      34   76377   76374      33   76380
   76374      33   76380   76377      34   76386   76383      33   76389   76383
      33   76389   76386      34   76395   76392      33   76398   76392      33
   76398   76395      34   76404   76401      33   76407   76401      33   76407
   76404      34   76413   76410      33   76416   76410      33   76416   76413
      34   76422   76419      33   76425   76419      33   76425   76422      34
   76431   76428      33   76434   76428      33   76434   76431      34   76440
   76437      33   76443   76437      33   76443   76440      34   76449   76446
      33   76452   76446      33   76452   76449      34   76458   76455      33
   76461   76455      33   76461   76458      34   76467   76464      33   76470
   76464      33   76470   76467      34   76476   76473      33   76479   76473
      33   76479   76476      34   76485   76482      33   76488   76482      33
   76488   76485      34   76494   76491      33   76497   76491      33   76497
   76494      34   76503   76500      33   76506   76500      33   76506   76503
      34   76512   76509      33   76515   76509      33   76515   76512      34
   76521   76518      33   76524   76518      33   76524   76521      34   76530
   76527      33   76533   76527      33   76533   76530      34   76539   76536
      33   76542   76536      33   76542   76539      34   76548   76545      33
   76551   76545      33   76551   76548      34   76557   76554      33   76560
   76554      33   76560   76557      34   76566   76563      33   76569   76563
      33   76569   76566      34   76575   76572      33   76578   76572      33
   76578   76575      34   76584   76581      33   76587   76581      33   76587
   76584      34   76593   76590      33   76596   76590      33   76596   76593
      34   76602   76599      33   76605   76599      33   76605   76602      34
   76611   76608      33   76614   76608      33   76614   76611      34   76620
   76617      33   76623   76617      33   76623   76620      34   76629   76626
      33   76632   76626      33   76632   76629      34   76638   76635      33
   76641   76635      33   76641   76638      34   76647   76644      33   76650
   76644      33   76650   76647      34   76656   76653      33   76659   76653
      33   76659   76656      34   76665   76662      33   76668   76662      33
   76668   76665      34   76674   76671      33   76677   76671      33   76677
   76674      34   76683   76680      33   76686   76680      33   76686   76683
      34   76692   76689      33   76695   76689      33   76695   76692      34
   76701   76698      33   76704   76698      33   76704   76701      34   76710
   76707      33   76713   76707      33   76713   76710      34   76719   76716
      33   76722   76716      33   76722   76719      34   76728   76725      33
   76731   76725      33   76731   76728      34   76737   76734      33   76740
   76734      33   76740   76737      34   76746   76743      33   76749   76743
      33   76749   76746      34   76755   76752      33   76758   76752      33
   76758   76755      34   76764   76761      33   76767   76761      33   76767
   76764      34   76773   76770      33   76776   76770      33   76776   76773
      34   76782   76779      33   76785   76779      33   76785   76782      34
   76791   76788      33   76794   76788      33   76794   76791      34   76800
   76797      33   76803   76797      33   76803   76800      34   76809   76806
      33   76812   76806      33   76812   76809      34   76818   76815      33
   76821   76815      33   76821   76818      34   76827   76824      33   76830
   76824      33   76830   76827      34   76836   76833      33   76839   76833
      33   76839   76836      34   76845   76842      33   76848   76842      33
   76848   76845      34   76854   76851      33   76857   76851      33   76857
   76854      34   76863   76860      33   76866   76860      33   76866   76863
      34   76872   76869      33   76875   76869      33   76875   76872      34
   76881   76878      33   76884   76878      33   76884   76881      34   76890
   76887      33   76893   76887      33   76893   76890      34   76899   76896
      33   76902   76896      33   76902   76899      34   76908   76905      33
   76911   76905      33   76911   76908      34   76917   76914      33   76920
   76914      33   76920   76917      34   76926   76923      33   76929   76923
      33   76929   76926      34   76935   76932      33   76938   76932      33
   76938   76935      34   76944   76941      33   76947   76941      33   76947
   76944      34   76953   76950      33   76956   76950      33   76956   76953
      34   76962   76959      33   76965   76959      33   76965   76962      34
   76971   76968      33   76974   76968      33   76974   76971      34   76980
   76977      33   76983   76977      33   76983   76980      34   76989   76986
      33   76992   76986      33   76992   76989      34   76998   76995      33
   77001   76995      33   77001   76998      34   77007   77004      33   77010
   77004      33   77010   77007      34   77016   77013      33   77019   77013
      33   77019   77016      34   77025   77022      33   77028   77022      33
   77028   77025      34   77034   77031      33   77037   77031      33   77037
   77034      34   77043   77040      33   77046   77040      33   77046   77043
      34   77052   77049      33   77055   77049      33   77055   77052      34
   77061   77058      33   77064   77058      33   77064   77061      34   77070
   77067      33   77073   77067      33   77073   77070      34   77079   77076
      33   77082   77076      33   77082   77079      34   77088   77085      33
   77091   77085      33   77091   77088      34   77097   77094      33   77100
   77094      33   77100   77097      34   77106   77103      33   77109   77103
      33   77109   77106      34   77115   77112      33   77118   77112      33
   77118   77115      34   77124   77121      33   77127   77121      33   77127
   77124      34   77133   77130      33   77136   77130      33   77136   77133
      34   77142   77139      33   77145   77139      33   77145   77142      34
   77151   77148      33   77154   77148      33   77154   77151      34   77160
   77157      33   77163   77157      33   77163   77160      34   77169   77166
      33   77172   77166      33   77172   77169      34   77178   77175      33
   77181   77175      33   77181   77178      34   77187   77184      33   77190
   77184      33   77190   77187      34   77196   77193      33   77199   77193
      33   77199   77196      34   77205   77202      33   77208   77202      33
   77208   77205      34   77214   77211      33   77217   77211      33   77217
   77214      34   77223   77220      33   77226   77220      33   77226   77223
      34   77232   77229      33   77235   77229      33   77235   77232      34
   77241   77238      33   77244   77238      33   77244   77241      34   77250
   77247      33   77253   77247      33   77253   77250      34   77259   77256
      33   77262   77256      33   77262   77259      34   77268   77265      33
   77271   77265      33   77271   77268      34   77277   77274      33   77280
   77274      33   77280   77277      34   77286   77283      33   77289   77283
      33   77289   77286      34   77295   77292      33   77298   77292      33
   77298   77295      34   77304   77301      33   77307   77301      33   77307
   77304      34   77313   77310      33   77316   77310      33   77316   77313
      34   77322   77319      33   77325   77319      33   77325   77322      34
   77331   77328      33   77334   77328      33   77334   77331      34   77340
   77337      33   77343   77337      33   77343   77340      34   77349   77346
      33   77352   77346      33   77352   77349      34   77358   77355      33
   77361   77355      33   77361   77358      34   77367   77364      33   77370
   77364      33   77370   77367      34   77376   77373      33   77379   77373
      33   77379   77376      34   77385   77382      33   77388   77382      33
   77388   77385      34   77394   77391      33   77397   77391      33   77397
   77394      34   77403   77400      33   77406   77400      33   77406   77403
      34   77412   77409      33   77415   77409      33   77415   77412      34
   77421   77418      33   77424   77418      33   77424   77421      34   77430
   77427      33   77433   77427      33   77433   77430      34   77439   77436
      33   77442   77436      33   77442   77439      34   77448   77445      33
   77451   77445      33   77451   77448      34   77457   77454      33   77460
   77454      33   77460   77457      34   77466   77463      33   77469   77463
      33   77469   77466      34   77475   77472      33   77478   77472      33
   77478   77475      34   77484   77481      33   77487   77481      33   77487
   77484      34   77493   77490      33   77496   77490      33   77496   77493
      34   77502   77499      33   77505   77499      33   77505   77502      34
   77511   77508      33   77514   77508      33   77514   77511      34   77520
   77517      33   77523   77517      33   77523   77520      34   77529   77526
      33   77532   77526      33   77532   77529      34   77538   77535      33
   77541   77535      33   77541   77538      34   77547   77544      33   77550
   77544      33   77550   77547      34   77556   77553      33   77559   77553
      33   77559   77556      34   77565   77562      33   77568   77562      33
   77568   77565      34   77574   77571      33   77577   77571      33   77577
   77574      34   77583   77580      33   77586   77580      33   77586   77583
      34   77592   77589      33   77595   77589      33   77595   77592      34
   77601   77598      33   77604   77598      33   77604   77601      34   77610
   77607      33   77613   77607      33   77613   77610      34   77619   77616
      33   77622   77616      33   77622   77619      34   77628   77625      33
   77631   77625      33   77631   77628      34   77637   77634      33   77640
   77634      33   77640   77637      34   77646   77643      33   77649   77643
      33   77649   77646      34   77655   77652      33   77658   77652      33
   77658   77655      34   77664   77661      33   77667   77661      33   77667
   77664      34   77673   77670      33   77676   77670      33   77676   77673
      34   77682   77679      33   77685   77679      33   77685   77682      34
   77691   77688      33   77694   77688      33   77694   77691      34   77700
   77697      33   77703   77697      33   77703   77700      34   77709   77706
      33   77712   77706      33   77712   77709      34   77718   77715      33
   77721   77715      33   77721   77718      34   77727   77724      33   77730
   77724      33   77730   77727      34   77736   77733      33   77739   77733
      33   77739   77736      34   77745   77742      33   77748   77742      33
   77748   77745      34   77754   77751      33   77757   77751      33   77757
   77754      34   77763   77760      33   77766   77760      33   77766   77763
      34   77772   77769      33   77775   77769      33   77775   77772      34
   77781   77778      33   77784   77778      33   77784   77781      34   77790
   77787      33   77793   77787      33   77793   77790      34   77799   77796
      33   77802   77796      33   77802   77799      34   77808   77805      33
   77811   77805      33   77811   77808      34   77817   77814      33   77820
   77814      33   77820   77817      34   77826   77823      33   77829   77823
      33   77829   77826      34   77835   77832      33   77838   77832      33
   77838   77835      34   77844   77841      33   77847   77841      33   77847
   77844      34   77853   77850      33   77856   77850      33   77856   77853
      34   77862   77859      33   77865   77859      33   77865   77862      34
   77871   77868      33   77874   77868      33   77874   77871      34   77880
   77877      33   77883   77877      33   77883   77880      34   77889   77886
      33   77892   77886      33   77892   77889      34   77898   77895      33
   77901   77895      33   77901   77898      34   77907   77904      33   77910
   77904      33   77910   77907      34   77916   77913      33   77919   77913
      33   77919   77916      34   77925   77922      33   77928   77922      33
   77928   77925      34   77934   77931      33   77937   77931      33   77937
   77934      34   77943   77940      33   77946   77940      33   77946   77943
      34   77952   77949      33   77955   77949      33   77955   77952      34
   77961   77958      33   77964   77958      33   77964   77961      34   77970
   77967      33   77973   77967      33   77973   77970      34   77979   77976
      33   77982   77976      33   77982   77979      34   77988   77985      33
   77991   77985      33   77991   77988      34   77997   77994      33   78000
   77994      33   78000   77997      34   78006   78003      33   78009   78003
      33   78009   78006      34   78015   78012      33   78018   78012      33
   78018   78015      34   78024   78021      33   78027   78021      33   78027
   78024      34   78033   78030      33   78036   78030      33   78036   78033
      34   78042   78039      33   78045   78039      33   78045   78042      34
   78051   78048      33   78054   78048      33   78054   78051      34   78060
   78057      33   78063   78057      33   78063   78060      34   78069   78066
      33   78072   78066      33   78072   78069      34   78078   78075      33
   78081   78075      33   78081   78078      34   78087   78084      33   78090
   78084      33   78090   78087      34   78096   78093      33   78099   78093
      33   78099   78096      34   78105   78102      33   78108   78102      33
   78108   78105      34   78114   78111      33   78117   78111      33   78117
   78114      34   78123   78120      33   78126   78120      33   78126   78123
      34   78132   78129      33   78135   78129      33   78135   78132      34
   78141   78138      33   78144   78138      33   78144   78141      34   78150
   78147      33   78153   78147      33   78153   78150      34   78159   78156
      33   78162   78156      33   78162   78159      34   78168   78165      33
   78171   78165      33   78171   78168      34   78177   78174      33   78180
   78174      33   78180   78177      34   78186   78183      33   78189   78183
      33   78189   78186      34   78195   78192      33   78198   78192      33
   78198   78195      34   78204   78201      33   78207   78201      33   78207
   78204      34   78213   78210      33   78216   78210      33   78216   78213
      34   78222   78219      33   78225   78219      33   78225   78222      34
   78231   78228      33   78234   78228      33   78234   78231      34   78240
   78237      33   78243   78237      33   78243   78240      34   78249   78246
      33   78252   78246      33   78252   78249      34   78258   78255      33
   78261   78255      33   78261   78258      34   78267   78264      33   78270
   78264      33   78270   78267      34   78276   78273      33   78279   78273
      33   78279   78276      34   78285   78282      33   78288   78282      33
   78288   78285      34   78294   78291      33   78297   78291      33   78297
   78294      34   78303   78300      33   78306   78300      33   78306   78303
      34   78312   78309      33   78315   78309      33   78315   78312      34
   78321   78318      33   78324   78318      33   78324   78321      34   78330
   78327      33   78333   78327      33   78333   78330      34   78339   78336
      33   78342   78336      33   78342   78339      34   78348   78345      33
   78351   78345      33   78351   78348      34   78357   78354      33   78360
   78354      33   78360   78357      34   78366   78363      33   78369   78363
      33   78369   78366      34   78375   78372      33   78378   78372      33
   78378   78375      34   78384   78381      33   78387   78381      33   78387
   78384      34   78393   78390      33   78396   78390      33   78396   78393
      34   78402   78399      33   78405   78399      33   78405   78402      34
   78411   78408      33   78414   78408      33   78414   78411      34   78420
   78417      33   78423   78417      33   78423   78420      34   78429   78426
      33   78432   78426      33   78432   78429      34   78438   78435      33
   78441   78435      33   78441   78438      34   78447   78444      33   78450
   78444      33   78450   78447      34   78456   78453      33   78459   78453
      33   78459   78456      34   78465   78462      33   78468   78462      33
   78468   78465      34   78474   78471      33   78477   78471      33   78477
   78474      34   78483   78480      33   78486   78480      33   78486   78483
      34   78492   78489      33   78495   78489      33   78495   78492      34
   78501   78498      33   78504   78498      33   78504   78501      34   78510
   78507      33   78513   78507      33   78513   78510      34   78519   78516
      33   78522   78516      33   78522   78519      34   78528   78525      33
   78531   78525      33   78531   78528      34   78537   78534      33   78540
   78534      33   78540   78537      34   78546   78543      33   78549   78543
      33   78549   78546      34   78555   78552      33   78558   78552      33
   78558   78555      34   78564   78561      33   78567   78561      33   78567
   78564      34   78573   78570      33   78576   78570      33   78576   78573
      34   78582   78579      33   78585   78579      33   78585   78582      34
   78591   78588      33   78594   78588      33   78594   78591      34   78600
   78597      33   78603   78597      33   78603   78600      34   78609   78606
      33   78612   78606      33   78612   78609      34   78618   78615      33
   78621   78615      33   78621   78618      34   78627   78624      33   78630
   78624      33   78630   78627      34   78636   78633      33   78639   78633
      33   78639   78636      34   78645   78642      33   78648   78642      33
   78648   78645      34   78654   78651      33   78657   78651      33   78657
   78654      34   78663   78660      33   78666   78660      33   78666   78663
      34   78672   78669      33   78675   78669      33   78675   78672      34
   78681   78678      33   78684   78678      33   78684   78681      34   78690
   78687      33   78693   78687      33   78693   78690      34   78699   78696
      33   78702   78696      33   78702   78699      34   78708   78705      33
   78711   78705      33   78711   78708      34   78717   78714      33   78720
   78714      33   78720   78717      34   78726   78723      33   78729   78723
      33   78729   78726      34   78735   78732      33   78738   78732      33
   78738   78735      34   78744   78741      33   78747   78741      33   78747
   78744      34   78753   78750      33   78756   78750      33   78756   78753
      34   78762   78759      33   78765   78759      33   78765   78762      34
   78771   78768      33   78774   78768      33   78774   78771      34   78780
   78777      33   78783   78777      33   78783   78780      34   78789   78786
      33   78792   78786      33   78792   78789      34   78798   78795      33
   78801   78795      33   78801   78798      34   78807   78804      33   78810
   78804      33   78810   78807      34   78816   78813      33   78819   78813
      33   78819   78816      34   78825   78822      33   78828   78822      33
   78828   78825      34   78834   78831      33   78837   78831      33   78837
   78834      34   78843   78840      33   78846   78840      33   78846   78843
      34   78852   78849      33   78855   78849      33   78855   78852      34
   78861   78858      33   78864   78858      33   78864   78861      34   78870
   78867      33   78873   78867      33   78873   78870      34   78879   78876
      33   78882   78876      33   78882   78879      34   78888   78885      33
   78891   78885      33   78891   78888      34   78897   78894      33   78900
   78894      33   78900   78897      34   78906   78903      33   78909   78903
      33   78909   78906      34   78915   78912      33   78918   78912      33
   78918   78915      34   78924   78921      33   78927   78921      33   78927
   78924      34   78933   78930      33   78936   78930      33   78936   78933
      34   78942   78939      33   78945   78939      33   78945   78942      34
   78951   78948      33   78954   78948      33   78954   78951      34   78960
   78957      33   78963   78957      33   78963   78960      34   78969   78966
      33   78972   78966      33   78972   78969      34   78978   78975      33
   78981   78975      33   78981   78978      34   78987   78984      33   78990
   78984      33   78990   78987      34   78996   78993      33   78999   78993
      33   78999   78996      34   79005   79002      33   79008   79002      33
   79008   79005      34   79014   79011      33   79017   79011      33   79017
   79014      34   79023   79020      33   79026   79020      33   79026   79023
      34   79032   79029      33   79035   79029      33   79035   79032      34
   79041   79038      33   79044   79038      33   79044   79041      34   79050
   79047      33   79053   79047      33   79053   79050      34   79059   79056
      33   79062   79056      33   79062   79059      34   79068   79065      33
   79071   79065      33   79071   79068      34   79077   79074      33   79080
   79074      33   79080   79077      34   79086   79083      33   79089   79083
      33   79089   79086      34   79095   79092      33   79098   79092      33
   79098   79095      34   79104   79101      33   79107   79101      33   79107
   79104      34   79113   79110      33   79116   79110      33   79116   79113
      34   79122   79119      33   79125   79119      33   79125   79122      34
   79131   79128      33   79134   79128      33   79134   79131      34   79140
   79137      33   79143   79137      33   79143   79140      34   79149   79146
      33   79152   79146      33   79152   79149      34   79158   79155      33
   79161   79155      33   79161   79158      34   79167   79164      33   79170
   79164      33   79170   79167      34   79176   79173      33   79179   79173
      33   79179   79176      34   79185   79182      33   79188   79182      33
   79188   79185      34   79194   79191      33   79197   79191      33   79197
   79194      34   79203   79200      33   79206   79200      33   79206   79203
      34   79212   79209      33   79215   79209      33   79215   79212      34
   79221   79218      33   79224   79218      33   79224   79221      34   79230
   79227      33   79233   79227      33   79233   79230      34   79239   79236
      33   79242   79236      33   79242   79239      34   79248   79245      33
   79251   79245      33   79251   79248      34   79257   79254      33   79260
   79254      33   79260   79257      34   79266   79263      33   79269   79263
      33   79269   79266      34   79275   79272      33   79278   79272      33
   79278   79275      34   79284   79281      33   79287   79281      33   79287
   79284      34   79293   79290      33   79296   79290      33   79296   79293
      34   79302   79299      33   79305   79299      33   79305   79302      34
   79311   79308      33   79314   79308      33   79314   79311      34   79320
   79317      33   79323   79317      33   79323   79320      34   79329   79326
      33   79332   79326      33   79332   79329      34   79338   79335      33
   79341   79335      33   79341   79338      34   79347   79344      33   79350
   79344      33   79350   79347      34   79356   79353      33   79359   79353
      33   79359   79356      34   79365   79362      33   79368   79362      33
   79368   79365      34   79374   79371      33   79377   79371      33   79377
   79374      34   79383   79380      33   79386   79380      33   79386   79383
      34   79392   79389      33   79395   79389      33   79395   79392      34
   79401   79398      33   79404   79398      33   79404   79401      34   79410
   79407      33   79413   79407      33   79413   79410      34   79419   79416
      33   79422   79416      33   79422   79419      34   79428   79425      33
   79431   79425      33   79431   79428      34   79437   79434      33   79440
   79434      33   79440   79437      34   79446   79443      33   79449   79443
      33   79449   79446      34   79455   79452      33   79458   79452      33
   79458   79455      34   79464   79461      33   79467   79461      33   79467
   79464      34   79473   79470      33   79476   79470      33   79476   79473
      34   79482   79479      33   79485   79479      33   79485   79482      34
   79491   79488      33   79494   79488      33   79494   79491      34   79500
   79497      33   79503   79497      33   79503   79500      34   79509   79506
      33   79512   79506      33   79512   79509      34   79518   79515      33
   79521   79515      33   79521   79518      34   79527   79524      33   79530
   79524      33   79530   79527      34   79536   79533      33   79539   79533
      33   79539   79536      34   79545   79542      33   79548   79542      33
   79548   79545      34   79554   79551      33   79557   79551      33   79557
   79554      34   79563   79560      33   79566   79560      33   79566   79563
      34   79572   79569      33   79575   79569      33   79575   79572      34
   79581   79578      33   79584   79578      33   79584   79581      34   79590
   79587      33   79593   79587      33   79593   79590      34   79599   79596
      33   79602   79596      33   79602   79599      34   79608   79605      33
   79611   79605      33   79611   79608      34   79617   79614      33   79620
   79614      33   79620   79617      34   79626   79623      33   79629   79623
      33   79629   79626      34   79635   79632      33   79638   79632      33
   79638   79635      34   79644   79641      33   79647   79641      33   79647
   79644      34   79653   79650      33   79656   79650      33   79656   79653
      34   79662   79659      33   79665   79659      33   79665   79662      34
   79671   79668      33   79674   79668      33   79674   79671      34   79680
   79677      33   79683   79677      33   79683   79680      34   79689   79686
      33   79692   79686      33   79692   79689      34   79698   79695      33
   79701   79695      33   79701   79698      34   79707   79704      33   79710
   79704      33   79710   79707      34   79716   79713      33   79719   79713
      33   79719   79716      34   79725   79722      33   79728   79722      33
   79728   79725      34   79734   79731      33   79737   79731      33   79737
   79734      34   79743   79740      33   79746   79740      33   79746   79743
      34   79752   79749      33   79755   79749      33   79755   79752      34
   79761   79758      33   79764   79758      33   79764   79761      34   79770
   79767      33   79773   79767      33   79773   79770      34   79779   79776
      33   79782   79776      33   79782   79779      34   79788   79785      33
   79791   79785      33   79791   79788      34   79797   79794      33   79800
   79794      33   79800   79797      34   79806   79803      33   79809   79803
      33   79809   79806      34   79815   79812      33   79818   79812      33
   79818   79815      34   79824   79821      33   79827   79821      33   79827
   79824      34   79833   79830      33   79836   79830      33   79836   79833
      34   79842   79839      33   79845   79839      33   79845   79842      34
   79851   79848      33   79854   79848      33   79854   79851      34   79860
   79857      33   79863   79857      33   79863   79860      34   79869   79866
      33   79872   79866      33   79872   79869      34   79878   79875      33
   79881   79875      33   79881   79878      34   79887   79884      33   79890
   79884      33   79890   79887      34   79896   79893      33   79899   79893
      33   79899   79896      34   79905   79902      33   79908   79902      33
   79908   79905      34   79914   79911      33   79917   79911      33   79917
   79914      34   79923   79920      33   79926   79920      33   79926   79923
      34   79932   79929      33   79935   79929      33   79935   79932      34
   79941   79938      33   79944   79938      33   79944   79941      34   79950
   79947      33   79953   79947      33   79953   79950      34   79959   79956
      33   79962   79956      33   79962   79959      34   79968   79965      33
   79971   79965      33   79971   79968      34   79977   79974      33   79980
   79974      33   79980   79977      34   79986   79983      33   79989   79983
      33   79989   79986      34   79995   79992      33   79998   79992      33
   79998   79995      34   80004   80001      33   80007   80001      33   80007
   80004      34   80013   80010      33   80016   80010      33   80016   80013
      34   80022   80019      33   80025   80019      33   80025   80022      34
   80031   80028      33   80034   80028      33   80034   80031      34   80040
   80037      33   80043   80037      33   80043   80040      34   80049   80046
      33   80052   80046      33   80052   80049      34   80058   80055      33
   80061   80055      33   80061   80058      34   80067   80064      33   80070
   80064      33   80070   80067      34   80076   80073      33   80079   80073
      33   80079   80076      34   80085   80082      33   80088   80082      33
   80088   80085      34   80094   80091      33   80097   80091      33   80097
   80094      34   80103   80100      33   80106   80100      33   80106   80103
      34   80112   80109      33   80115   80109      33   80115   80112      34
   80121   80118      33   80124   80118      33   80124   80121      34   80130
   80127      33   80133   80127      33   80133   80130      34   80139   80136
      33   80142   80136      33   80142   80139      34   80148   80145      33
   80151   80145      33   80151   80148      34   80157   80154      33   80160
   80154      33   80160   80157      34   80166   80163      33   80169   80163
      33   80169   80166      34   80175   80172      33   80178   80172      33
   80178   80175      34   80184   80181      33   80187   80181      33   80187
   80184      34   80193   80190      33   80196   80190      33   80196   80193
      34   80202   80199      33   80205   80199      33   80205   80202      34
   80211   80208      33   80214   80208      33   80214   80211      34   80220
   80217      33   80223   80217      33   80223   80220      34   80229   80226
      33   80232   80226      33   80232   80229      34   80238   80235      33
   80241   80235      33   80241   80238      34   80247   80244      33   80250
   80244      33   80250   80247      34   80256   80253      33   80259   80253
      33   80259   80256      34   80265   80262      33   80268   80262      33
   80268   80265      34   80274   80271      33   80277   80271      33   80277
   80274      34   80283   80280      33   80286   80280      33   80286   80283
      34   80292   80289      33   80295   80289      33   80295   80292      34
   80301   80298      33   80304   80298      33   80304   80301      34   80310
   80307      33   80313   80307      33   80313   80310      34   80319   80316
      33   80322   80316      33   80322   80319      34   80328   80325      33
   80331   80325      33   80331   80328      34   80337   80334      33   80340
   80334      33   80340   80337      34   80346   80343      33   80349   80343
      33   80349   80346      34   80355   80352      33   80358   80352      33
   80358   80355      34   80364   80361      33   80367   80361      33   80367
   80364      34   80373   80370      33   80376   80370      33   80376   80373
      34   80382   80379      33   80385   80379      33   80385   80382      34
   80391   80388      33   80394   80388      33   80394   80391      34   80400
   80397      33   80403   80397      33   80403   80400      34   80409   80406
      33   80412   80406      33   80412   80409      34   80418   80415      33
   80421   80415      33   80421   80418      34   80427   80424      33   80430
   80424      33   80430   80427      34   80436   80433      33   80439   80433
      33   80439   80436      34   80445   80442      33   80448   80442      33
   80448   80445      34   80454   80451      33   80457   80451      33   80457
   80454      34   80463   80460      33   80466   80460      33   80466   80463
      34   80472   80469      33   80475   80469      33   80475   80472      34
   80481   80478      33   80484   80478      33   80484   80481      34   80490
   80487      33   80493   80487      33   80493   80490      34   80499   80496
      33   80502   80496      33   80502   80499      34   80508   80505      33
   80511   80505      33   80511   80508      34   80517   80514      33   80520
   80514      33   80520   80517      34   80526   80523      33   80529   80523
      33   80529   80526      34   80535   80532      33   80538   80532      33
   80538   80535      34   80544   80541      33   80547   80541      33   80547
   80544      34   80553   80550      33   80556   80550      33   80556   80553
      34   80562   80559      33   80565   80559      33   80565   80562      34
   80571   80568      33   80574   80568      33   80574   80571      34   80580
   80577      33   80583   80577      33   80583   80580      34   80589   80586
      33   80592   80586      33   80592   80589      34   80598   80595      33
   80601   80595      33   80601   80598      34   80607   80604      33   80610
   80604      33   80610   80607      34   80616   80613      33   80619   80613
      33   80619   80616      34   80625   80622      33   80628   80622      33
   80628   80625      34   80634   80631      33   80637   80631      33   80637
   80634      34   80643   80640      33   80646   80640      33   80646   80643
      34   80652   80649      33   80655   80649      33   80655   80652      34
   80661   80658      33   80664   80658      33   80664   80661      34   80670
   80667      33   80673   80667      33   80673   80670      34   80679   80676
      33   80682   80676      33   80682   80679      34   80688   80685      33
   80691   80685      33   80691   80688      34   80697   80694      33   80700
   80694      33   80700   80697      34   80706   80703      33   80709   80703
      33   80709   80706      34   80715   80712      33   80718   80712      33
   80718   80715      34   80724   80721      33   80727   80721      33   80727
   80724      34   80733   80730      33   80736   80730      33   80736   80733
      34   80742   80739      33   80745   80739      33   80745   80742      34
   80751   80748      33   80754   80748      33   80754   80751      34   80760
   80757      33   80763   80757      33   80763   80760      34   80769   80766
      33   80772   80766      33   80772   80769      34   80778   80775      33
   80781   80775      33   80781   80778      34   80787   80784      33   80790
   80784      33   80790   80787      34   80796   80793      33   80799   80793
      33   80799   80796      34   80805   80802      33   80808   80802      33
   80808   80805      34   80814   80811      33   80817   80811      33   80817
   80814      34   80823   80820      33   80826   80820      33   80826   80823
      34   80832   80829      33   80835   80829      33   80835   80832      34
   80841   80838      33   80844   80838      33   80844   80841      34   80850
   80847      33   80853   80847      33   80853   80850      34   80859   80856
      33   80862   80856      33   80862   80859      34   80868   80865      33
   80871   80865      33   80871   80868      34   80877   80874      33   80880
   80874      33   80880   80877      34   80886   80883      33   80889   80883
      33   80889   80886      34   80895   80892      33   80898   80892      33
   80898   80895      34   80904   80901      33   80907   80901      33   80907
   80904      34   80913   80910      33   80916   80910      33   80916   80913
      34   80922   80919      33   80925   80919      33   80925   80922      34
   80931   80928      33   80934   80928      33   80934   80931      34   80940
   80937      33   80943   80937      33   80943   80940      34   80949   80946
      33   80952   80946      33   80952   80949      34   80958   80955      33
   80961   80955      33   80961   80958      34   80967   80964      33   80970
   80964      33   80970   80967      34   80976   80973      33   80979   80973
      33   80979   80976      34   80985   80982      33   80988   80982      33
   80988   80985      34   80994   80991      33   80997   80991      33   80997
   80994      34   81003   81000      33   81006   81000      33   81006   81003
      34   81012   81009      33   81015   81009      33   81015   81012      34
   81021   81018      33   81024   81018      33   81024   81021      34   81030
   81027      33   81033   81027      33   81033   81030      34   81039   81036
      33   81042   81036      33   81042   81039      34   81048   81045      33
   81051   81045      33   81051   81048      34   81057   81054      33   81060
   81054      33   81060   81057      34   81066   81063      33   81069   81063
      33   81069   81066      34   81075   81072      33   81078   81072      33
   81078   81075      34   81084   81081      33   81087   81081      33   81087
   81084      34   81093   81090      33   81096   81090      33   81096   81093
      34   81102   81099      33   81105   81099      33   81105   81102      34
   81111   81108      33   81114   81108      33   81114   81111      34   81120
   81117      33   81123   81117      33   81123   81120      34   81129   81126
      33   81132   81126      33   81132   81129      34   81138   81135      33
   81141   81135      33   81141   81138      34   81147   81144      33   81150
   81144      33   81150   81147      34   81156   81153      33   81159   81153
      33   81159   81156      34   81165   81162      33   81168   81162      33
   81168   81165      34   81174   81171      33   81177   81171      33   81177
   81174      34   81183   81180      33   81186   81180      33   81186   81183
      34   81192   81189      33   81195   81189      33   81195   81192      34
   81201   81198      33   81204   81198      33   81204   81201      34   81210
   81207      33   81213   81207      33   81213   81210      34   81219   81216
      33   81222   81216      33   81222   81219      34   81228   81225      33
   81231   81225      33   81231   81228      34   81237   81234      33   81240
   81234      33   81240   81237      34   81246   81243      33   81249   81243
      33   81249   81246      34   81255   81252      33   81258   81252      33
   81258   81255      34   81264   81261      33   81267   81261      33   81267
   81264      34   81273   81270      33   81276   81270      33   81276   81273
      34   81282   81279      33   81285   81279      33   81285   81282      34
   81291   81288      33   81294   81288      33   81294   81291      34   81300
   81297      33   81303   81297      33   81303   81300      34   81309   81306
      33   81312   81306      33   81312   81309      34   81318   81315      33
   81321   81315      33   81321   81318      34   81327   81324      33   81330
   81324      33   81330   81327      34   81336   81333      33   81339   81333
      33   81339   81336      34   81345   81342      33   81348   81342      33
   81348   81345      34   81354   81351      33   81357   81351      33   81357
   81354      34   81363   81360      33   81366   81360      33   81366   81363
      34   81372   81369      33   81375   81369      33   81375   81372      34
   81381   81378      33   81384   81378      33   81384   81381      34   81390
   81387      33   81393   81387      33   81393   81390      34   81399   81396
      33   81402   81396      33   81402   81399      34   81408   81405      33
   81411   81405      33   81411   81408      34   81417   81414      33   81420
   81414      33   81420   81417      34   81426   81423      33   81429   81423
      33   81429   81426      34   81435   81432      33   81438   81432      33
   81438   81435      34   81444   81441      33   81447   81441      33   81447
   81444      34   81453   81450      33   81456   81450      33   81456   81453
      34   81462   81459      33   81465   81459      33   81465   81462      34
   81471   81468      33   81474   81468      33   81474   81471      34   81480
   81477      33   81483   81477      33   81483   81480      34   81489   81486
      33   81492   81486      33   81492   81489      34   81498   81495      33
   81501   81495      33   81501   81498      34   81507   81504      33   81510
   81504      33   81510   81507      34   81516   81513      33   81519   81513
      33   81519   81516      34   81525   81522      33   81528   81522      33
   81528   81525      34   81534   81531      33   81537   81531      33   81537
   81534      34   81543   81540      33   81546   81540      33   81546   81543
      34   81552   81549      33   81555   81549      33   81555   81552      34
   81561   81558      33   81564   81558      33   81564   81561      34   81570
   81567      33   81573   81567      33   81573   81570      34   81579   81576
      33   81582   81576      33   81582   81579      34   81588   81585      33
   81591   81585      33   81591   81588      34   81597   81594      33   81600
   81594      33   81600   81597      34   81606   81603      33   81609   81603
      33   81609   81606      34   81615   81612      33   81618   81612      33
   81618   81615      34   81624   81621      33   81627   81621      33   81627
   81624      34   81633   81630      33   81636   81630      33   81636   81633
      34   81642   81639      33   81645   81639      33   81645   81642      34
   81651   81648      33   81654   81648      33   81654   81651      34   81660
   81657      33   81663   81657      33   81663   81660      34   81669   81666
      33   81672   81666      33   81672   81669      34   81678   81675      33
   81681   81675      33   81681   81678      34   81687   81684      33   81690
   81684      33   81690   81687      34   81696   81693      33   81699   81693
      33   81699   81696      34   81705   81702      33   81708   81702      33
   81708   81705      34   81714   81711      33   81717   81711      33   81717
   81714      34   81723   81720      33   81726   81720      33   81726   81723
      34   81732   81729      33   81735   81729      33   81735   81732      34
   81741   81738      33   81744   81738      33   81744   81741      34   81750
   81747      33   81753   81747      33   81753   81750      34   81759   81756
      33   81762   81756      33   81762   81759      34   81768   81765      33
   81771   81765      33   81771   81768      34   81777   81774      33   81780
   81774      33   81780   81777      34   81786   81783      33   81789   81783
      33   81789   81786      34   81795   81792      33   81798   81792      33
   81798   81795      34   81804   81801      33   81807   81801      33   81807
   81804      34   81813   81810      33   81816   81810      33   81816   81813
      34   81822   81819      33   81825   81819      33   81825   81822      34
   81831   81828      33   81834   81828      33   81834   81831      34   81840
   81837      33   81843   81837      33   81843   81840      34   81849   81846
      33   81852   81846      33   81852   81849      34   81858   81855      33
   81861   81855      33   81861   81858      34   81867   81864      33   81870
   81864      33   81870   81867      34   81876   81873      33   81879   81873
      33   81879   81876      34   81885   81882      33   81888   81882      33
   81888   81885      34   81894   81891      33   81897   81891      33   81897
   81894      34   81903   81900      33   81906   81900      33   81906   81903
      34   81912   81909      33   81915   81909      33   81915   81912      34
   81921   81918      33   81924   81918      33   81924   81921      34   81930
   81927      33   81933   81927      33   81933   81930      34   81939   81936
      33   81942   81936      33   81942   81939      34   81948   81945      33
   81951   81945      33   81951   81948      34   81957   81954      33   81960
   81954      33   81960   81957      34   81966   81963      33   81969   81963
      33   81969   81966      34   81975   81972      33   81978   81972      33
   81978   81975      34   81984   81981      33   81987   81981      33   81987
   81984      34   81993   81990      33   81996   81990      33   81996   81993
      34   82002   81999      33   82005   81999      33   82005   82002      34
   82011   82008      33   82014   82008      33   82014   82011      34   82020
   82017      33   82023   82017      33   82023   82020      34   82029   82026
      33   82032   82026      33   82032   82029      34   82038   82035      33
   82041   82035      33   82041   82038      34   82047   82044      33   82050
   82044      33   82050   82047      34   82056   82053      33   82059   82053
      33   82059   82056      34   82065   82062      33   82068   82062      33
   82068   82065      34   82074   82071      33   82077   82071      33   82077
   82074      34   82083   82080      33   82086   82080      33   82086   82083
      34   82092   82089      33   82095   82089      33   82095   82092      34
   82101   82098      33   82104   82098      33   82104   82101      34   82110
   82107      33   82113   82107      33   82113   82110      34   82119   82116
      33   82122   82116      33   82122   82119      34   82128   82125      33
   82131   82125      33   82131   82128      34   82137   82134      33   82140
   82134      33   82140   82137      34   82146   82143      33   82149   82143
      33   82149   82146      34   82155   82152      33   82158   82152      33
   82158   82155      34   82164   82161      33   82167   82161      33   82167
   82164      34   82173   82170      33   82176   82170      33   82176   82173
      34   82182   82179      33   82185   82179      33   82185   82182      34
   82191   82188      33   82194   82188      33   82194   82191      34   82200
   82197      33   82203   82197      33   82203   82200      34   82209   82206
      33   82212   82206      33   82212   82209      34   82218   82215      33
   82221   82215      33   82221   82218      34   82227   82224      33   82230
   82224      33   82230   82227      34   82236   82233      33   82239   82233
      33   82239   82236      34   82245   82242      33   82248   82242      33
   82248   82245      34   82254   82251      33   82257   82251      33   82257
   82254      34   82263   82260      33   82266   82260      33   82266   82263
      34   82272   82269      33   82275   82269      33   82275   82272      34
   82281   82278      33   82284   82278      33   82284   82281      34   82290
   82287      33   82293   82287      33   82293   82290      34   82299   82296
      33   82302   82296      33   82302   82299      34   82308   82305      33
   82311   82305      33   82311   82308      34   82317   82314      33   82320
   82314      33   82320   82317      34   82326   82323      33   82329   82323
      33   82329   82326      34   82335   82332      33   82338   82332      33
   82338   82335      34   82344   82341      33   82347   82341      33   82347
   82344      34   82353   82350      33   82356   82350      33   82356   82353
      34   82362   82359      33   82365   82359      33   82365   82362      34
   82371   82368      33   82374   82368      33   82374   82371      34   82380
   82377      33   82383   82377      33   82383   82380      34   82389   82386
      33   82392   82386      33   82392   82389      34   82398   82395      33
   82401   82395      33   82401   82398      34   82407   82404      33   82410
   82404      33   82410   82407      34   82416   82413      33   82419   82413
      33   82419   82416      34   82425   82422      33   82428   82422      33
   82428   82425      34   82434   82431      33   82437   82431      33   82437
   82434      34   82443   82440      33   82446   82440      33   82446   82443
      34   82452   82449      33   82455   82449      33   82455   82452      34
   82461   82458      33   82464   82458      33   82464   82461      34   82470
   82467      33   82473   82467      33   82473   82470      34   82479   82476
      33   82482   82476      33   82482   82479      34   82488   82485      33
   82491   82485      33   82491   82488      34   82497   82494      33   82500
   82494      33   82500   82497      34   82506   82503      33   82509   82503
      33   82509   82506      34   82515   82512      33   82518   82512      33
   82518   82515      34   82524   82521      33   82527   82521      33   82527
   82524      34   82533   82530      33   82536   82530      33   82536   82533
      34   82542   82539      33   82545   82539      33   82545   82542      34
   82551   82548      33   82554   82548      33   82554   82551      34   82560
   82557      33   82563   82557      33   82563   82560      34   82569   82566
      33   82572   82566      33   82572   82569      34   82578   82575      33
   82581   82575      33   82581   82578      34   82587   82584      33   82590
   82584      33   82590   82587      34   82596   82593      33   82599   82593
      33   82599   82596      34   82605   82602      33   82608   82602      33
   82608   82605      34   82614   82611      33   82617   82611      33   82617
   82614      34   82623   82620      33   82626   82620      33   82626   82623
      34   82632   82629      33   82635   82629      33   82635   82632      34
   82641   82638      33   82644   82638      33   82644   82641      34   82650
   82647      33   82653   82647      33   82653   82650      34   82659   82656
      33   82662   82656      33   82662   82659      34   82668   82665      33
   82671   82665      33   82671   82668      34   82677   82674      33   82680
   82674      33   82680   82677      34   82686   82683      33   82689   82683
      33   82689   82686      34   82695   82692      33   82698   82692      33
   82698   82695      34   82704   82701      33   82707   82701      33   82707
   82704      34   82713   82710      33   82716   82710      33   82716   82713
      34   82722   82719      33   82725   82719      33   82725   82722      34
   82731   82728      33   82734   82728      33   82734   82731      34   82740
   82737      33   82743   82737      33   82743   82740      34   82749   82746
      33   82752   82746      33   82752   82749      34   82758   82755      33
   82761   82755      33   82761   82758      34   82767   82764      33   82770
   82764      33   82770   82767      34   82776   82773      33   82779   82773
      33   82779   82776      34   82785   82782      33   82788   82782      33
   82788   82785      34   82794   82791      33   82797   82791      33   82797
   82794      34   82803   82800      33   82806   82800      33   82806   82803
      34   82812   82809      33   82815   82809      33   82815   82812      34
   82821   82818      33   82824   82818      33   82824   82821      34   82830
   82827      33   82833   82827      33   82833   82830      34   82839   82836
      33   82842   82836      33   82842   82839      34   82848   82845      33
   82851   82845      33   82851   82848      34   82857   82854      33   82860
   82854      33   82860   82857      34   82866   82863      33   82869   82863
      33   82869   82866      34   82875   82872      33   82878   82872      33
   82878   82875      34   82884   82881      33   82887   82881      33   82887
   82884      34   82893   82890      33   82896   82890      33   82896   82893
      34   82902   82899      33   82905   82899      33   82905   82902      34
   82911   82908      33   82914   82908      33   82914   82911      34   82920
   82917      33   82923   82917      33   82923   82920      34   82929   82926
      33   82932   82926      33   82932   82929      34   82938   82935      33
   82941   82935      33   82941   82938      34   82947   82944      33   82950
   82944      33   82950   82947      34   82956   82953      33   82959   82953
      33   82959   82956      34   82965   82962      33   82968   82962      33
   82968   82965      34   82974   82971      33   82977   82971      33   82977
   82974      34   82983   82980      33   82986   82980      33   82986   82983
      34   82992   82989      33   82995   82989      33   82995   82992      34
   83001   82998      33   83004   82998      33   83004   83001      34   83010
   83007      33   83013   83007      33   83013   83010      34   83019   83016
      33   83022   83016      33   83022   83019      34   83028   83025      33
   83031   83025      33   83031   83028      34   83037   83034      33   83040
   83034      33   83040   83037      34   83046   83043      33   83049   83043
      33   83049   83046      34   83055   83052      33   83058   83052      33
   83058   83055      34   83064   83061      33   83067   83061      33   83067
   83064      34   83073   83070      33   83076   83070      33   83076   83073
      34   83082   83079      33   83085   83079      33   83085   83082      34
   83091   83088      33   83094   83088      33   83094   83091      34   83100
   83097      33   83103   83097      33   83103   83100      34   83109   83106
      33   83112   83106      33   83112   83109      34   83118   83115      33
   83121   83115      33   83121   83118      34   83127   83124      33   83130
   83124      33   83130   83127      34   83136   83133      33   83139   83133
      33   83139   83136      34   83145   83142      33   83148   83142      33
   83148   83145      34   83154   83151      33   83157   83151      33   83157
   83154      34   83163   83160      33   83166   83160      33   83166   83163
      34   83172   83169      33   83175   83169      33   83175   83172      34
   83181   83178      33   83184   83178      33   83184   83181      34   83190
   83187      33   83193   83187      33   83193   83190      34   83199   83196
      33   83202   83196      33   83202   83199      34   83208   83205      33
   83211   83205      33   83211   83208      34   83217   83214      33   83220
   83214      33   83220   83217      34   83226   83223      33   83229   83223
      33   83229   83226      34   83235   83232      33   83238   83232      33
   83238   83235      34   83244   83241      33   83247   83241      33   83247
   83244      34   83253   83250      33   83256   83250      33   83256   83253
      34   83262   83259      33   83265   83259      33   83265   83262      34
   83271   83268      33   83274   83268      33   83274   83271      34   83280
   83277      33   83283   83277      33   83283   83280      34   83289   83286
      33   83292   83286      33   83292   83289      34   83298   83295      33
   83301   83295      33   83301   83298      34   83307   83304      33   83310
   83304      33   83310   83307      34   83316   83313      33   83319   83313
      33   83319   83316      34   83325   83322      33   83328   83322      33
   83328   83325      34   83334   83331      33   83337   83331      33   83337
   83334      34   83343   83340      33   83346   83340      33   83346   83343
      34   83352   83349      33   83355   83349      33   83355   83352      34
   83361   83358      33   83364   83358      33   83364   83361      34   83370
   83367      33   83373   83367      33   83373   83370      34   83379   83376
      33   83382   83376      33   83382   83379      34   83388   83385      33
   83391   83385      33   83391   83388      34   83397   83394      33   83400
   83394      33   83400   83397      34   83406   83403      33   83409   83403
      33   83409   83406      34   83415   83412      33   83418   83412      33
   83418   83415      34   83424   83421      33   83427   83421      33   83427
   83424      34   83433   83430      33   83436   83430      33   83436   83433
      34   83442   83439      33   83445   83439      33   83445   83442      34
   83451   83448      33   83454   83448      33   83454   83451      34   83460
   83457      33   83463   83457      33   83463   83460      34   83469   83466
      33   83472   83466      33   83472   83469      34   83478   83475      33
   83481   83475      33   83481   83478      34   83487   83484      33   83490
   83484      33   83490   83487      34   83496   83493      33   83499   83493
      33   83499   83496      34   83505   83502      33   83508   83502      33
   83508   83505      34   83514   83511      33   83517   83511      33   83517
   83514      34   83523   83520      33   83526   83520      33   83526   83523
      34   83532   83529      33   83535   83529      33   83535   83532      34
   83541   83538      33   83544   83538      33   83544   83541      34   83550
   83547      33   83553   83547      33   83553   83550      34   83559   83556
      33   83562   83556      33   83562   83559      34   83568   83565      33
   83571   83565      33   83571   83568      34   83577   83574      33   83580
   83574      33   83580   83577      34   83586   83583      33   83589   83583
      33   83589   83586      34   83595   83592      33   83598   83592      33
   83598   83595      34   83604   83601      33   83607   83601      33   83607
   83604      34   83613   83610      33   83616   83610      33   83616   83613
      34   83622   83619      33   83625   83619      33   83625   83622      34
   83631   83628      33   83634   83628      33   83634   83631      34   83640
   83637      33   83643   83637      33   83643   83640      34   83649   83646
      33   83652   83646      33   83652   83649      34   83658   83655      33
   83661   83655      33   83661   83658      34   83667   83664      33   83670
   83664      33   83670   83667      34   83676   83673      33   83679   83673
      33   83679   83676      34   83685   83682      33   83688   83682      33
   83688   83685      34   83694   83691      33   83697   83691      33   83697
   83694      34   83703   83700      33   83706   83700      33   83706   83703
      34   83712   83709      33   83715   83709      33   83715   83712      34
   83721   83718      33   83724   83718      33   83724   83721      34   83730
   83727      33   83733   83727      33   83733   83730      34   83739   83736
      33   83742   83736      33   83742   83739      34   83748   83745      33
   83751   83745      33   83751   83748      34   83757   83754      33   83760
   83754      33   83760   83757      34   83766   83763      33   83769   83763
      33   83769   83766      34   83775   83772      33   83778   83772      33
   83778   83775      34   83784   83781      33   83787   83781      33   83787
   83784      34   83793   83790      33   83796   83790      33   83796   83793
      34   83802   83799      33   83805   83799      33   83805   83802      34
   83811   83808      33   83814   83808      33   83814   83811      34   83820
   83817      33   83823   83817      33   83823   83820      34   83829   83826
      33   83832   83826      33   83832   83829      34   83838   83835      33
   83841   83835      33   83841   83838      34   83847   83844      33   83850
   83844      33   83850   83847      34   83856   83853      33   83859   83853
      33   83859   83856      34   83865   83862      33   83868   83862      33
   83868   83865      34   83874   83871      33   83877   83871      33   83877
   83874      34   83883   83880      33   83886   83880      33   83886   83883
      34   83892   83889      33   83895   83889      33   83895   83892      34
   83901   83898      33   83904   83898      33   83904   83901      34   83910
   83907      33   83913   83907      33   83913   83910      34   83919   83916
      33   83922   83916      33   83922   83919      34   83928   83925      33
   83931   83925      33   83931   83928      34   83937   83934      33   83940
   83934      33   83940   83937      34   83946   83943      33   83949   83943
      33   83949   83946      34   83955   83952      33   83958   83952      33
   83958   83955      34   83964   83961      33   83967   83961      33   83967
   83964      34   83973   83970      33   83976   83970      33   83976   83973
      34   83982   83979      33   83985   83979      33   83985   83982      34
   83991   83988      33   83994   83988      33   83994   83991      34   84000
   83997      33   84003   83997      33   84003   84000      34   84009   84006
      33   84012   84006      33   84012   84009      34   84018   84015      33
   84021   84015      33   84021   84018      34   84027   84024      33   84030
   84024      33   84030   84027      34   84036   84033      33   84039   84033
      33   84039   84036      34   84045   84042      33   84048   84042      33
   84048   84045      34   84054   84051      33   84057   84051      33   84057
   84054      34   84063   84060      33   84066   84060      33   84066   84063
      34   84072   84069      33   84075   84069      33   84075   84072      34
   84081   84078      33   84084   84078      33   84084   84081      34   84090
   84087      33   84093   84087      33   84093   84090      34   84099   84096
      33   84102   84096      33   84102   84099      34   84108   84105      33
   84111   84105      33   84111   84108      34   84117   84114      33   84120
   84114      33   84120   84117      34   84126   84123      33   84129   84123
      33   84129   84126      34   84135   84132      33   84138   84132      33
   84138   84135      34   84144   84141      33   84147   84141      33   84147
   84144      34   84153   84150      33   84156   84150      33   84156   84153
      34   84162   84159      33   84165   84159      33   84165   84162      34
   84171   84168      33   84174   84168      33   84174   84171      34   84180
   84177      33   84183   84177      33   84183   84180      34   84189   84186
      33   84192   84186      33   84192   84189      34   84198   84195      33
   84201   84195      33   84201   84198      34   84207   84204      33   84210
   84204      33   84210   84207      34   84216   84213      33   84219   84213
      33   84219   84216      34   84225   84222      33   84228   84222      33
   84228   84225      34   84234   84231      33   84237   84231      33   84237
   84234      34   84243   84240      33   84246   84240      33   84246   84243
      34   84252   84249      33   84255   84249      33   84255   84252      34
   84261   84258      33   84264   84258      33   84264   84261      34   84270
   84267      33   84273   84267      33   84273   84270      34   84279   84276
      33   84282   84276      33   84282   84279      34   84288   84285      33
   84291   84285      33   84291   84288      34   84297   84294      33   84300
   84294      33   84300   84297      34   84306   84303      33   84309   84303
      33   84309   84306      34   84315   84312      33   84318   84312      33
   84318   84315      34   84324   84321      33   84327   84321      33   84327
   84324      34   84333   84330      33   84336   84330      33   84336   84333
      34   84342   84339      33   84345   84339      33   84345   84342      34
   84351   84348      33   84354   84348      33   84354   84351      34   84360
   84357      33   84363   84357      33   84363   84360      34   84369   84366
      33   84372   84366      33   84372   84369      34   84378   84375      33
   84381   84375      33   84381   84378      34   84387   84384      33   84390
   84384      33   84390   84387      34   84396   84393      33   84399   84393
      33   84399   84396      34   84405   84402      33   84408   84402      33
   84408   84405      34   84414   84411      33   84417   84411      33   84417
   84414      34   84423   84420      33   84426   84420      33   84426   84423
      34   84432   84429      33   84435   84429      33   84435   84432      34
   84441   84438      33   84444   84438      33   84444   84441      34   84450
   84447      33   84453   84447      33   84453   84450      34   84459   84456
      33   84462   84456      33   84462   84459      34   84468   84465      33
   84471   84465      33   84471   84468      34   84477   84474      33   84480
   84474      33   84480   84477      34   84486   84483      33   84489   84483
      33   84489   84486      34   84495   84492      33   84498   84492      33
   84498   84495      34   84504   84501      33   84507   84501      33   84507
   84504      34   84513   84510      33   84516   84510      33   84516   84513
      34   84522   84519      33   84525   84519      33   84525   84522      34
   84531   84528      33   84534   84528      33   84534   84531      34   84540
   84537      33   84543   84537      33   84543   84540      34   84549   84546
      33   84552   84546      33   84552   84549      34   84558   84555      33
   84561   84555      33   84561   84558      34   84567   84564      33   84570
   84564      33   84570   84567      34   84576   84573      33   84579   84573
      33   84579   84576      34   84585   84582      33   84588   84582      33
   84588   84585      34   84594   84591      33   84597   84591      33   84597
   84594      34   84603   84600      33   84606   84600      33   84606   84603
      34   84612   84609      33   84615   84609      33   84615   84612      34
   84621   84618      33   84624   84618      33   84624   84621      34   84630
   84627      33   84633   84627      33   84633   84630      34   84639   84636
      33   84642   84636      33   84642   84639      34   84648   84645      33
   84651   84645      33   84651   84648      34   84657   84654      33   84660
   84654      33   84660   84657      34   84666   84663      33   84669   84663
      33   84669   84666      34   84675   84672      33   84678   84672      33
   84678   84675      34   84684   84681      33   84687   84681      33   84687
   84684      34   84693   84690      33   84696   84690      33   84696   84693
      34   84702   84699      33   84705   84699      33   84705   84702      34
   84711   84708      33   84714   84708      33   84714   84711      34   84720
   84717      33   84723   84717      33   84723   84720      34   84729   84726
      33   84732   84726      33   84732   84729      34   84738   84735      33
   84741   84735      33   84741   84738      34   84747   84744      33   84750
   84744      33   84750   84747      34   84756   84753      33   84759   84753
      33   84759   84756      34   84765   84762      33   84768   84762      33
   84768   84765      34   84774   84771      33   84777   84771      33   84777
   84774      34   84783   84780      33   84786   84780      33   84786   84783
      34   84792   84789      33   84795   84789      33   84795   84792      34
   84801   84798      33   84804   84798      33   84804   84801      34   84810
   84807      33   84813   84807      33   84813   84810      34   84819   84816
      33   84822   84816      33   84822   84819      34   84828   84825      33
   84831   84825      33   84831   84828      34   84837   84834      33   84840
   84834      33   84840   84837      34   84846   84843      33   84849   84843
      33   84849   84846      34   84855   84852      33   84858   84852      33
   84858   84855      34   84864   84861      33   84867   84861      33   84867
   84864      34   84873   84870      33   84876   84870      33   84876   84873
      34   84882   84879      33   84885   84879      33   84885   84882      34
   84891   84888      33   84894   84888      33   84894   84891      34   84900
   84897      33   84903   84897      33   84903   84900      34   84909   84906
      33   84912   84906      33   84912   84909      34   84918   84915      33
   84921   84915      33   84921   84918      34   84927   84924      33   84930
   84924      33   84930   84927      34   84936   84933      33   84939   84933
      33   84939   84936      34   84945   84942      33   84948   84942      33
   84948   84945      34   84954   84951      33   84957   84951      33   84957
   84954      34   84963   84960      33   84966   84960      33   84966   84963
      34   84972   84969      33   84975   84969      33   84975   84972      34
   84981   84978      33   84984   84978      33   84984   84981      34   84990
   84987      33   84993   84987      33   84993   84990      34   84999   84996
      33   85002   84996      33   85002   84999      34   85008   85005      33
   85011   85005      33   85011   85008      34   85017   85014      33   85020
   85014      33   85020   85017      34   85026   85023      33   85029   85023
      33   85029   85026      34   85035   85032      33   85038   85032      33
   85038   85035      34   85044   85041      33   85047   85041      33   85047
   85044      34   85053   85050      33   85056   85050      33   85056   85053
      34   85062   85059      33   85065   85059      33   85065   85062      34
   85071   85068      33   85074   85068      33   85074   85071      34   85080
   85077      33   85083   85077      33   85083   85080      34   85089   85086
      33   85092   85086      33   85092   85089      34   85098   85095      33
   85101   85095      33   85101   85098      34   85107   85104      33   85110
   85104      33   85110   85107      34   85116   85113      33   85119   85113
      33   85119   85116      34   85125   85122      33   85128   85122      33
   85128   85125      34   85134   85131      33   85137   85131      33   85137
   85134      34   85143   85140      33   85146   85140      33   85146   85143
      34   85152   85149      33   85155   85149      33   85155   85152      34
   85161   85158      33   85164   85158      33   85164   85161      34   85170
   85167      33   85173   85167      33   85173   85170      34   85179   85176
      33   85182   85176      33   85182   85179      34   85188   85185      33
   85191   85185      33   85191   85188      34   85197   85194      33   85200
   85194      33   85200   85197      34   85206   85203      33   85209   85203
      33   85209   85206      34   85215   85212      33   85218   85212      33
   85218   85215      34   85224   85221      33   85227   85221      33   85227
   85224      34   85233   85230      33   85236   85230      33   85236   85233
      34   85242   85239      33   85245   85239      33   85245   85242      34
   85251   85248      33   85254   85248      33   85254   85251      34   85260
   85257      33   85263   85257      33   85263   85260      34   85269   85266
      33   85272   85266      33   85272   85269      34   85278   85275      33
   85281   85275      33   85281   85278      34   85287   85284      33   85290
   85284      33   85290   85287      34   85296   85293      33   85299   85293
      33   85299   85296      34   85305   85302      33   85308   85302      33
   85308   85305      34   85314   85311      33   85317   85311      33   85317
   85314      34   85323   85320      33   85326   85320      33   85326   85323
      34   85332   85329      33   85335   85329      33   85335   85332      34
   85341   85338      33   85344   85338      33   85344   85341      34   85350
   85347      33   85353   85347      33   85353   85350      34   85359   85356
      33   85362   85356      33   85362   85359      34   85368   85365      33
   85371   85365      33   85371   85368      34   85377   85374      33   85380
   85374      33   85380   85377      34   85386   85383      33   85389   85383
      33   85389   85386      34   85395   85392      33   85398   85392      33
   85398   85395      34   85404   85401      33   85407   85401      33   85407
   85404      34   85413   85410      33   85416   85410      33   85416   85413
      34   85422   85419      33   85425   85419      33   85425   85422      34
   85431   85428      33   85434   85428      33   85434   85431      34   85440
   85437      33   85443   85437      33   85443   85440      34   85449   85446
      33   85452   85446      33   85452   85449      34   85458   85455      33
   85461   85455      33   85461   85458      34   85467   85464      33   85470
   85464      33   85470   85467      34   85476   85473      33   85479   85473
      33   85479   85476      34   85485   85482      33   85488   85482      33
   85488   85485      34   85494   85491      33   85497   85491      33   85497
   85494      34   85503   85500      33   85506   85500      33   85506   85503
      34   85512   85509      33   85515   85509      33   85515   85512      34
   85521   85518      33   85524   85518      33   85524   85521      34   85530
   85527      33   85533   85527      33   85533   85530      34   85539   85536
      33   85542   85536      33   85542   85539      34   85548   85545      33
   85551   85545      33   85551   85548      34   85557   85554      33   85560
   85554      33   85560   85557      34   85566   85563      33   85569   85563
      33   85569   85566      34   85575   85572      33   85578   85572      33
   85578   85575      34   85584   85581      33   85587   85581      33   85587
   85584      34   85593   85590      33   85596   85590      33   85596   85593
      34   85602   85599      33   85605   85599      33   85605   85602      34
   85611   85608      33   85614   85608      33   85614   85611      34   85620
   85617      33   85623   85617      33   85623   85620      34   85629   85626
      33   85632   85626      33   85632   85629      34   85638   85635      33
   85641   85635      33   85641   85638      34   85647   85644      33   85650
   85644      33   85650   85647      34   85656   85653      33   85659   85653
      33   85659   85656      34   85665   85662      33   85668   85662      33
   85668   85665      34   85674   85671      33   85677   85671      33   85677
   85674      34   85683   85680      33   85686   85680      33   85686   85683
      34   85692   85689      33   85695   85689      33   85695   85692      34
   85701   85698      33   85704   85698      33   85704   85701      34   85710
   85707      33   85713   85707      33   85713   85710      34   85719   85716
      33   85722   85716      33   85722   85719      34   85728   85725      33
   85731   85725      33   85731   85728      34   85737   85734      33   85740
   85734      33   85740   85737      34   85746   85743      33   85749   85743
      33   85749   85746      34   85755   85752      33   85758   85752      33
   85758   85755      34   85764   85761      33   85767   85761      33   85767
   85764      34   85773   85770      33   85776   85770      33   85776   85773
      34   85782   85779      33   85785   85779      33   85785   85782      34
   85791   85788      33   85794   85788      33   85794   85791      34   85800
   85797      33   85803   85797      33   85803   85800      34   85809   85806
      33   85812   85806      33   85812   85809      34   85818   85815      33
   85821   85815      33   85821   85818      34   85827   85824      33   85830
   85824      33   85830   85827      34   85836   85833      33   85839   85833
      33   85839   85836      34   85845   85842      33   85848   85842      33
   85848   85845      34   85854   85851      33   85857   85851      33   85857
   85854      34   85863   85860      33   85866   85860      33   85866   85863
      34   85872   85869      33   85875   85869      33   85875   85872      34
   85881   85878      33   85884   85878      33   85884   85881      34   85890
   85887      33   85893   85887      33   85893   85890      34   85899   85896
      33   85902   85896      33   85902   85899      34   85908   85905      33
   85911   85905      33   85911   85908      34   85917   85914      33   85920
   85914      33   85920   85917      34   85926   85923      33   85929   85923
      33   85929   85926      34   85935   85932      33   85938   85932      33
   85938   85935      34   85944   85941      33   85947   85941      33   85947
   85944      34   85953   85950      33   85956   85950      33   85956   85953
      34   85962   85959      33   85965   85959      33   85965   85962      34
   85971   85968      33   85974   85968      33   85974   85971      34   85980
   85977      33   85983   85977      33   85983   85980      34   85989   85986
      33   85992   85986      33   85992   85989      34   85998   85995      33
   86001   85995      33   86001   85998      34   86007   86004      33   86010
   86004      33   86010   86007      34   86016   86013      33   86019   86013
      33   86019   86016      34   86025   86022      33   86028   86022      33
   86028   86025      34   86034   86031      33   86037   86031      33   86037
   86034      34   86043   86040      33   86046   86040      33   86046   86043
      34   86052   86049      33   86055   86049      33   86055   86052      34
   86061   86058      33   86064   86058      33   86064   86061      34   86070
   86067      33   86073   86067      33   86073   86070      34   86079   86076
      33   86082   86076      33   86082   86079      34   86088   86085      33
   86091   86085      33   86091   86088      34   86097   86094      33   86100
   86094      33   86100   86097      34   86106   86103      33   86109   86103
      33   86109   86106      34   86115   86112      33   86118   86112      33
   86118   86115      34   86124   86121      33   86127   86121      33   86127
   86124      34   86133   86130      33   86136   86130      33   86136   86133
      34   86142   86139      33   86145   86139      33   86145   86142      34
   86151   86148      33   86154   86148      33   86154   86151      34   86160
   86157      33   86163   86157      33   86163   86160      34   86169   86166
      33   86172   86166      33   86172   86169      34   86178   86175      33
   86181   86175      33   86181   86178      34   86187   86184      33   86190
   86184      33   86190   86187      34   86196   86193      33   86199   86193
      33   86199   86196      34   86205   86202      33   86208   86202      33
   86208   86205      34   86214   86211      33   86217   86211      33   86217
   86214      34   86223   86220      33   86226   86220      33   86226   86223
      34   86232   86229      33   86235   86229      33   86235   86232      34
   86241   86238      33   86244   86238      33   86244   86241      34   86250
   86247      33   86253   86247      33   86253   86250      34   86259   86256
      33   86262   86256      33   86262   86259      34   86268   86265      33
   86271   86265      33   86271   86268      34   86277   86274      33   86280
   86274      33   86280   86277      34   86286   86283      33   86289   86283
      33   86289   86286      34   86295   86292      33   86298   86292      33
   86298   86295      34   86304   86301      33   86307   86301      33   86307
   86304      34   86313   86310      33   86316   86310      33   86316   86313
      34   86322   86319      33   86325   86319      33   86325   86322      34
   86331   86328      33   86334   86328      33   86334   86331      34   86340
   86337      33   86343   86337      33   86343   86340      34   86349   86346
      33   86352   86346      33   86352   86349      34   86358   86355      33
   86361   86355      33   86361   86358      34   86367   86364      33   86370
   86364      33   86370   86367      34   86376   86373      33   86379   86373
      33   86379   86376      34   86385   86382      33   86388   86382      33
   86388   86385      34   86394   86391      33   86397   86391      33   86397
   86394      34   86403   86400      33   86406   86400      33   86406   86403
      34   86412   86409      33   86415   86409      33   86415   86412      34
   86421   86418      33   86424   86418      33   86424   86421      34   86430
   86427      33   86433   86427      33   86433   86430      34   86439   86436
      33   86442   86436      33   86442   86439      34   86448   86445      33
   86451   86445      33   86451   86448      34   86457   86454      33   86460
   86454      33   86460   86457      34   86466   86463      33   86469   86463
      33   86469   86466      34   86475   86472      33   86478   86472      33
   86478   86475      34   86484   86481      33   86487   86481      33   86487
   86484      34   86493   86490      33   86496   86490      33   86496   86493
      34   86502   86499      33   86505   86499      33   86505   86502      34
   86511   86508      33   86514   86508      33   86514   86511      34   86520
   86517      33   86523   86517      33   86523   86520      34   86529   86526
      33   86532   86526      33   86532   86529      34   86538   86535      33
   86541   86535      33   86541   86538      34   86547   86544      33   86550
   86544      33   86550   86547      34   86556   86553      33   86559   86553
      33   86559   86556      34   86565   86562      33   86568   86562      33
   86568   86565      34   86574   86571      33   86577   86571      33   86577
   86574      34   86583   86580      33   86586   86580      33   86586   86583
      34   86592   86589      33   86595   86589      33   86595   86592      34
   86601   86598      33   86604   86598      33   86604   86601      34   86610
   86607      33   86613   86607      33   86613   86610      34   86619   86616
      33   86622   86616      33   86622   86619      34   86628   86625      33
   86631   86625      33   86631   86628      34   86637   86634      33   86640
   86634      33   86640   86637      34   86646   86643      33   86649   86643
      33   86649   86646      34   86655   86652      33   86658   86652      33
   86658   86655      34   86664   86661      33   86667   86661      33   86667
   86664      34   86673   86670      33   86676   86670      33   86676   86673
      34   86682   86679      33   86685   86679      33   86685   86682      34
   86691   86688      33   86694   86688      33   86694   86691      34   86700
   86697      33   86703   86697      33   86703   86700      34   86709   86706
      33   86712   86706      33   86712   86709      34   86718   86715      33
   86721   86715      33   86721   86718      34   86727   86724      33   86730
   86724      33   86730   86727      34   86736   86733      33   86739   86733
      33   86739   86736      34   86745   86742      33   86748   86742      33
   86748   86745      34   86754   86751      33   86757   86751      33   86757
   86754      34   86763   86760      33   86766   86760      33   86766   86763
      34   86772   86769      33   86775   86769      33   86775   86772      34
   86781   86778      33   86784   86778      33   86784   86781      34   86790
   86787      33   86793   86787      33   86793   86790      34   86799   86796
      33   86802   86796      33   86802   86799      34   86808   86805      33
   86811   86805      33   86811   86808      34   86817   86814      33   86820
   86814      33   86820   86817      34   86826   86823      33   86829   86823
      33   86829   86826      34   86835   86832      33   86838   86832      33
   86838   86835      34   86844   86841      33   86847   86841      33   86847
   86844      34   86853   86850      33   86856   86850      33   86856   86853
      34   86862   86859      33   86865   86859      33   86865   86862      34
   86871   86868      33   86874   86868      33   86874   86871      34   86880
   86877      33   86883   86877      33   86883   86880      34   86889   86886
      33   86892   86886      33   86892   86889      34   86898   86895      33
   86901   86895      33   86901   86898      34   86907   86904      33   86910
   86904      33   86910   86907      34   86916   86913      33   86919   86913
      33   86919   86916      34   86925   86922      33   86928   86922      33
   86928   86925      34   86934   86931      33   86937   86931      33   86937
   86934      34   86943   86940      33   86946   86940      33   86946   86943
      34   86952   86949      33   86955   86949      33   86955   86952      34
   86961   86958      33   86964   86958      33   86964   86961      34   86970
   86967      33   86973   86967      33   86973   86970      34   86979   86976
      33   86982   86976      33   86982   86979      34   86988   86985      33
   86991   86985      33   86991   86988      34   86997   86994      33   87000
   86994      33   87000   86997      34   87006   87003      33   87009   87003
      33   87009   87006      34   87015   87012      33   87018   87012      33
   87018   87015      34   87024   87021      33   87027   87021      33   87027
   87024      34   87033   87030      33   87036   87030      33   87036   87033
      34   87042   87039      33   87045   87039      33   87045   87042      34
   87051   87048      33   87054   87048      33   87054   87051      34   87060
   87057      33   87063   87057      33   87063   87060      34   87069   87066
      33   87072   87066      33   87072   87069      34   87078   87075      33
   87081   87075      33   87081   87078      34   87087   87084      33   87090
   87084      33   87090   87087      34   87096   87093      33   87099   87093
      33   87099   87096      34   87105   87102      33   87108   87102      33
   87108   87105      34   87114   87111      33   87117   87111      33   87117
   87114      34   87123   87120      33   87126   87120      33   87126   87123
      34   87132   87129      33   87135   87129      33   87135   87132      34
   87141   87138      33   87144   87138      33   87144   87141      34   87150
   87147      33   87153   87147      33   87153   87150      34   87159   87156
      33   87162   87156      33   87162   87159      34   87168   87165      33
   87171   87165      33   87171   87168      34   87177   87174      33   87180
   87174      33   87180   87177      34   87186   87183      33   87189   87183
      33   87189   87186      34   87195   87192      33   87198   87192      33
   87198   87195      34   87204   87201      33   87207   87201      33   87207
   87204      34   87213   87210      33   87216   87210      33   87216   87213
      34   87222   87219      33   87225   87219      33   87225   87222      34
   87231   87228      33   87234   87228      33   87234   87231      34   87240
   87237      33   87243   87237      33   87243   87240      34   87249   87246
      33   87252   87246      33   87252   87249      34   87258   87255      33
   87261   87255      33   87261   87258      34   87267   87264      33   87270
   87264      33   87270   87267      34   87276   87273      33   87279   87273
      33   87279   87276      34   87285   87282      33   87288   87282      33
   87288   87285      34   87294   87291      33   87297   87291      33   87297
   87294      34   87303   87300      33   87306   87300      33   87306   87303
      34   87312   87309      33   87315   87309      33   87315   87312      34
   87321   87318      33   87324   87318      33   87324   87321      34   87330
   87327      33   87333   87327      33   87333   87330      34   87339   87336
      33   87342   87336      33   87342   87339      34   87348   87345      33
   87351   87345      33   87351   87348      34   87357   87354      33   87360
   87354      33   87360   87357      34   87366   87363      33   87369   87363
      33   87369   87366      34   87375   87372      33   87378   87372      33
   87378   87375      34   87384   87381      33   87387   87381      33   87387
   87384      34   87393   87390      33   87396   87390      33   87396   87393
      34   87402   87399      33   87405   87399      33   87405   87402      34
   87411   87408      33   87414   87408      33   87414   87411      34   87420
   87417      33   87423   87417      33   87423   87420      34   87429   87426
      33   87432   87426      33   87432   87429      34   87438   87435      33
   87441   87435      33   87441   87438      34   87447   87444      33   87450
   87444      33   87450   87447      34   87456   87453      33   87459   87453
      33   87459   87456      34   87465   87462      33   87468   87462      33
   87468   87465      34   87474   87471      33   87477   87471      33   87477
   87474      34   87483   87480      33   87486   87480      33   87486   87483
      34   87492   87489      33   87495   87489      33   87495   87492      34
   87501   87498      33   87504   87498      33   87504   87501      34   87510
   87507      33   87513   87507      33   87513   87510      34   87519   87516
      33   87522   87516      33   87522   87519      34   87528   87525      33
   87531   87525      33   87531   87528      34   87537   87534      33   87540
   87534      33   87540   87537      34   87546   87543      33   87549   87543
      33   87549   87546      34   87555   87552      33   87558   87552      33
   87558   87555      34   87564   87561      33   87567   87561      33   87567
   87564      34   87573   87570      33   87576   87570      33   87576   87573
      34   87582   87579      33   87585   87579      33   87585   87582      34
   87591   87588      33   87594   87588      33   87594   87591      34   87600
   87597      33   87603   87597      33   87603   87600      34   87609   87606
      33   87612   87606      33   87612   87609      34   87618   87615      33
   87621   87615      33   87621   87618      34   87627   87624      33   87630
   87624      33   87630   87627      34   87636   87633      33   87639   87633
      33   87639   87636      34   87645   87642      33   87648   87642      33
   87648   87645      34   87654   87651      33   87657   87651      33   87657
   87654      34   87663   87660      33   87666   87660      33   87666   87663
      34   87672   87669      33   87675   87669      33   87675   87672      34
   87681   87678      33   87684   87678      33   87684   87681      34   87690
   87687      33   87693   87687      33   87693   87690      34   87699   87696
      33   87702   87696      33   87702   87699      34   87708   87705      33
   87711   87705      33   87711   87708      34   87717   87714      33   87720
   87714      33   87720   87717      34   87726   87723      33   87729   87723
      33   87729   87726      34   87735   87732      33   87738   87732      33
   87738   87735      34   87744   87741      33   87747   87741      33   87747
   87744      34   87753   87750      33   87756   87750      33   87756   87753
      34   87762   87759      33   87765   87759      33   87765   87762      34
   87771   87768      33   87774   87768      33   87774   87771      34   87780
   87777      33   87783   87777      33   87783   87780      34   87789   87786
      33   87792   87786      33   87792   87789      34   87798   87795      33
   87801   87795      33   87801   87798      34   87807   87804      33   87810
   87804      33   87810   87807      34   87816   87813      33   87819   87813
      33   87819   87816      34   87825   87822      33   87828   87822      33
   87828   87825      34   87834   87831      33   87837   87831      33   87837
   87834      34   87843   87840      33   87846   87840      33   87846   87843
      34   87852   87849      33   87855   87849      33   87855   87852      34
   87861   87858      33   87864   87858      33   87864   87861      34   87870
   87867      33   87873   87867      33   87873   87870      34   87879   87876
      33   87882   87876      33   87882   87879      34   87888   87885      33
   87891   87885      33   87891   87888      34   87897   87894      33   87900
   87894      33   87900   87897      34   87906   87903      33   87909   87903
      33   87909   87906      34   87915   87912      33   87918   87912      33
   87918   87915      34   87924   87921      33   87927   87921      33   87927
   87924      34   87933   87930      33   87936   87930      33   87936   87933
      34   87942   87939      33   87945   87939      33   87945   87942      34
   87951   87948      33   87954   87948      33   87954   87951      34   87960
   87957      33   87963   87957      33   87963   87960      34   87969   87966
      33   87972   87966      33   87972   87969      34   87978   87975      33
   87981   87975      33   87981   87978      34   87987   87984      33   87990
   87984      33   87990   87987      34   87996   87993      33   87999   87993
      33   87999   87996      34   88005   88002      33   88008   88002      33
   88008   88005      34   88014   88011      33   88017   88011      33   88017
   88014      34   88023   88020      33   88026   88020      33   88026   88023
      34   88032   88029      33   88035   88029      33   88035   88032      34
   88041   88038      33   88044   88038      33   88044   88041      34   88050
   88047      33   88053   88047      33   88053   88050      34   88059   88056
      33   88062   88056      33   88062   88059      34   88068   88065      33
   88071   88065      33   88071   88068      34   88077   88074      33   88080
   88074      33   88080   88077      34   88086   88083      33   88089   88083
      33   88089   88086      34   88095   88092      33   88098   88092      33
   88098   88095      34   88104   88101      33   88107   88101      33   88107
   88104      34   88113   88110      33   88116   88110      33   88116   88113
      34   88122   88119      33   88125   88119      33   88125   88122      34
   88131   88128      33   88134   88128      33   88134   88131      34   88140
   88137      33   88143   88137      33   88143   88140      34   88149   88146
      33   88152   88146      33   88152   88149      34   88158   88155      33
   88161   88155      33   88161   88158      34   88167   88164      33   88170
   88164      33   88170   88167      34   88176   88173      33   88179   88173
      33   88179   88176      34   88185   88182      33   88188   88182      33
   88188   88185      34   88194   88191      33   88197   88191      33   88197
   88194      34   88203   88200      33   88206   88200      33   88206   88203
      34   88212   88209      33   88215   88209      33   88215   88212      34
   88221   88218      33   88224   88218      33   88224   88221      34   88230
   88227      33   88233   88227      33   88233   88230      34   88239   88236
      33   88242   88236      33   88242   88239      34   88248   88245      33
   88251   88245      33   88251   88248      34   88257   88254      33   88260
   88254      33   88260   88257      34   88266   88263      33   88269   88263
      33   88269   88266      34   88275   88272      33   88278   88272      33
   88278   88275      34   88284   88281      33   88287   88281      33   88287
   88284      34   88293   88290      33   88296   88290      33   88296   88293
      34   88302   88299      33   88305   88299      33   88305   88302      34
   88311   88308      33   88314   88308      33   88314   88311      34   88320
   88317      33   88323   88317      33   88323   88320      34   88329   88326
      33   88332   88326      33   88332   88329      34   88338   88335      33
   88341   88335      33   88341   88338      34   88347   88344      33   88350
   88344      33   88350   88347      34   88356   88353      33   88359   88353
      33   88359   88356      34   88365   88362      33   88368   88362      33
   88368   88365      34   88374   88371      33   88377   88371      33   88377
   88374      34   88383   88380      33   88386   88380      33   88386   88383
      34   88392   88389      33   88395   88389      33   88395   88392      34
   88401   88398      33   88404   88398      33   88404   88401      34   88410
   88407      33   88413   88407      33   88413   88410      34   88419   88416
      33   88422   88416      33   88422   88419      34   88428   88425      33
   88431   88425      33   88431   88428      34   88437   88434      33   88440
   88434      33   88440   88437      34   88446   88443      33   88449   88443
      33   88449   88446      34   88455   88452      33   88458   88452      33
   88458   88455      34   88464   88461      33   88467   88461      33   88467
   88464      34   88473   88470      33   88476   88470      33   88476   88473
      34   88482   88479      33   88485   88479      33   88485   88482      34
   88491   88488      33   88494   88488      33   88494   88491      34   88500
   88497      33   88503   88497      33   88503   88500      34   88509   88506
      33   88512   88506      33   88512   88509      34   88518   88515      33
   88521   88515      33   88521   88518      34   88527   88524      33   88530
   88524      33   88530   88527      34   88536   88533      33   88539   88533
      33   88539   88536      34   88545   88542      33   88548   88542      33
   88548   88545      34   88554   88551      33   88557   88551      33   88557
   88554      34   88563   88560      33   88566   88560      33   88566   88563
      34   88572   88569      33   88575   88569      33   88575   88572      34
   88581   88578      33   88584   88578      33   88584   88581      34   88590
   88587      33   88593   88587      33   88593   88590      34   88599   88596
      33   88602   88596      33   88602   88599      34   88608   88605      33
   88611   88605      33   88611   88608      34   88617   88614      33   88620
   88614      33   88620   88617      34   88626   88623      33   88629   88623
      33   88629   88626      34   88635   88632      33   88638   88632      33
   88638   88635      34   88644   88641      33   88647   88641      33   88647
   88644      34   88653   88650      33   88656   88650      33   88656   88653
      34   88662   88659      33   88665   88659      33   88665   88662      34
   88671   88668      33   88674   88668      33   88674   88671      34   88680
   88677      33   88683   88677      33   88683   88680      34   88689   88686
      33   88692   88686      33   88692   88689      34   88698   88695      33
   88701   88695      33   88701   88698      34   88707   88704      33   88710
   88704      33   88710   88707      34   88716   88713      33   88719   88713
      33   88719   88716      34   88725   88722      33   88728   88722      33
   88728   88725      34   88734   88731      33   88737   88731      33   88737
   88734      34   88743   88740      33   88746   88740      33   88746   88743
      34   88752   88749      33   88755   88749      33   88755   88752      34
   88761   88758      33   88764   88758      33   88764   88761      34   88770
   88767      33   88773   88767      33   88773   88770      34   88779   88776
      33   88782   88776      33   88782   88779      34   88788   88785      33
   88791   88785      33   88791   88788      34   88797   88794      33   88800
   88794      33   88800   88797      34   88806   88803      33   88809   88803
      33   88809   88806      34   88815   88812      33   88818   88812      33
   88818   88815      34   88824   88821      33   88827   88821      33   88827
   88824      34   88833   88830      33   88836   88830      33   88836   88833
      34   88842   88839      33   88845   88839      33   88845   88842      34
   88851   88848      33   88854   88848      33   88854   88851      34   88860
   88857      33   88863   88857      33   88863   88860      34   88869   88866
      33   88872   88866      33   88872   88869      34   88878   88875      33
   88881   88875      33   88881   88878      34   88887   88884      33   88890
   88884      33   88890   88887      34   88896   88893      33   88899   88893
      33   88899   88896      34   88905   88902      33   88908   88902      33
   88908   88905      34   88914   88911      33   88917   88911      33   88917
   88914      34   88923   88920      33   88926   88920      33   88926   88923
      34   88932   88929      33   88935   88929      33   88935   88932      34
   88941   88938      33   88944   88938      33   88944   88941      34   88950
   88947      33   88953   88947      33   88953   88950      34   88959   88956
      33   88962   88956      33   88962   88959      34   88968   88965      33
   88971   88965      33   88971   88968      34   88977   88974      33   88980
   88974      33   88980   88977      34   88986   88983      33   88989   88983
      33   88989   88986      34   88995   88992      33   88998   88992      33
   88998   88995      34   89004   89001      33   89007   89001      33   89007
   89004      34   89013   89010      33   89016   89010      33   89016   89013
      34   89022   89019      33   89025   89019      33   89025   89022      34
   89031   89028      33   89034   89028      33   89034   89031      34   89040
   89037      33   89043   89037      33   89043   89040      34   89049   89046
      33   89052   89046      33   89052   89049      34   89058   89055      33
   89061   89055      33   89061   89058      34   89067   89064      33   89070
   89064      33   89070   89067      34   89076   89073      33   89079   89073
      33   89079   89076      34   89085   89082      33   89088   89082      33
   89088   89085      34   89094   89091      33   89097   89091      33   89097
   89094      34   89103   89100      33   89106   89100      33   89106   89103
      34   89112   89109      33   89115   89109      33   89115   89112      34
   89121   89118      33   89124   89118      33   89124   89121      34   89130
   89127      33   89133   89127      33   89133   89130      34   89139   89136
      33   89142   89136      33   89142   89139      34   89148   89145      33
   89151   89145      33   89151   89148      34   89157   89154      33   89160
   89154      33   89160   89157      34   89166   89163      33   89169   89163
      33   89169   89166      34   89175   89172      33   89178   89172      33
   89178   89175      34   89184   89181      33   89187   89181      33   89187
   89184      34   89193   89190      33   89196   89190      33   89196   89193
      34   89202   89199      33   89205   89199      33   89205   89202      34
   89211   89208      33   89214   89208      33   89214   89211      34   89220
   89217      33   89223   89217      33   89223   89220      34   89229   89226
      33   89232   89226      33   89232   89229      34   89238   89235      33
   89241   89235      33   89241   89238      34   89247   89244      33   89250
   89244      33   89250   89247      34   89256   89253      33   89259   89253
      33   89259   89256      34   89265   89262      33   89268   89262      33
   89268   89265      34   89274   89271      33   89277   89271      33   89277
   89274      34   89283   89280      33   89286   89280      33   89286   89283
      34   89292   89289      33   89295   89289      33   89295   89292      34
   89301   89298      33   89304   89298      33   89304   89301      34   89310
   89307      33   89313   89307      33   89313   89310      34   89319   89316
      33   89322   89316      33   89322   89319      34   89328   89325      33
   89331   89325      33   89331   89328      34   89337   89334      33   89340
   89334      33   89340   89337      34   89346   89343      33   89349   89343
      33   89349   89346      34   89355   89352      33   89358   89352      33
   89358   89355      34   89364   89361      33   89367   89361      33   89367
   89364      34   89373   89370      33   89376   89370      33   89376   89373
      34   89382   89379      33   89385   89379      33   89385   89382      34
   89391   89388      33   89394   89388      33   89394   89391      34   89400
   89397      33   89403   89397      33   89403   89400      34   89409   89406
      33   89412   89406      33   89412   89409      34   89418   89415      33
   89421   89415      33   89421   89418      34   89427   89424      33   89430
   89424      33   89430   89427      34   89436   89433      33   89439   89433
      33   89439   89436      34   89445   89442      33   89448   89442      33
   89448   89445      34   89454   89451      33   89457   89451      33   89457
   89454      34   89463   89460      33   89466   89460      33   89466   89463
      34   89472   89469      33   89475   89469      33   89475   89472      34
   89481   89478      33   89484   89478      33   89484   89481      34   89490
   89487      33   89493   89487      33   89493   89490      34   89499   89496
      33   89502   89496      33   89502   89499      34   89508   89505      33
   89511   89505      33   89511   89508      34   89517   89514      33   89520
   89514      33   89520   89517      34   89526   89523      33   89529   89523
      33   89529   89526      34   89535   89532      33   89538   89532      33
   89538   89535      34   89544   89541      33   89547   89541      33   89547
   89544      34   89553   89550      33   89556   89550      33   89556   89553
      34   89562   89559      33   89565   89559      33   89565   89562      34
   89571   89568      33   89574   89568      33   89574   89571      34   89580
   89577      33   89583   89577      33   89583   89580      34   89589   89586
      33   89592   89586      33   89592   89589      34   89598   89595      33
   89601   89595      33   89601   89598      34   89607   89604      33   89610
   89604      33   89610   89607      34   89616   89613      33   89619   89613
      33   89619   89616      34   89625   89622      33   89628   89622      33
   89628   89625      34   89634   89631      33   89637   89631      33   89637
   89634      34   89643   89640      33   89646   89640      33   89646   89643
      34   89652   89649      33   89655   89649      33   89655   89652      34
   89661   89658      33   89664   89658      33   89664   89661      34   89670
   89667      33   89673   89667      33   89673   89670      34   89679   89676
      33   89682   89676      33   89682   89679      34   89688   89685      33
   89691   89685      33   89691   89688      34   89697   89694      33   89700
   89694      33   89700   89697      34   89706   89703      33   89709   89703
      33   89709   89706      34   89715   89712      33   89718   89712      33
   89718   89715      34   89724   89721      33   89727   89721      33   89727
   89724      34   89733   89730      33   89736   89730      33   89736   89733
      34   89742   89739      33   89745   89739      33   89745   89742      34
   89751   89748      33   89754   89748      33   89754   89751      34   89760
   89757      33   89763   89757      33   89763   89760      34   89769   89766
      33   89772   89766      33   89772   89769      34   89778   89775      33
   89781   89775      33   89781   89778      34   89787   89784      33   89790
   89784      33   89790   89787      34   89796   89793      33   89799   89793
      33   89799   89796      34   89805   89802      33   89808   89802      33
   89808   89805      34   89814   89811      33   89817   89811      33   89817
   89814      34   89823   89820      33   89826   89820      33   89826   89823
      34   89832   89829      33   89835   89829      33   89835   89832      34
   89841   89838      33   89844   89838      33   89844   89841      34   89850
   89847      33   89853   89847      33   89853   89850      34   89859   89856
      33   89862   89856      33   89862   89859      34   89868   89865      33
   89871   89865      33   89871   89868      34   89877   89874      33   89880
   89874      33   89880   89877      34   89886   89883      33   89889   89883
      33   89889   89886      34   89895   89892      33   89898   89892      33
   89898   89895      34   89904   89901      33   89907   89901      33   89907
   89904      34   89913   89910      33   89916   89910      33   89916   89913
      34   89922   89919      33   89925   89919      33   89925   89922      34
   89931   89928      33   89934   89928      33   89934   89931      34   89940
   89937      33   89943   89937      33   89943   89940      34   89949   89946
      33   89952   89946      33   89952   89949      34   89958   89955      33
   89961   89955      33   89961   89958      34   89967   89964      33   89970
   89964      33   89970   89967      34   89976   89973      33   89979   89973
      33   89979   89976      34   89985   89982      33   89988   89982      33
   89988   89985      34   89994   89991      33   89997   89991      33   89997
   89994      34   90003   90000      33   90006   90000      33   90006   90003
      34   90012   90009      33   90015   90009      33   90015   90012      34
   90021   90018      33   90024   90018      33   90024   90021      34   90030
   90027      33   90033   90027      33   90033   90030      34   90039   90036
      33   90042   90036      33   90042   90039      34   90048   90045      33
   90051   90045      33   90051   90048      34   90057   90054      33   90060
   90054      33   90060   90057      34   90066   90063      33   90069   90063
      33   90069   90066      34   90075   90072      33   90078   90072      33
   90078   90075      34   90084   90081      33   90087   90081      33   90087
   90084      34   90093   90090      33   90096   90090      33   90096   90093
      34   90102   90099      33   90105   90099      33   90105   90102      34
   90111   90108      33   90114   90108      33   90114   90111      34   90120
   90117      33   90123   90117      33   90123   90120      34   90129   90126
      33   90132   90126      33   90132   90129      34   90138   90135      33
   90141   90135      33   90141   90138      34   90147   90144      33   90150
   90144      33   90150   90147      34   90156   90153      33   90159   90153
      33   90159   90156      34   90165   90162      33   90168   90162      33
   90168   90165      34   90174   90171      33   90177   90171      33   90177
   90174      34   90183   90180      33   90186   90180      33   90186   90183
      34   90192   90189      33   90195   90189      33   90195   90192      34
   90201   90198      33   90204   90198      33   90204   90201      34   90210
   90207      33   90213   90207      33   90213   90210      34   90219   90216
      33   90222   90216      33   90222   90219      34   90228   90225      33
   90231   90225      33   90231   90228      34   90237   90234      33   90240
   90234      33   90240   90237      34   90246   90243      33   90249   90243
      33   90249   90246      34   90255   90252      33   90258   90252      33
   90258   90255      34   90264   90261      33   90267   90261      33   90267
   90264      34   90273   90270      33   90276   90270      33   90276   90273
      34   90282   90279      33   90285   90279      33   90285   90282      34
   90291   90288      33   90294   90288      33   90294   90291      34   90300
   90297      33   90303   90297      33   90303   90300      34   90309   90306
      33   90312   90306      33   90312   90309      34   90318   90315      33
   90321   90315      33   90321   90318      34   90327   90324      33   90330
   90324      33   90330   90327      34   90336   90333      33   90339   90333
      33   90339   90336      34   90345   90342      33   90348   90342      33
   90348   90345      34   90354   90351      33   90357   90351      33   90357
   90354      34   90363   90360      33   90366   90360      33   90366   90363
      34   90372   90369      33   90375   90369      33   90375   90372      34
   90381   90378      33   90384   90378      33   90384   90381      34   90390
   90387      33   90393   90387      33   90393   90390      34   90399   90396
      33   90402   90396      33   90402   90399      34   90408   90405      33
   90411   90405      33   90411   90408      34   90417   90414      33   90420
   90414      33   90420   90417      34   90426   90423      33   90429   90423
      33   90429   90426      34   90435   90432      33   90438   90432      33
   90438   90435      34   90444   90441      33   90447   90441      33   90447
   90444      34   90453   90450      33   90456   90450      33   90456   90453
      34   90462   90459      33   90465   90459      33   90465   90462      34
   90471   90468      33   90474   90468      33   90474   90471      34   90480
   90477      33   90483   90477      33   90483   90480      34   90489   90486
      33   90492   90486      33   90492   90489      34   90498   90495      33
   90501   90495      33   90501   90498      34   90507   90504      33   90510
   90504      33   90510   90507      34   90516   90513      33   90519   90513
      33   90519   90516      34   90525   90522      33   90528   90522      33
   90528   90525      34   90534   90531      33   90537   90531      33   90537
   90534      34   90543   90540      33   90546   90540      33   90546   90543
      34   90552   90549      33   90555   90549      33   90555   90552      34
   90561   90558      33   90564   90558      33   90564   90561      34   90570
   90567      33   90573   90567      33   90573   90570      34   90579   90576
      33   90582   90576      33   90582   90579      34   90588   90585      33
   90591   90585      33   90591   90588      34   90597   90594      33   90600
   90594      33   90600   90597      34   90606   90603      33   90609   90603
      33   90609   90606      34   90615   90612      33   90618   90612      33
   90618   90615      34   90624   90621      33   90627   90621      33   90627
   90624      34   90633   90630      33   90636   90630      33   90636   90633
      34   90642   90639      33   90645   90639      33   90645   90642      34
   90651   90648      33   90654   90648      33   90654   90651      34   90660
   90657      33   90663   90657      33   90663   90660      34   90669   90666
      33   90672   90666      33   90672   90669      34   90678   90675      33
   90681   90675      33   90681   90678      34   90687   90684      33   90690
   90684      33   90690   90687      34   90696   90693      33   90699   90693
      33   90699   90696      34   90705   90702      33   90708   90702      33
   90708   90705      34   90714   90711      33   90717   90711      33   90717
   90714      34   90723   90720      33   90726   90720      33   90726   90723
      34   90732   90729      33   90735   90729      33   90735   90732      34
   90741   90738      33   90744   90738      33   90744   90741      34   90750
   90747      33   90753   90747      33   90753   90750      34   90759   90756
      33   90762   90756      33   90762   90759      34   90768   90765      33
   90771   90765      33   90771   90768      34   90777   90774      33   90780
   90774      33   90780   90777      34   90786   90783      33   90789   90783
      33   90789   90786      34   90795   90792      33   90798   90792      33
   90798   90795      34   90804   90801      33   90807   90801      33   90807
   90804      34   90813   90810      33   90816   90810      33   90816   90813
      34   90822   90819      33   90825   90819      33   90825   90822      34
   90831   90828      33   90834   90828      33   90834   90831      34   90840
   90837      33   90843   90837      33   90843   90840      34   90849   90846
      33   90852   90846      33   90852   90849      34   90858   90855      33
   90861   90855      33   90861   90858      34   90867   90864      33   90870
   90864      33   90870   90867      34   90876   90873      33   90879   90873
      33   90879   90876      34   90885   90882      33   90888   90882      33
   90888   90885      34   90894   90891      33   90897   90891      33   90897
   90894      34   90903   90900      33   90906   90900      33   90906   90903
      34   90912   90909      33   90915   90909      33   90915   90912      34
   90921   90918      33   90924   90918      33   90924   90921      34   90930
   90927      33   90933   90927      33   90933   90930      34   90939   90936
      33   90942   90936      33   90942   90939      34   90948   90945      33
   90951   90945      33   90951   90948      34   90957   90954      33   90960
   90954      33   90960   90957      34   90966   90963      33   90969   90963
      33   90969   90966      34   90975   90972      33   90978   90972      33
   90978   90975      34   90984   90981      33   90987   90981      33   90987
   90984      34   90993   90990      33   90996   90990      33   90996   90993
      34   91002   90999      33   91005   90999      33   91005   91002      34
   91011   91008      33   91014   91008      33   91014   91011      34   91020
   91017      33   91023   91017      33   91023   91020      34   91029   91026
      33   91032   91026      33   91032   91029      34   91038   91035      33
   91041   91035      33   91041   91038      34   91047   91044      33   91050
   91044      33   91050   91047      34   91056   91053      33   91059   91053
      33   91059   91056      34   91065   91062      33   91068   91062      33
   91068   91065      34   91074   91071      33   91077   91071      33   91077
   91074      34   91083   91080      33   91086   91080      33   91086   91083
      34   91092   91089      33   91095   91089      33   91095   91092      34
   91101   91098      33   91104   91098      33   91104   91101      34   91110
   91107      33   91113   91107      33   91113   91110      34   91119   91116
      33   91122   91116      33   91122   91119      34   91128   91125      33
   91131   91125      33   91131   91128      34   91137   91134      33   91140
   91134      33   91140   91137      34   91146   91143      33   91149   91143
      33   91149   91146      34   91155   91152      33   91158   91152      33
   91158   91155      34   91164   91161      33   91167   91161      33   91167
   91164      34   91173   91170      33   91176   91170      33   91176   91173
      34   91182   91179      33   91185   91179      33   91185   91182      34
   91191   91188      33   91194   91188      33   91194   91191      34   91200
   91197      33   91203   91197      33   91203   91200      34   91209   91206
      33   91212   91206      33   91212   91209      34   91218   91215      33
   91221   91215      33   91221   91218      34   91227   91224      33   91230
   91224      33   91230   91227      34   91236   91233      33   91239   91233
      33   91239   91236      34   91245   91242      33   91248   91242      33
   91248   91245      34   91254   91251      33   91257   91251      33   91257
   91254      34   91263   91260      33   91266   91260      33   91266   91263
      34   91272   91269      33   91275   91269      33   91275   91272      34
   91281   91278      33   91284   91278      33   91284   91281      34   91290
   91287      33   91293   91287      33   91293   91290      34   91299   91296
      33   91302   91296      33   91302   91299      34   91308   91305      33
   91311   91305      33   91311   91308      34   91317   91314      33   91320
   91314      33   91320   91317      34   91326   91323      33   91329   91323
      33   91329   91326      34   91335   91332      33   91338   91332      33
   91338   91335      34   91344   91341      33   91347   91341      33   91347
   91344      34   91353   91350      33   91356   91350      33   91356   91353
      34   91362   91359      33   91365   91359      33   91365   91362      34
   91371   91368      33   91374   91368      33   91374   91371      34   91380
   91377      33   91383   91377      33   91383   91380      34   91389   91386
      33   91392   91386      33   91392   91389      34   91398   91395      33
   91401   91395      33   91401   91398      34   91407   91404      33   91410
   91404      33   91410   91407      34   91416   91413      33   91419   91413
      33   91419   91416      34   91425   91422      33   91428   91422      33
   91428   91425      34   91434   91431      33   91437   91431      33   91437
   91434      34   91443   91440      33   91446   91440      33   91446   91443
      34   91452   91449      33   91455   91449      33   91455   91452      34
   91461   91458      33   91464   91458      33   91464   91461      34   91470
   91467      33   91473   91467      33   91473   91470      34   91479   91476
      33   91482   91476      33   91482   91479      34   91488   91485      33
   91491   91485      33   91491   91488      34   91497   91494      33   91500
   91494      33   91500   91497      34   91506   91503      33   91509   91503
      33   91509   91506      34   91515   91512      33   91518   91512      33
   91518   91515      34   91524   91521      33   91527   91521      33   91527
   91524      34   91533   91530      33   91536   91530      33   91536   91533
      34   91542   91539      33   91545   91539      33   91545   91542      34
   91551   91548      33   91554   91548      33   91554   91551      34   91560
   91557      33   91563   91557      33   91563   91560      34   91569   91566
      33   91572   91566      33   91572   91569      34   91578   91575      33
   91581   91575      33   91581   91578      34   91587   91584      33   91590
   91584      33   91590   91587      34   91596   91593      33   91599   91593
      33   91599   91596      34   91605   91602      33   91608   91602      33
   91608   91605      34   91614   91611      33   91617   91611      33   91617
   91614      34   91623   91620      33   91626   91620      33   91626   91623
      34   91632   91629      33   91635   91629      33   91635   91632      34
   91641   91638      33   91644   91638      33   91644   91641      34   91650
   91647      33   91653   91647      33   91653   91650      34   91659   91656
      33   91662   91656      33   91662   91659      34   91668   91665      33
   91671   91665      33   91671   91668      34   91677   91674      33   91680
   91674      33   91680   91677      34   91686   91683      33   91689   91683
      33   91689   91686      34   91695   91692      33   91698   91692      33
   91698   91695      34   91704   91701      33   91707   91701      33   91707
   91704      34   91713   91710      33   91716   91710      33   91716   91713
      34   91722   91719      33   91725   91719      33   91725   91722      34
   91731   91728      33   91734   91728      33   91734   91731      34   91740
   91737      33   91743   91737      33   91743   91740      34   91749   91746
      33   91752   91746      33   91752   91749      34   91758   91755      33
   91761   91755      33   91761   91758      34   91767   91764      33   91770
   91764      33   91770   91767      34   91776   91773      33   91779   91773
      33   91779   91776      34   91785   91782      33   91788   91782      33
   91788   91785      34   91794   91791      33   91797   91791      33   91797
   91794      34   91803   91800      33   91806   91800      33   91806   91803
      34   91812   91809      33   91815   91809      33   91815   91812      34
   91821   91818      33   91824   91818      33   91824   91821      34   91830
   91827      33   91833   91827      33   91833   91830      34   91839   91836
      33   91842   91836      33   91842   91839      34   91848   91845      33
   91851   91845      33   91851   91848      34   91857   91854      33   91860
   91854      33   91860   91857      34   91866   91863      33   91869   91863
      33   91869   91866      34   91875   91872      33   91878   91872      33
   91878   91875      34   91884   91881      33   91887   91881      33   91887
   91884      34   91893   91890      33   91896   91890      33   91896   91893
      34   91902   91899      33   91905   91899      33   91905   91902      34
   91911   91908      33   91914   91908      33   91914   91911      34   91920
   91917      33   91923   91917      33   91923   91920      34   91929   91926
      33   91932   91926      33   91932   91929      34   91938   91935      33
   91941   91935      33   91941   91938      34   91947   91944      33   91950
   91944      33   91950   91947      34   91956   91953      33   91959   91953
      33   91959   91956      34   91965   91962      33   91968   91962      33
   91968   91965      34   91974   91971      33   91977   91971      33   91977
   91974      34   91983   91980      33   91986   91980      33   91986   91983
      34   91992   91989      33   91995   91989      33   91995   91992      34
   92001   91998      33   92004   91998      33   92004   92001      34   92010
   92007      33   92013   92007      33   92013   92010      34   92019   92016
      33   92022   92016      33   92022   92019      34   92028   92025      33
   92031   92025      33   92031   92028      34   92037   92034      33   92040
   92034      33   92040   92037      34   92046   92043      33   92049   92043
      33   92049   92046      34   92055   92052      33   92058   92052      33
   92058   92055      34   92064   92061      33   92067   92061      33   92067
   92064      34   92073   92070      33   92076   92070      33   92076   92073
      34   92082   92079      33   92085   92079      33   92085   92082      34
   92091   92088      33   92094   92088      33   92094   92091      34   92100
   92097      33   92103   92097      33   92103   92100      34   92109   92106
      33   92112   92106      33   92112   92109      34   92118   92115      33
   92121   92115      33   92121   92118      34   92127   92124      33   92130
   92124      33   92130   92127      34   92136   92133      33   92139   92133
      33   92139   92136      34   92145   92142      33   92148   92142      33
   92148   92145      34   92154   92151      33   92157   92151      33   92157
   92154      34   92163   92160      33   92166   92160      33   92166   92163
      34   92172   92169      33   92175   92169      33   92175   92172      34
   92181   92178      33   92184   92178      33   92184   92181      34   92190
   92187      33   92193   92187      33   92193   92190      34   92199   92196
      33   92202   92196      33   92202   92199      34   92208   92205      33
   92211   92205      33   92211   92208      34   92217   92214      33   92220
   92214      33   92220   92217      34   92226   92223      33   92229   92223
      33   92229   92226      34   92235   92232      33   92238   92232      33
   92238   92235      34   92244   92241      33   92247   92241      33   92247
   92244      34   92253   92250      33   92256   92250      33   92256   92253
      34   92262   92259      33   92265   92259      33   92265   92262      34
   92271   92268      33   92274   92268      33   92274   92271      34   92280
   92277      33   92283   92277      33   92283   92280      34   92289   92286
      33   92292   92286      33   92292   92289      34   92298   92295      33
   92301   92295      33   92301   92298      34   92307   92304      33   92310
   92304      33   92310   92307      34   92316   92313      33   92319   92313
      33   92319   92316      34   92325   92322      33   92328   92322      33
   92328   92325      34   92334   92331      33   92337   92331      33   92337
   92334      34   92343   92340      33   92346   92340      33   92346   92343
      34   92352   92349      33   92355   92349      33   92355   92352      34
   92361   92358      33   92364   92358      33   92364   92361      34   92370
   92367      33   92373   92367      33   92373   92370      34   92379   92376
      33   92382   92376      33   92382   92379      34   92388   92385      33
   92391   92385      33   92391   92388      34   92397   92394      33   92400
   92394      33   92400   92397      34   92406   92403      33   92409   92403
      33   92409   92406      34   92415   92412      33   92418   92412      33
   92418   92415      34   92424   92421      33   92427   92421      33   92427
   92424      34   92433   92430      33   92436   92430      33   92436   92433
      34   92442   92439      33   92445   92439      33   92445   92442      34
   92451   92448      33   92454   92448      33   92454   92451      34   92460
   92457      33   92463   92457      33   92463   92460      34   92469   92466
      33   92472   92466      33   92472   92469      34   92478   92475      33
   92481   92475      33   92481   92478      34   92487   92484      33   92490
   92484      33   92490   92487      34   92496   92493      33   92499   92493
      33   92499   92496      34   92505   92502      33   92508   92502      33
   92508   92505      34   92514   92511      33   92517   92511      33   92517
   92514      34   92523   92520      33   92526   92520      33   92526   92523
      34   92532   92529      33   92535   92529      33   92535   92532      34
   92541   92538      33   92544   92538      33   92544   92541      34   92550
   92547      33   92553   92547      33   92553   92550      34   92559   92556
      33   92562   92556      33   92562   92559      34   92568   92565      33
   92571   92565      33   92571   92568      34   92577   92574      33   92580
   92574      33   92580   92577      34   92586   92583      33   92589   92583
      33   92589   92586      34   92595   92592      33   92598   92592      33
   92598   92595      34   92604   92601      33   92607   92601      33   92607
   92604      34   92613   92610      33   92616   92610      33   92616   92613
      34   92622   92619      33   92625   92619      33   92625   92622      34
   92631   92628      33   92634   92628      33   92634   92631      34   92640
   92637      33   92643   92637      33   92643   92640      34   92649   92646
      33   92652   92646      33   92652   92649      34   92658   92655      33
   92661   92655      33   92661   92658      34   92667   92664      33   92670
   92664      33   92670   92667      34   92676   92673      33   92679   92673
      33   92679   92676      34   92685   92682      33   92688   92682      33
   92688   92685      34   92694   92691      33   92697   92691      33   92697
   92694      34   92703   92700      33   92706   92700      33   92706   92703
      34   92712   92709      33   92715   92709      33   92715   92712      34
   92721   92718      33   92724   92718      33   92724   92721      34   92730
   92727      33   92733   92727      33   92733   92730      34   92739   92736
      33   92742   92736      33   92742   92739      34   92748   92745      33
   92751   92745      33   92751   92748      34   92757   92754      33   92760
   92754      33   92760   92757      34   92766   92763      33   92769   92763
      33   92769   92766      34   92775   92772      33   92778   92772      33
   92778   92775      34   92784   92781      33   92787   92781      33   92787
   92784      34   92793   92790      33   92796   92790      33   92796   92793
      34   92802   92799      33   92805   92799      33   92805   92802      34
   92811   92808      33   92814   92808      33   92814   92811      34   92820
   92817      33   92823   92817      33   92823   92820      34   92829   92826
      33   92832   92826      33   92832   92829      34   92838   92835      33
   92841   92835      33   92841   92838      34   92847   92844      33   92850
   92844      33   92850   92847      34   92856   92853      33   92859   92853
      33   92859   92856      34   92865   92862      33   92868   92862      33
   92868   92865      34   92874   92871      33   92877   92871      33   92877
   92874      34   92883   92880      33   92886   92880      33   92886   92883
      34   92892   92889      33   92895   92889      33   92895   92892      34
   92901   92898      33   92904   92898      33   92904   92901      34   92910
   92907      33   92913   92907      33   92913   92910      34   92919   92916
      33   92922   92916      33   92922   92919      34   92928   92925      33
   92931   92925      33   92931   92928      34   92937   92934      33   92940
   92934      33   92940   92937      34   92946   92943      33   92949   92943
      33   92949   92946      34   92955   92952      33   92958   92952      33
   92958   92955      34   92964   92961      33   92967   92961      33   92967
   92964      34   92973   92970      33   92976   92970      33   92976   92973
      34   92982   92979      33   92985   92979      33   92985   92982      34
   92991   92988      33   92994   92988      33   92994   92991      34   93000
   92997      33   93003   92997      33   93003   93000      34   93009   93006
      33   93012   93006      33   93012   93009      34   93018   93015      33
   93021   93015      33   93021   93018      34   93027   93024      33   93030
   93024      33   93030   93027      34   93036   93033      33   93039   93033
      33   93039   93036      34   93045   93042      33   93048   93042      33
   93048   93045      34   93054   93051      33   93057   93051      33   93057
   93054      34   93063   93060      33   93066   93060      33   93066   93063
      34   93072   93069      33   93075   93069      33   93075   93072      34
   93081   93078      33   93084   93078      33   93084   93081      34   93090
   93087      33   93093   93087      33   93093   93090      34   93099   93096
      33   93102   93096      33   93102   93099      34   93108   93105      33
   93111   93105      33   93111   93108      34   93117   93114      33   93120
   93114      33   93120   93117      34   93126   93123      33   93129   93123
      33   93129   93126      34   93135   93132      33   93138   93132      33
   93138   93135      34   93144   93141      33   93147   93141      33   93147
   93144      34   93153   93150      33   93156   93150      33   93156   93153
      34   93162   93159      33   93165   93159      33   93165   93162      34
   93171   93168      33   93174   93168      33   93174   93171      34   93180
   93177      33   93183   93177      33   93183   93180      34   93189   93186
      33   93192   93186      33   93192   93189      34   93198   93195      33
   93201   93195      33   93201   93198      34   93207   93204      33   93210
   93204      33   93210   93207      34   93216   93213      33   93219   93213
      33   93219   93216      34   93225   93222      33   93228   93222      33
   93228   93225      34   93234   93231      33   93237   93231      33   93237
   93234      34   93243   93240      33   93246   93240      33   93246   93243
      34   93252   93249      33   93255   93249      33   93255   93252      34
   93261   93258      33   93264   93258      33   93264   93261      34   93270
   93267      33   93273   93267      33   93273   93270      34   93279   93276
      33   93282   93276      33   93282   93279      34   93288   93285      33
   93291   93285      33   93291   93288      34   93297   93294      33   93300
   93294      33   93300   93297      34   93306   93303      33   93309   93303
      33   93309   93306      34   93315   93312      33   93318   93312      33
   93318   93315      34   93324   93321      33   93327   93321      33   93327
   93324      34   93333   93330      33   93336   93330      33   93336   93333
      34   93342   93339      33   93345   93339      33   93345   93342      34
   93351   93348      33   93354   93348      33   93354   93351      34   93360
   93357      33   93363   93357      33   93363   93360      34   93369   93366
      33   93372   93366      33   93372   93369      34   93378   93375      33
   93381   93375      33   93381   93378      34   93387   93384      33   93390
   93384      33   93390   93387      34   93396   93393      33   93399   93393
      33   93399   93396      34   93405   93402      33   93408   93402      33
   93408   93405      34   93414   93411      33   93417   93411      33   93417
   93414      34   93423   93420      33   93426   93420      33   93426   93423
      34   93432   93429      33   93435   93429      33   93435   93432      34
   93441   93438      33   93444   93438      33   93444   93441      34   93450
   93447      33   93453   93447      33   93453   93450      34   93459   93456
      33   93462   93456      33   93462   93459      34   93468   93465      33
   93471   93465      33   93471   93468      34   93477   93474      33   93480
   93474      33   93480   93477      34   93486   93483      33   93489   93483
      33   93489   93486      34   93495   93492      33   93498   93492      33
   93498   93495      34   93504   93501      33   93507   93501      33   93507
   93504      34   93513   93510      33   93516   93510      33   93516   93513
      34   93522   93519      33   93525   93519      33   93525   93522      34
   93531   93528      33   93534   93528      33   93534   93531      34   93540
   93537      33   93543   93537      33   93543   93540      34   93549   93546
      33   93552   93546      33   93552   93549      34   93558   93555      33
   93561   93555      33   93561   93558      34   93567   93564      33   93570
   93564      33   93570   93567      34   93576   93573      33   93579   93573
      33   93579   93576      34   93585   93582      33   93588   93582      33
   93588   93585      34   93594   93591      33   93597   93591      33   93597
   93594      34   93603   93600      33   93606   93600      33   93606   93603
      34   93612   93609      33   93615   93609      33   93615   93612      34
   93621   93618      33   93624   93618      33   93624   93621      34   93630
   93627      33   93633   93627      33   93633   93630      34   93639   93636
      33   93642   93636      33   93642   93639      34   93648   93645      33
   93651   93645      33   93651   93648      34   93657   93654      33   93660
   93654      33   93660   93657      34   93666   93663      33   93669   93663
      33   93669   93666      34   93675   93672      33   93678   93672      33
   93678   93675      34   93684   93681      33   93687   93681      33   93687
   93684      34   93693   93690      33   93696   93690      33   93696   93693
      34   93702   93699      33   93705   93699      33   93705   93702      34
   93711   93708      33   93714   93708      33   93714   93711      34   93720
   93717      33   93723   93717      33   93723   93720      34   93729   93726
      33   93732   93726      33   93732   93729      34   93738   93735      33
   93741   93735      33   93741   93738      34   93747   93744      33   93750
   93744      33   93750   93747      34   93756   93753      33   93759   93753
      33   93759   93756      34   93765   93762      33   93768   93762      33
   93768   93765      34   93774   93771      33   93777   93771      33   93777
   93774      34   93783   93780      33   93786   93780      33   93786   93783
      34   93792   93789      33   93795   93789      33   93795   93792      34
   93801   93798      33   93804   93798      33   93804   93801      34   93810
   93807      33   93813   93807      33   93813   93810      34   93819   93816
      33   93822   93816      33   93822   93819      34   93828   93825      33
   93831   93825      33   93831   93828      34   93837   93834      33   93840
   93834      33   93840   93837      34   93846   93843      33   93849   93843
      33   93849   93846      34   93855   93852      33   93858   93852      33
   93858   93855      34   93864   93861      33   93867   93861      33   93867
   93864      34   93873   93870      33   93876   93870      33   93876   93873
      34   93882   93879      33   93885   93879      33   93885   93882      34
   93891   93888      33   93894   93888      33   93894   93891      34   93900
   93897      33   93903   93897      33   93903   93900      34   93909   93906
      33   93912   93906      33   93912   93909      34   93918   93915      33
   93921   93915      33   93921   93918      34   93927   93924      33   93930
   93924      33   93930   93927      34   93936   93933      33   93939   93933
      33   93939   93936      34   93945   93942      33   93948   93942      33
   93948   93945      34   93954   93951      33   93957   93951      33   93957
   93954      34   93963   93960      33   93966   93960      33   93966   93963
      34   93972   93969      33   93975   93969      33   93975   93972      34
   93981   93978      33   93984   93978      33   93984   93981      34   93990
   93987      33   93993   93987      33   93993   93990      34   93999   93996
      33   94002   93996      33   94002   93999      34   94008   94005      33
   94011   94005      33   94011   94008      34   94017   94014      33   94020
   94014      33   94020   94017      34   94026   94023      33   94029   94023
      33   94029   94026      34   94035   94032      33   94038   94032      33
   94038   94035      34   94044   94041      33   94047   94041      33   94047
   94044      34   94053   94050      33   94056   94050      33   94056   94053
      34   94062   94059      33   94065   94059      33   94065   94062      34
   94071   94068      33   94074   94068      33   94074   94071      34   94080
   94077      33   94083   94077      33   94083   94080      34   94089   94086
      33   94092   94086      33   94092   94089      34   94098   94095      33
   94101   94095      33   94101   94098      34   94107   94104      33   94110
   94104      33   94110   94107      34   94116   94113      33   94119   94113
      33   94119   94116      34   94125   94122      33   94128   94122      33
   94128   94125      34   94134   94131      33   94137   94131      33   94137
   94134      34   94143   94140      33   94146   94140      33   94146   94143
      34   94152   94149      33   94155   94149      33   94155   94152      34
   94161   94158      33   94164   94158      33   94164   94161      34   94170
   94167      33   94173   94167      33   94173   94170      34   94179   94176
      33   94182   94176      33   94182   94179      34   94188   94185      33
   94191   94185      33   94191   94188      34   94197   94194      33   94200
   94194      33   94200   94197      34   94206   94203      33   94209   94203
      33   94209   94206      34   94215   94212      33   94218   94212      33
   94218   94215      34   94224   94221      33   94227   94221      33   94227
   94224      34   94233   94230      33   94236   94230      33   94236   94233
      34   94242   94239      33   94245   94239      33   94245   94242      34
   94251   94248      33   94254   94248      33   94254   94251      34   94260
   94257      33   94263   94257      33   94263   94260      34   94269   94266
      33   94272   94266      33   94272   94269      34   94278   94275      33
   94281   94275      33   94281   94278      34   94287   94284      33   94290
   94284      33   94290   94287      34   94296   94293      33   94299   94293
      33   94299   94296      34   94305   94302      33   94308   94302      33
   94308   94305      34   94314   94311      33   94317   94311      33   94317
   94314      34   94323   94320      33   94326   94320      33   94326   94323
      34   94332   94329      33   94335   94329      33   94335   94332      34
   94341   94338      33   94344   94338      33   94344   94341      34   94350
   94347      33   94353   94347      33   94353   94350      34   94359   94356
      33   94362   94356      33   94362   94359      34   94368   94365      33
   94371   94365      33   94371   94368      34   94377   94374      33   94380
   94374      33   94380   94377      34   94386   94383      33   94389   94383
      33   94389   94386      34   94395   94392      33   94398   94392      33
   94398   94395      34   94404   94401      33   94407   94401      33   94407
   94404      34   94413   94410      33   94416   94410      33   94416   94413
      34   94422   94419      33   94425   94419      33   94425   94422      34
   94431   94428      33   94434   94428      33   94434   94431      34   94440
   94437      33   94443   94437      33   94443   94440      34   94449   94446
      33   94452   94446      33   94452   94449      34   94458   94455      33
   94461   94455      33   94461   94458      34   94467   94464      33   94470
   94464      33   94470   94467      34   94476   94473      33   94479   94473
      33   94479   94476      34   94485   94482      33   94488   94482      33
   94488   94485      34   94494   94491      33   94497   94491      33   94497
   94494      34   94503   94500      33   94506   94500      33   94506   94503
      34   94512   94509      33   94515   94509      33   94515   94512      34
   94521   94518      33   94524   94518      33   94524   94521      34   94530
   94527      33   94533   94527      33   94533   94530      34   94539   94536
      33   94542   94536      33   94542   94539      34   94548   94545      33
   94551   94545      33   94551   94548      34   94557   94554      33   94560
   94554      33   94560   94557      34   94566   94563      33   94569   94563
      33   94569   94566      34   94575   94572      33   94578   94572      33
   94578   94575      34   94584   94581      33   94587   94581      33   94587
   94584      34   94593   94590      33   94596   94590      33   94596   94593
      34   94602   94599      33   94605   94599      33   94605   94602      34
   94611   94608      33   94614   94608      33   94614   94611      34   94620
   94617      33   94623   94617      33   94623   94620      34   94629   94626
      33   94632   94626      33   94632   94629      34   94638   94635      33
   94641   94635      33   94641   94638      34   94647   94644      33   94650
   94644      33   94650   94647      34   94656   94653      33   94659   94653
      33   94659   94656      34   94665   94662      33   94668   94662      33
   94668   94665      34   94674   94671      33   94677   94671      33   94677
   94674      34   94683   94680      33   94686   94680      33   94686   94683
      34   94692   94689      33   94695   94689      33   94695   94692      34
   94701   94698      33   94704   94698      33   94704   94701      34   94710
   94707      33   94713   94707      33   94713   94710      34   94719   94716
      33   94722   94716      33   94722   94719      34   94728   94725      33
   94731   94725      33   94731   94728      34   94737   94734      33   94740
   94734      33   94740   94737      34   94746   94743      33   94749   94743
      33   94749   94746      34   94755   94752      33   94758   94752      33
   94758   94755      34   94764   94761      33   94767   94761      33   94767
   94764      34   94773   94770      33   94776   94770      33   94776   94773
      34   94782   94779      33   94785   94779      33   94785   94782      34
   94791   94788      33   94794   94788      33   94794   94791      34   94800
   94797      33   94803   94797      33   94803   94800      34   94809   94806
      33   94812   94806      33   94812   94809      34   94818   94815      33
   94821   94815      33   94821   94818      34   94827   94824      33   94830
   94824      33   94830   94827      34   94836   94833      33   94839   94833
      33   94839   94836      34   94845   94842      33   94848   94842      33
   94848   94845      34   94854   94851      33   94857   94851      33   94857
   94854      34   94863   94860      33   94866   94860      33   94866   94863
      34   94872   94869      33   94875   94869      33   94875   94872      34
   94881   94878      33   94884   94878      33   94884   94881      34   94890
   94887      33   94893   94887      33   94893   94890      34   94899   94896
      33   94902   94896      33   94902   94899      34   94908   94905      33
   94911   94905      33   94911   94908      34   94917   94914      33   94920
   94914      33   94920   94917      34   94926   94923      33   94929   94923
      33   94929   94926      34   94935   94932      33   94938   94932      33
   94938   94935      34   94944   94941      33   94947   94941      33   94947
   94944      34   94953   94950      33   94956   94950      33   94956   94953
      34   94962   94959      33   94965   94959      33   94965   94962      34
   94971   94968      33   94974   94968      33   94974   94971      34   94980
   94977      33   94983   94977      33   94983   94980      34   94989   94986
      33   94992   94986      33   94992   94989      34   94998   94995      33
   95001   94995      33   95001   94998      34   95007   95004      33   95010
   95004      33   95010   95007      34   95016   95013      33   95019   95013
      33   95019   95016      34   95025   95022      33   95028   95022      33
   95028   95025      34   95034   95031      33   95037   95031      33   95037
   95034      34   95043   95040      33   95046   95040      33   95046   95043
      34   95052   95049      33   95055   95049      33   95055   95052      34
   95061   95058      33   95064   95058      33   95064   95061      34   95070
   95067      33   95073   95067      33   95073   95070      34   95079   95076
      33   95082   95076      33   95082   95079      34   95088   95085      33
   95091   95085      33   95091   95088      34   95097   95094      33   95100
   95094      33   95100   95097      34   95106   95103      33   95109   95103
      33   95109   95106      34   95115   95112      33   95118   95112      33
   95118   95115      34   95124   95121      33   95127   95121      33   95127
   95124      34   95133   95130      33   95136   95130      33   95136   95133
      34   95142   95139      33   95145   95139      33   95145   95142      34
   95151   95148      33   95154   95148      33   95154   95151      34   95160
   95157      33   95163   95157      33   95163   95160      34   95169   95166
      33   95172   95166      33   95172   95169      34   95178   95175      33
   95181   95175      33   95181   95178      34   95187   95184      33   95190
   95184      33   95190   95187      34   95196   95193      33   95199   95193
      33   95199   95196      34   95205   95202      33   95208   95202      33
   95208   95205      34   95214   95211      33   95217   95211      33   95217
   95214      34   95223   95220      33   95226   95220      33   95226   95223
      34   95232   95229      33   95235   95229      33   95235   95232      34
   95241   95238      33   95244   95238      33   95244   95241      34   95250
   95247      33   95253   95247      33   95253   95250      34   95259   95256
      33   95262   95256      33   95262   95259      34   95268   95265      33
   95271   95265      33   95271   95268      34   95277   95274      33   95280
   95274      33   95280   95277      34   95286   95283      33   95289   95283
      33   95289   95286      34   95295   95292      33   95298   95292      33
   95298   95295      34   95304   95301      33   95307   95301      33   95307
   95304      34   95313   95310      33   95316   95310      33   95316   95313
      34   95322   95319      33   95325   95319      33   95325   95322      34
   95331   95328      33   95334   95328      33   95334   95331      34   95340
   95337      33   95343   95337      33   95343   95340      34   95349   95346
      33   95352   95346      33   95352   95349      34   95358   95355      33
   95361   95355      33   95361   95358      34   95367   95364      33   95370
   95364      33   95370   95367      34   95376   95373      33   95379   95373
      33   95379   95376      34   95385   95382      33   95388   95382      33
   95388   95385      34   95394   95391      33   95397   95391      33   95397
   95394      34   95403   95400      33   95406   95400      33   95406   95403
      34   95412   95409      33   95415   95409      33   95415   95412      34
   95421   95418      33   95424   95418      33   95424   95421      34   95430
   95427      33   95433   95427      33   95433   95430      34   95439   95436
      33   95442   95436      33   95442   95439      34   95448   95445      33
   95451   95445      33   95451   95448      34   95457   95454      33   95460
   95454      33   95460   95457      34   95466   95463      33   95469   95463
      33   95469   95466      34   95475   95472      33   95478   95472      33
   95478   95475      34   95484   95481      33   95487   95481      33   95487
   95484      34   95493   95490      33   95496   95490      33   95496   95493
      34   95502   95499      33   95505   95499      33   95505   95502      34
   95511   95508      33   95514   95508      33   95514   95511      34   95520
   95517      33   95523   95517      33   95523   95520      34   95529   95526
      33   95532   95526      33   95532   95529      34   95538   95535      33
   95541   95535      33   95541   95538      34   95547   95544      33   95550
   95544      33   95550   95547      34   95556   95553      33   95559   95553
      33   95559   95556      34   95565   95562      33   95568   95562      33
   95568   95565      34   95574   95571      33   95577   95571      33   95577
   95574      34   95583   95580      33   95586   95580      33   95586   95583
      34   95592   95589      33   95595   95589      33   95595   95592      34
   95601   95598      33   95604   95598      33   95604   95601      34   95610
   95607      33   95613   95607      33   95613   95610      34   95619   95616
      33   95622   95616      33   95622   95619      34   95628   95625      33
   95631   95625      33   95631   95628      34   95637   95634      33   95640
   95634      33   95640   95637      34   95646   95643      33   95649   95643
      33   95649   95646      34   95655   95652      33   95658   95652      33
   95658   95655      34   95664   95661      33   95667   95661      33   95667
   95664      34   95673   95670      33   95676   95670      33   95676   95673
      34   95682   95679      33   95685   95679      33   95685   95682      34
   95691   95688      33   95694   95688      33   95694   95691      34   95700
   95697      33   95703   95697      33   95703   95700      34   95709   95706
      33   95712   95706      33   95712   95709      34   95718   95715      33
   95721   95715      33   95721   95718      34   95727   95724      33   95730
   95724      33   95730   95727      34   95736   95733      33   95739   95733
      33   95739   95736      34   95745   95742      33   95748   95742      33
   95748   95745      34   95754   95751      33   95757   95751      33   95757
   95754      34   95763   95760      33   95766   95760      33   95766   95763
      34   95772   95769      33   95775   95769      33   95775   95772      34
   95781   95778      33   95784   95778      33   95784   95781      34   95790
   95787      33   95793   95787      33   95793   95790      34   95799   95796
      33   95802   95796      33   95802   95799      34   95808   95805      33
   95811   95805      33   95811   95808      34   95817   95814      33   95820
   95814      33   95820   95817      34   95826   95823      33   95829   95823
      33   95829   95826      34   95835   95832      33   95838   95832      33
   95838   95835      34   95844   95841      33   95847   95841      33   95847
   95844      34   95853   95850      33   95856   95850      33   95856   95853
      34   95862   95859      33   95865   95859      33   95865   95862      34
   95871   95868      33   95874   95868      33   95874   95871      34   95880
   95877      33   95883   95877      33   95883   95880      34   95889   95886
      33   95892   95886      33   95892   95889      34   95898   95895      33
   95901   95895      33   95901   95898      34   95907   95904      33   95910
   95904      33   95910   95907      34   95916   95913      33   95919   95913
      33   95919   95916      34   95925   95922      33   95928   95922      33
   95928   95925      34   95934   95931      33   95937   95931      33   95937
   95934      34   95943   95940      33   95946   95940      33   95946   95943
      34   95952   95949      33   95955   95949      33   95955   95952      34
   95961   95958      33   95964   95958      33   95964   95961      34   95970
   95967      33   95973   95967      33   95973   95970      34   95979   95976
      33   95982   95976      33   95982   95979      34   95988   95985      33
   95991   95985      33   95991   95988      34   95997   95994      33   96000
   95994      33   96000   95997      34   96006   96003      33   96009   96003
      33   96009   96006      34   96015   96012      33   96018   96012      33
   96018   96015      34   96024   96021      33   96027   96021      33   96027
   96024      34   96033   96030      33   96036   96030      33   96036   96033
      34   96042   96039      33   96045   96039      33   96045   96042      34
   96051   96048      33   96054   96048      33   96054   96051      34   96060
   96057      33   96063   96057      33   96063   96060      34   96069   96066
      33   96072   96066      33   96072   96069      34   96078   96075      33
   96081   96075      33   96081   96078      34   96087   96084      33   96090
   96084      33   96090   96087      34   96096   96093      33   96099   96093
      33   96099   96096      34   96105   96102      33   96108   96102      33
   96108   96105      34   96114   96111      33   96117   96111      33   96117
   96114      34   96123   96120      33   96126   96120      33   96126   96123
      34   96132   96129      33   96135   96129      33   96135   96132      34
   96141   96138      33   96144   96138      33   96144   96141      34   96150
   96147      33   96153   96147      33   96153   96150      34   96159   96156
      33   96162   96156      33   96162   96159      34   96168   96165      33
   96171   96165      33   96171   96168      34   96177   96174      33   96180
   96174      33   96180   96177      34   96186   96183      33   96189   96183
      33   96189   96186      34   96195   96192      33   96198   96192      33
   96198   96195      34   96204   96201      33   96207   96201      33   96207
   96204      34   96213   96210      33   96216   96210      33   96216   96213
      34   96222   96219      33   96225   96219      33   96225   96222      34
   96231   96228      33   96234   96228      33   96234   96231      34   96240
   96237      33   96243   96237      33   96243   96240      34   96249   96246
      33   96252   96246      33   96252   96249      34   96258   96255      33
   96261   96255      33   96261   96258      34   96267   96264      33   96270
   96264      33   96270   96267      34   96276   96273      33   96279   96273
      33   96279   96276      34   96285   96282      33   96288   96282      33
   96288   96285      34   96294   96291      33   96297   96291      33   96297
   96294      34   96303   96300      33   96306   96300      33   96306   96303
      34   96312   96309      33   96315   96309      33   96315   96312      34
   96321   96318      33   96324   96318      33   96324   96321      34   96330
   96327      33   96333   96327      33   96333   96330      34   96339   96336
      33   96342   96336      33   96342   96339      34   96348   96345      33
   96351   96345      33   96351   96348      34   96357   96354      33   96360
   96354      33   96360   96357      34   96366   96363      33   96369   96363
      33   96369   96366      34   96375   96372      33   96378   96372      33
   96378   96375      34   96384   96381      33   96387   96381      33   96387
   96384      34   96393   96390      33   96396   96390      33   96396   96393
      34   96402   96399      33   96405   96399      33   96405   96402      34
   96411   96408      33   96414   96408      33   96414   96411      34   96420
   96417      33   96423   96417      33   96423   96420      34   96429   96426
      33   96432   96426      33   96432   96429      34   96438   96435      33
   96441   96435      33   96441   96438      34   96447   96444      33   96450
   96444      33   96450   96447      34   96456   96453      33   96459   96453
      33   96459   96456      34   96465   96462      33   96468   96462      33
   96468   96465      34   96474   96471      33   96477   96471      33   96477
   96474      34   96483   96480      33   96486   96480      33   96486   96483
      34   96492   96489      33   96495   96489      33   96495   96492      34
   96501   96498      33   96504   96498      33   96504   96501      34   96510
   96507      33   96513   96507      33   96513   96510      34   96519   96516
      33   96522   96516      33   96522   96519      34   96528   96525      33
   96531   96525      33   96531   96528      34   96537   96534      33   96540
   96534      33   96540   96537      34   96546   96543      33   96549   96543
      33   96549   96546      34   96555   96552      33   96558   96552      33
   96558   96555      34   96564   96561      33   96567   96561      33   96567
   96564      34   96573   96570      33   96576   96570      33   96576   96573
      34   96582   96579      33   96585   96579      33   96585   96582      34
   96591   96588      33   96594   96588      33   96594   96591      34   96600
   96597      33   96603   96597      33   96603   96600      34   96609   96606
      33   96612   96606      33   96612   96609      34   96618   96615      33
   96621   96615      33   96621   96618      34   96627   96624      33   96630
   96624      33   96630   96627      34   96636   96633      33   96639   96633
      33   96639   96636      34   96645   96642      33   96648   96642      33
   96648   96645      34   96654   96651      33   96657   96651      33   96657
   96654      34   96663   96660      33   96666   96660      33   96666   96663
      34   96672   96669      33   96675   96669      33   96675   96672      34
   96681   96678      33   96684   96678      33   96684   96681      34   96690
   96687      33   96693   96687      33   96693   96690      34   96699   96696
      33   96702   96696      33   96702   96699      34   96708   96705      33
   96711   96705      33   96711   96708      34   96717   96714      33   96720
   96714      33   96720   96717      34   96726   96723      33   96729   96723
      33   96729   96726      34   96735   96732      33   96738   96732      33
   96738   96735      34   96744   96741      33   96747   96741      33   96747
   96744      34   96753   96750      33   96756   96750      33   96756   96753
      34   96762   96759      33   96765   96759      33   96765   96762      34
   96771   96768      33   96774   96768      33   96774   96771      34   96780
   96777      33   96783   96777      33   96783   96780      34   96789   96786
      33   96792   96786      33   96792   96789      34   96798   96795      33
   96801   96795      33   96801   96798      34   96807   96804      33   96810
   96804      33   96810   96807      34   96816   96813      33   96819   96813
      33   96819   96816      34   96825   96822      33   96828   96822      33
   96828   96825      34   96834   96831      33   96837   96831      33   96837
   96834      34   96843   96840      33   96846   96840      33   96846   96843
      34   96852   96849      33   96855   96849      33   96855   96852      34
   96861   96858      33   96864   96858      33   96864   96861      34   96870
   96867      33   96873   96867      33   96873   96870      34   96879   96876
      33   96882   96876      33   96882   96879      34   96888   96885      33
   96891   96885      33   96891   96888      34   96897   96894      33   96900
   96894      33   96900   96897      34   96906   96903      33   96909   96903
      33   96909   96906      34   96915   96912      33   96918   96912      33
   96918   96915      34   96924   96921      33   96927   96921      33   96927
   96924      34   96933   96930      33   96936   96930      33   96936   96933
      34   96942   96939      33   96945   96939      33   96945   96942      34
   96951   96948      33   96954   96948      33   96954   96951      34   96960
   96957      33   96963   96957      33   96963   96960      34   96969   96966
      33   96972   96966      33   96972   96969      34   96978   96975      33
   96981   96975      33   96981   96978      34   96987   96984      33   96990
   96984      33   96990   96987      34   96996   96993      33   96999   96993
      33   96999   96996      34   97005   97002      33   97008   97002      33
   97008   97005      34   97014   97011      33   97017   97011      33   97017
   97014      34   97023   97020      33   97026   97020      33   97026   97023
      34   97032   97029      33   97035   97029      33   97035   97032      34
   97041   97038      33   97044   97038      33   97044   97041      34   97050
   97047      33   97053   97047      33   97053   97050      34   97059   97056
      33   97062   97056      33   97062   97059      34   97068   97065      33
   97071   97065      33   97071   97068      34   97077   97074      33   97080
   97074      33   97080   97077      34   97086   97083      33   97089   97083
      33   97089   97086      34   97095   97092      33   97098   97092      33
   97098   97095      34   97104   97101      33   97107   97101      33   97107
   97104      34   97113   97110      33   97116   97110      33   97116   97113
      34   97122   97119      33   97125   97119      33   97125   97122      34
   97131   97128      33   97134   97128      33   97134   97131      34   97140
   97137      33   97143   97137      33   97143   97140      34   97149   97146
      33   97152   97146      33   97152   97149      34   97158   97155      33
   97161   97155      33   97161   97158      34   97167   97164      33   97170
   97164      33   97170   97167      34   97176   97173      33   97179   97173
      33   97179   97176      34   97185   97182      33   97188   97182      33
   97188   97185      34   97194   97191      33   97197   97191      33   97197
   97194      34   97203   97200      33   97206   97200      33   97206   97203
      34   97212   97209      33   97215   97209      33   97215   97212      34
   97221   97218      33   97224   97218      33   97224   97221      34   97230
   97227      33   97233   97227      33   97233   97230      34   97239   97236
      33   97242   97236      33   97242   97239      34   97248   97245      33
   97251   97245      33   97251   97248      34   97257   97254      33   97260
   97254      33   97260   97257      34   97266   97263      33   97269   97263
      33   97269   97266      34   97275   97272      33   97278   97272      33
   97278   97275      34   97284   97281      33   97287   97281      33   97287
   97284      34   97293   97290      33   97296   97290      33   97296   97293
      34   97302   97299      33   97305   97299      33   97305   97302      34
   97311   97308      33   97314   97308      33   97314   97311      34   97320
   97317      33   97323   97317      33   97323   97320      34   97329   97326
      33   97332   97326      33   97332   97329      34   97338   97335      33
   97341   97335      33   97341   97338      34   97347   97344      33   97350
   97344      33   97350   97347      34   97356   97353      33   97359   97353
      33   97359   97356      34   97365   97362      33   97368   97362      33
   97368   97365      34   97374   97371      33   97377   97371      33   97377
   97374      34   97383   97380      33   97386   97380      33   97386   97383
      34   97392   97389      33   97395   97389      33   97395   97392      34
   97401   97398      33   97404   97398      33   97404   97401      34   97410
   97407      33   97413   97407      33   97413   97410      34   97419   97416
      33   97422   97416      33   97422   97419      34   97428   97425      33
   97431   97425      33   97431   97428      34   97437   97434      33   97440
   97434      33   97440   97437      34   97446   97443      33   97449   97443
      33   97449   97446      34   97455   97452      33   97458   97452      33
   97458   97455      34   97464   97461      33   97467   97461      33   97467
   97464      34   97473   97470      33   97476   97470      33   97476   97473
      34   97482   97479      33   97485   97479      33   97485   97482      34
   97491   97488      33   97494   97488      33   97494   97491      34   97500
   97497      33   97503   97497      33   97503   97500      34   97509   97506
      33   97512   97506      33   97512   97509      34   97518   97515      33
   97521   97515      33   97521   97518      34   97527   97524      33   97530
   97524      33   97530   97527      34   97536   97533      33   97539   97533
      33   97539   97536      34   97545   97542      33   97548   97542      33
   97548   97545      34   97554   97551      33   97557   97551      33   97557
   97554      34   97563   97560      33   97566   97560      33   97566   97563
      34   97572   97569      33   97575   97569      33   97575   97572      34
   97581   97578      33   97584   97578      33   97584   97581      34   97590
   97587      33   97593   97587      33   97593   97590      34   97599   97596
      33   97602   97596      33   97602   97599      34   97608   97605      33
   97611   97605      33   97611   97608      34   97617   97614      33   97620
   97614      33   97620   97617      34   97626   97623      33   97629   97623
      33   97629   97626      34   97635   97632      33   97638   97632      33
   97638   97635      34   97644   97641      33   97647   97641      33   97647
   97644      34   97653   97650      33   97656   97650      33   97656   97653
      34   97662   97659      33   97665   97659      33   97665   97662      34
   97671   97668      33   97674   97668      33   97674   97671      34   97680
   97677      33   97683   97677      33   97683   97680      34   97689   97686
      33   97692   97686      33   97692   97689      34   97698   97695      33
   97701   97695      33   97701   97698      34   97707   97704      33   97710
   97704      33   97710   97707      34   97716   97713      33   97719   97713
      33   97719   97716      34   97725   97722      33   97728   97722      33
   97728   97725      34   97734   97731      33   97737   97731      33   97737
   97734      34   97743   97740      33   97746   97740      33   97746   97743
      34   97752   97749      33   97755   97749      33   97755   97752      34
   97761   97758      33   97764   97758      33   97764   97761      34   97770
   97767      33   97773   97767      33   97773   97770      34   97779   97776
      33   97782   97776      33   97782   97779      34   97788   97785      33
   97791   97785      33   97791   97788      34   97797   97794      33   97800
   97794      33   97800   97797      34   97806   97803      33   97809   97803
      33   97809   97806      34   97815   97812      33   97818   97812      33
   97818   97815      34   97824   97821      33   97827   97821      33   97827
   97824      34   97833   97830      33   97836   97830      33   97836   97833
      34   97842   97839      33   97845   97839      33   97845   97842      34
   97851   97848      33   97854   97848      33   97854   97851      34   97860
   97857      33   97863   97857      33   97863   97860      34   97869   97866
      33   97872   97866      33   97872   97869      34   97878   97875      33
   97881   97875      33   97881   97878      34   97887   97884      33   97890
   97884      33   97890   97887      34   97896   97893      33   97899   97893
      33   97899   97896      34   97905   97902      33   97908   97902      33
   97908   97905      34   97914   97911      33   97917   97911      33   97917
   97914      34   97923   97920      33   97926   97920      33   97926   97923
      34   97932   97929      33   97935   97929      33   97935   97932      34
   97941   97938      33   97944   97938      33   97944   97941      34   97950
   97947      33   97953   97947      33   97953   97950      34   97959   97956
      33   97962   97956      33   97962   97959      34   97968   97965      33
   97971   97965      33   97971   97968      34   97977   97974      33   97980
   97974      33   97980   97977      34   97986   97983      33   97989   97983
      33   97989   97986      34   97995   97992      33   97998   97992      33
   97998   97995      34   98004   98001      33   98007   98001      33   98007
   98004      34   98013   98010      33   98016   98010      33   98016   98013
      34   98022   98019      33   98025   98019      33   98025   98022      34
   98031   98028      33   98034   98028      33   98034   98031      34   98040
   98037      33   98043   98037      33   98043   98040      34   98049   98046
      33   98052   98046      33   98052   98049      34   98058   98055      33
   98061   98055      33   98061   98058      34   98067   98064      33   98070
   98064      33   98070   98067      34   98076   98073      33   98079   98073
      33   98079   98076      34   98085   98082      33   98088   98082      33
   98088   98085      34   98094   98091      33   98097   98091      33   98097
   98094      34   98103   98100      33   98106   98100      33   98106   98103
      34   98112   98109      33   98115   98109      33   98115   98112      34
   98121   98118      33   98124   98118      33   98124   98121      34   98130
   98127      33   98133   98127      33   98133   98130      34   98139   98136
      33   98142   98136      33   98142   98139      34   98148   98145      33
   98151   98145      33   98151   98148      34   98157   98154      33   98160
   98154      33   98160   98157      34   98166   98163      33   98169   98163
      33   98169   98166      34   98175   98172      33   98178   98172      33
   98178   98175      34   98184   98181      33   98187   98181      33   98187
   98184      34   98193   98190      33   98196   98190      33   98196   98193
      34   98202   98199      33   98205   98199      33   98205   98202      34
   98211   98208      33   98214   98208      33   98214   98211      34   98220
   98217      33   98223   98217      33   98223   98220      34   98229   98226
      33   98232   98226      33   98232   98229      34   98238   98235      33
   98241   98235      33   98241   98238      34   98247   98244      33   98250
   98244      33   98250   98247      34   98256   98253      33   98259   98253
      33   98259   98256      34   98265   98262      33   98268   98262      33
   98268   98265      34   98274   98271      33   98277   98271      33   98277
   98274      34   98283   98280      33   98286   98280      33   98286   98283
      34   98292   98289      33   98295   98289      33   98295   98292      34
   98301   98298      33   98304   98298      33   98304   98301      34   98310
   98307      33   98313   98307      33   98313   98310      34   98319   98316
      33   98322   98316      33   98322   98319      34   98328   98325      33
   98331   98325      33   98331   98328      34   98337   98334      33   98340
   98334      33   98340   98337      34   98346   98343      33   98349   98343
      33   98349   98346      34   98355   98352      33   98358   98352      33
   98358   98355      34   98364   98361      33   98367   98361      33   98367
   98364      34   98373   98370      33   98376   98370      33   98376   98373
      34   98382   98379      33   98385   98379      33   98385   98382      34
   98391   98388      33   98394   98388      33   98394   98391      34   98400
   98397      33   98403   98397      33   98403   98400      34   98409   98406
      33   98412   98406      33   98412   98409      34   98418   98415      33
   98421   98415      33   98421   98418      34   98427   98424      33   98430
   98424      33   98430   98427      34   98436   98433      33   98439   98433
      33   98439   98436      34   98445   98442      33   98448   98442      33
   98448   98445      34   98454   98451      33   98457   98451      33   98457
   98454      34   98463   98460      33   98466   98460      33   98466   98463
      34   98472   98469      33   98475   98469      33   98475   98472      34
   98481   98478      33   98484   98478      33   98484   98481      34   98490
   98487      33   98493   98487      33   98493   98490      34   98499   98496
      33   98502   98496      33   98502   98499      34   98508   98505      33
   98511   98505      33   98511   98508      34   98517   98514      33   98520
   98514      33   98520   98517      34   98526   98523      33   98529   98523
      33   98529   98526      34   98535   98532      33   98538   98532      33
   98538   98535      34   98544   98541      33   98547   98541      33   98547
   98544      34   98553   98550      33   98556   98550      33   98556   98553
      34   98562   98559      33   98565   98559      33   98565   98562      34
   98571   98568      33   98574   98568      33   98574   98571      34   98580
   98577      33   98583   98577      33   98583   98580      34   98589   98586
      33   98592   98586      33   98592   98589      34   98598   98595      33
   98601   98595      33   98601   98598      34   98607   98604      33   98610
   98604      33   98610   98607      34   98616   98613      33   98619   98613
      33   98619   98616      34   98625   98622      33   98628   98622      33
   98628   98625      34   98634   98631      33   98637   98631      33   98637
   98634      34   98643   98640      33   98646   98640      33   98646   98643
      34   98652   98649      33   98655   98649      33   98655   98652      34
   98661   98658      33   98664   98658      33   98664   98661      34   98670
   98667      33   98673   98667      33   98673   98670      34   98679   98676
      33   98682   98676      33   98682   98679      34   98688   98685      33
   98691   98685      33   98691   98688      34   98697   98694      33   98700
   98694      33   98700   98697      34   98706   98703      33   98709   98703
      33   98709   98706      34   98715   98712      33   98718   98712      33
   98718   98715      34   98724   98721      33   98727   98721      33   98727
   98724      34   98733   98730      33   98736   98730      33   98736   98733
      34   98742   98739      33   98745   98739      33   98745   98742      34
   98751   98748      33   98754   98748      33   98754   98751      34   98760
   98757      33   98763   98757      33   98763   98760      34   98769   98766
      33   98772   98766      33   98772   98769      34   98778   98775      33
   98781   98775      33   98781   98778      34   98787   98784      33   98790
   98784      33   98790   98787      34   98796   98793      33   98799   98793
      33   98799   98796      34   98805   98802      33   98808   98802      33
   98808   98805      34   98814   98811      33   98817   98811      33   98817
   98814      34   98823   98820      33   98826   98820      33   98826   98823
      34   98832   98829      33   98835   98829      33   98835   98832      34
   98841   98838      33   98844   98838      33   98844   98841      34   98850
   98847      33   98853   98847      33   98853   98850      34   98859   98856
      33   98862   98856      33   98862   98859      34   98868   98865      33
   98871   98865      33   98871   98868      34   98877   98874      33   98880
   98874      33   98880   98877      34   98886   98883      33   98889   98883
      33   98889   98886      34   98895   98892      33   98898   98892      33
   98898   98895      34   98904   98901      33   98907   98901      33   98907
   98904      34   98913   98910      33   98916   98910      33   98916   98913
      34   98922   98919      33   98925   98919      33   98925   98922      34
   98931   98928      33   98934   98928      33   98934   98931      34   98940
   98937      33   98943   98937      33   98943   98940      34   98949   98946
      33   98952   98946      33   98952   98949      34   98958   98955      33
   98961   98955      33   98961   98958      34   98967   98964      33   98970
   98964      33   98970   98967      34   98976   98973      33   98979   98973
      33   98979   98976      34   98985   98982      33   98988   98982      33
   98988   98985      34   98994   98991      33   98997   98991      33   98997
   98994      34   99003   99000      33   99006   99000      33   99006   99003
      34   99012   99009      33   99015   99009      33   99015   99012      34
   99021   99018      33   99024   99018      33   99024   99021      34   99030
   99027      33   99033   99027      33   99033   99030      34   99039   99036
      33   99042   99036      33   99042   99039      34   99048   99045      33
   99051   99045      33   99051   99048      34   99057   99054      33   99060
   99054      33   99060   99057      34   99066   99063      33   99069   99063
      33   99069   99066      34   99075   99072      33   99078   99072      33
   99078   99075      34   99084   99081      33   99087   99081      33   99087
   99084      34   99093   99090      33   99096   99090      33   99096   99093
      34   99102   99099      33   99105   99099      33   99105   99102      34
   99111   99108      33   99114   99108      33   99114   99111      34   99120
   99117      33   99123   99117      33   99123   99120      34   99129   99126
      33   99132   99126      33   99132   99129      34   99138   99135      33
   99141   99135      33   99141   99138      34   99147   99144      33   99150
   99144      33   99150   99147      34   99156   99153      33   99159   99153
      33   99159   99156      34   99165   99162      33   99168   99162      33
   99168   99165      34   99174   99171      33   99177   99171      33   99177
   99174      34   99183   99180      33   99186   99180      33   99186   99183
      34   99192   99189      33   99195   99189      33   99195   99192      34
   99201   99198      33   99204   99198      33   99204   99201      34   99210
   99207      33   99213   99207      33   99213   99210      34   99219   99216
      33   99222   99216      33   99222   99219      34   99228   99225      33
   99231   99225      33   99231   99228      34   99237   99234      33   99240
   99234      33   99240   99237      34   99246   99243      33   99249   99243
      33   99249   99246      34   99255   99252      33   99258   99252      33
   99258   99255      34   99264   99261      33   99267   99261      33   99267
   99264      34   99273   99270      33   99276   99270      33   99276   99273
      34   99282   99279      33   99285   99279      33   99285   99282      34
   99291   99288      33   99294   99288      33   99294   99291      34   99300
   99297      33   99303   99297      33   99303   99300      34   99309   99306
      33   99312   99306      33   99312   99309      34   99318   99315      33
   99321   99315      33   99321   99318      34   99327   99324      33   99330
   99324      33   99330   99327      34   99336   99333      33   99339   99333
      33   99339   99336      34   99345   99342      33   99348   99342      33
   99348   99345      34   99354   99351      33   99357   99351      33   99357
   99354      34   99363   99360      33   99366   99360      33   99366   99363
      34   99372   99369      33   99375   99369      33   99375   99372      34
   99381   99378      33   99384   99378      33   99384   99381      34   99390
   99387      33   99393   99387      33   99393   99390      34   99399   99396
      33   99402   99396      33   99402   99399      34   99408   99405      33
   99411   99405      33   99411   99408      34   99417   99414      33   99420
   99414      33   99420   99417      34   99426   99423      33   99429   99423
      33   99429   99426      34   99435   99432      33   99438   99432      33
   99438   99435      34   99444   99441      33   99447   99441      33   99447
   99444      34   99453   99450      33   99456   99450      33   99456   99453
      34   99462   99459      33   99465   99459      33   99465   99462      34
   99471   99468      33   99474   99468      33   99474   99471      34   99480
   99477      33   99483   99477      33   99483   99480      34   99489   99486
      33   99492   99486      33   99492   99489      34   99498   99495      33
   99501   99495      33   99501   99498      34   99507   99504      33   99510
   99504      33   99510   99507      34   99516   99513      33   99519   99513
      33   99519   99516      34   99525   99522      33   99528   99522      33
   99528   99525      34   99534   99531      33   99537   99531      33   99537
   99534      34   99543   99540      33   99546   99540      33   99546   99543
      34   99552   99549      33   99555   99549      33   99555   99552      34
   99561   99558      33   99564   99558      33   99564   99561      34   99570
   99567      33   99573   99567      33   99573   99570      34   99579   99576
      33   99582   99576      33   99582   99579      34   99588   99585      33
   99591   99585      33   99591   99588      34   99597   99594      33   99600
   99594      33   99600   99597      34   99606   99603      33   99609   99603
      33   99609   99606      34   99615   99612      33   99618   99612      33
   99618   99615      34   99624   99621      33   99627   99621      33   99627
   99624      34   99633   99630      33   99636   99630      33   99636   99633
      34   99642   99639      33   99645   99639      33   99645   99642      34
   99651   99648      33   99654   99648      33   99654   99651      34   99660
   99657      33   99663   99657      33   99663   99660      34   99669   99666
      33   99672   99666      33   99672   99669      34   99678   99675      33
   99681   99675      33   99681   99678      34   99687   99684      33   99690
   99684      33   99690   99687      34   99696   99693      33   99699   99693
      33   99699   99696      34   99705   99702      33   99708   99702      33
   99708   99705      34   99714   99711      33   99717   99711      33   99717
   99714      34   99723   99720      33   99726   99720      33   99726   99723
      34   99732   99729      33   99735   99729      33   99735   99732      34
   99741   99738      33   99744   99738      33   99744   99741      34   99750
   99747      33   99753   99747      33   99753   99750      34   99759   99756
      33   99762   99756      33   99762   99759      34   99768   99765      33
   99771   99765      33   99771   99768      34   99777   99774      33   99780
   99774      33   99780   99777      34   99786   99783      33   99789   99783
      33   99789   99786      34   99795   99792      33   99798   99792      33
   99798   99795      34   99804   99801      33   99807   99801      33   99807
   99804      34   99813   99810      33   99816   99810      33   99816   99813
      34   99822   99819      33   99825   99819      33   99825   99822      34
   99831   99828      33   99834   99828      33   99834   99831      34   99840
   99837      33   99843   99837      33   99843   99840      34   99849   99846
      33   99852   99846      33   99852   99849      34   99858   99855      33
   99861   99855      33   99861   99858      34   99867   99864      33   99870
   99864      33   99870   99867      34   99876   99873      33   99879   99873
      33   99879   99876      34   99885   99882      33   99888   99882      33
   99888   99885      34   99894   99891      33   99897   99891      33   99897
   99894      34   99903   99900      33   99906   99900      33   99906   99903
      34   99912   99909      33   99915   99909      33   99915   99912      34
   99921   99918      33   99924   99918      33   99924   99921      34   99930
   99927      33   99933   99927      33   99933   99930      34   99939   99936
      33   99942   99936      33   99942   99939      34   99948   99945      33
   99951   99945      33   99951   99948      34   99957   99954      33   99960
   99954      33   99960   99957      34   99966   99963      33   99969   99963
      33   99969   99966      34   99975   99972      33   99978   99972      33
   99978   99975      34   99984   99981      33   99987   99981      33   99987
   99984      34   99993   99990      33   99996   99990      33   99996   99993
      34  100002   99999      33  100005   99999      33  100005  100002      34
  100011  100008      33  100014  100008      33  100014  100011      34  100020
  100017      33  100023  100017      33  100023  100020      34  100029  100026
      33  100032  100026      33  100032  100029      34  100038  100035      33
  100041  100035      33  100041  100038      34  100047  100044      33  100050
  100044      33  100050  100047      34  100056  100053      33  100059  100053
      33  100059  100056      34  100065  100062      33  100068  100062      33
  100068  100065      34  100074  100071      33  100077  100071      33  100077
  100074      34  100083  100080      33  100086  100080      33  100086  100083
      34  100092  100089      33  100095  100089      33  100095  100092      34
  100101  100098      33  100104  100098      33  100104  100101      34  100110
  100107      33  100113  100107      33  100113  100110      34  100119  100116
      33  100122  100116      33  100122  100119      34  100128  100125      33
  100131  100125      33  100131  100128      34  100137  100134      33  100140
  100134      33  100140  100137      34  100146  100143      33  100149  100143
      33  100149  100146      34  100155  100152      33  100158  100152      33
  100158  100155      34  100164  100161      33  100167  100161      33  100167
  100164      34  100173  100170      33  100176  100170      33  100176  100173
      34  100182  100179      33  100185  100179      33  100185  100182      34
  100191  100188      33  100194  100188      33  100194  100191      34  100200
  100197      33  100203  100197      33  100203  100200      34  100209  100206
      33  100212  100206      33  100212  100209      34  100218  100215      33
  100221  100215      33  100221  100218      34  100227  100224      33  100230
  100224      33  100230  100227      34  100236  100233      33  100239  100233
      33  100239  100236      34  100245  100242      33  100248  100242      33
  100248  100245      34  100254  100251      33  100257  100251      33  100257
  100254      34  100263  100260      33  100266  100260      33  100266  100263
      34  100272  100269      33  100275  100269      33  100275  100272      34
  100281  100278      33  100284  100278      33  100284  100281      34  100290
  100287      33  100293  100287      33  100293  100290      34  100299  100296
      33  100302  100296      33  100302  100299      34  100308  100305      33
  100311  100305      33  100311  100308      34  100317  100314      33  100320
  100314      33  100320  100317      34  100326  100323      33  100329  100323
      33  100329  100326      34  100335  100332      33  100338  100332      33
  100338  100335      34  100344  100341      33  100347  100341      33  100347
  100344      34  100353  100350      33  100356  100350      33  100356  100353
      34  100362  100359      33  100365  100359      33  100365  100362      34
  100371  100368      33  100374  100368      33  100374  100371      34  100380
  100377      33  100383  100377      33  100383  100380      34  100389  100386
      33  100392  100386      33  100392  100389      34  100398  100395      33
  100401  100395      33  100401  100398      34  100407  100404      33  100410
  100404      33  100410  100407      34  100416  100413      33  100419  100413
      33  100419  100416      34  100425  100422      33  100428  100422      33
  100428  100425      34  100434  100431      33  100437  100431      33  100437
  100434      34  100443  100440      33  100446  100440      33  100446  100443
      34  100452  100449      33  100455  100449      33  100455  100452      34
  100461  100458      33  100464  100458      33  100464  100461      34  100470
  100467      33  100473  100467      33  100473  100470      34  100479  100476
      33  100482  100476      33  100482  100479      34  100488  100485      33
  100491  100485      33  100491  100488      34  100497  100494      33  100500
  100494      33  100500  100497      34  100506  100503      33  100509  100503
      33  100509  100506      34  100515  100512      33  100518  100512      33
  100518  100515      34  100524  100521      33  100527  100521      33  100527
  100524      34  100533  100530      33  100536  100530      33  100536  100533
      34  100542  100539      33  100545  100539      33  100545  100542      34
  100551  100548      33  100554  100548      33  100554  100551      34  100560
  100557      33  100563  100557      33  100563  100560      34  100569  100566
      33  100572  100566      33  100572  100569      34  100578  100575      33
  100581  100575      33  100581  100578      34  100587  100584      33  100590
  100584      33  100590  100587      34  100596  100593      33  100599  100593
      33  100599  100596      34  100605  100602      33  100608  100602      33
  100608  100605      34  100614  100611      33  100617  100611      33  100617
  100614      34  100623  100620      33  100626  100620      33  100626  100623
      34  100632  100629      33  100635  100629      33  100635  100632      34
  100641  100638      33  100644  100638      33  100644  100641      34  100650
  100647      33  100653  100647      33  100653  100650      34  100659  100656
      33  100662  100656      33  100662  100659      34  100668  100665      33
  100671  100665      33  100671  100668      34  100677  100674      33  100680
  100674      33  100680  100677      34  100686  100683      33  100689  100683
      33  100689  100686      34  100695  100692      33  100698  100692      33
  100698  100695      34  100704  100701      33  100707  100701      33  100707
  100704      34  100713  100710      33  100716  100710      33  100716  100713
      34  100722  100719      33  100725  100719      33  100725  100722      34
  100731  100728      33  100734  100728      33  100734  100731      34  100740
  100737      33  100743  100737      33  100743  100740      34  100749  100746
      33  100752  100746      33  100752  100749      34  100758  100755      33
  100761  100755      33  100761  100758      34  100767  100764      33  100770
  100764      33  100770  100767      34  100776  100773      33  100779  100773
      33  100779  100776      34  100785  100782      33  100788  100782      33
  100788  100785      34  100794  100791      33  100797  100791      33  100797
  100794      34  100803  100800      33  100806  100800      33  100806  100803
      34  100812  100809      33  100815  100809      33  100815  100812      34
  100821  100818      33  100824  100818      33  100824  100821      34  100830
  100827      33  100833  100827      33  100833  100830      34  100839  100836
      33  100842  100836      33  100842  100839      34  100848  100845      33
  100851  100845      33  100851  100848      34  100857  100854      33  100860
  100854      33  100860  100857      34  100866  100863      33  100869  100863
      33  100869  100866      34  100875  100872      33  100878  100872      33
  100878  100875      34  100884  100881      33  100887  100881      33  100887
  100884      34  100893  100890      33  100896  100890      33  100896  100893
      34  100902  100899      33  100905  100899      33  100905  100902      34
  100911  100908      33  100914  100908      33  100914  100911      34  100920
  100917      33  100923  100917      33  100923  100920      34  100929  100926
      33  100932  100926      33  100932  100929      34  100938  100935      33
  100941  100935      33  100941  100938      34  100947  100944      33  100950
  100944      33  100950  100947      34  100956  100953      33  100959  100953
      33  100959  100956      34  100965  100962      33  100968  100962      33
  100968  100965      34  100974  100971      33  100977  100971      33  100977
  100974      34  100983  100980      33  100986  100980      33  100986  100983
      34  100992  100989      33  100995  100989      33  100995  100992      34
  101001  100998      33  101004  100998      33  101004  101001      34  101010
  101007      33  101013  101007      33  101013  101010      34  101019  101016
      33  101022  101016      33  101022  101019      34  101028  101025      33
  101031  101025      33  101031  101028      34  101037  101034      33  101040
  101034      33  101040  101037      34  101046  101043      33  101049  101043
      33  101049  101046      34  101055  101052      33  101058  101052      33
  101058  101055      34  101064  101061      33  101067  101061      33  101067
  101064      34  101073  101070      33  101076  101070      33  101076  101073
      34  101082  101079      33  101085  101079      33  101085  101082      34
  101091  101088      33  101094  101088      33  101094  101091      34  101100
  101097      33  101103  101097      33  101103  101100      34  101109  101106
      33  101112  101106      33  101112  101109      34  101118  101115      33
  101121  101115      33  101121  101118      34  101127  101124      33  101130
  101124      33  101130  101127      34  101136  101133      33  101139  101133
      33  101139  101136      34  101145  101142      33  101148  101142      33
  101148  101145      34  101154  101151      33  101157  101151      33  101157
  101154      34  101163  101160      33  101166  101160      33  101166  101163
      34  101172  101169      33  101175  101169      33  101175  101172      34
  101181  101178      33  101184  101178      33  101184  101181      34  101190
  101187      33  101193  101187      33  101193  101190      34  101199  101196
      33  101202  101196      33  101202  101199      34  101208  101205      33
  101211  101205      33  101211  101208      34  101217  101214      33  101220
  101214      33  101220  101217      34  101226  101223      33  101229  101223
      33  101229  101226      34  101235  101232      33  101238  101232      33
  101238  101235      34  101244  101241      33  101247  101241      33  101247
  101244      34  101253  101250      33  101256  101250      33  101256  101253
      34  101262  101259      33  101265  101259      33  101265  101262      34
  101271  101268      33  101274  101268      33  101274  101271      34  101280
  101277      33  101283  101277      33  101283  101280      34  101289  101286
      33  101292  101286      33  101292  101289      34  101298  101295      33
  101301  101295      33  101301  101298      34  101307  101304      33  101310
  101304      33  101310  101307      34  101316  101313      33  101319  101313
      33  101319  101316      34  101325  101322      33  101328  101322      33
  101328  101325      34  101334  101331      33  101337  101331      33  101337
  101334      34  101343  101340      33  101346  101340      33  101346  101343
      34  101352  101349      33  101355  101349      33  101355  101352      34
  101361  101358      33  101364  101358      33  101364  101361      34  101370
  101367      33  101373  101367      33  101373  101370      34  101379  101376
      33  101382  101376      33  101382  101379      34  101388  101385      33
  101391  101385      33  101391  101388      34  101397  101394      33  101400
  101394      33  101400  101397      34  101406  101403      33  101409  101403
      33  101409  101406      34  101415  101412      33  101418  101412      33
  101418  101415      34  101424  101421      33  101427  101421      33  101427
  101424      34  101433  101430      33  101436  101430      33  101436  101433
      34  101442  101439      33  101445  101439      33  101445  101442      34
  101451  101448      33  101454  101448      33  101454  101451      34  101460
  101457      33  101463  101457      33  101463  101460      34  101469  101466
      33  101472  101466      33  101472  101469      34  101478  101475      33
  101481  101475      33  101481  101478      34  101487  101484      33  101490
  101484      33  101490  101487      34  101496  101493      33  101499  101493
      33  101499  101496      34  101505  101502      33  101508  101502      33
  101508  101505      34  101514  101511      33  101517  101511      33  101517
  101514      34  101523  101520      33  101526  101520      33  101526  101523
      34  101532  101529      33  101535  101529      33  101535  101532      34
  101541  101538      33  101544  101538      33  101544  101541      34  101550
  101547      33  101553  101547      33  101553  101550      34  101559  101556
      33  101562  101556      33  101562  101559      34  101568  101565      33
  101571  101565      33  101571  101568      34  101577  101574      33  101580
  101574      33  101580  101577      34  101586  101583      33  101589  101583
      33  101589  101586      34  101595  101592      33  101598  101592      33
  101598  101595      34  101604  101601      33  101607  101601      33  101607
  101604      34  101613  101610      33  101616  101610      33  101616  101613
      34  101622  101619      33  101625  101619      33  101625  101622      34
  101631  101628      33  101634  101628      33  101634  101631      34  101640
  101637      33  101643  101637      33  101643  101640      34  101649  101646
      33  101652  101646      33  101652  101649      34  101658  101655      33
  101661  101655      33  101661  101658      34  101667  101664      33  101670
  101664      33  101670  101667      34  101676  101673      33  101679  101673
      33  101679  101676      34  101685  101682      33  101688  101682      33
  101688  101685      34  101694  101691      33  101697  101691      33  101697
  101694      34  101703  101700      33  101706  101700      33  101706  101703
      34  101712  101709      33  101715  101709      33  101715  101712      34
  101721  101718      33  101724  101718      33  101724  101721      34  101730
  101727      33  101733  101727      33  101733  101730      34  101739  101736
      33  101742  101736      33  101742  101739      34  101748  101745      33
  101751  101745      33  101751  101748      34  101757  101754      33  101760
  101754      33  101760  101757      34  101766  101763      33  101769  101763
      33  101769  101766      34  101775  101772      33  101778  101772      33
  101778  101775      34  101784  101781      33  101787  101781      33  101787
  101784      34  101793  101790      33  101796  101790      33  101796  101793
      34  101802  101799      33  101805  101799      33  101805  101802      34
  101811  101808      33  101814  101808      33  101814  101811      34  101820
  101817      33  101823  101817      33  101823  101820      34  101829  101826
      33  101832  101826      33  101832  101829      34  101838  101835      33
  101841  101835      33  101841  101838      34  101847  101844      33  101850
  101844      33  101850  101847      34  101856  101853      33  101859  101853
      33  101859  101856      34  101865  101862      33  101868  101862      33
  101868  101865      34  101874  101871      33  101877  101871      33  101877
  101874      34  101883  101880      33  101886  101880      33  101886  101883
      34  101892  101889      33  101895  101889      33  101895  101892      34
  101901  101898      33  101904  101898      33  101904  101901      34  101910
  101907      33  101913  101907      33  101913  101910      34  101919  101916
      33  101922  101916      33  101922  101919      34  101928  101925      33
  101931  101925      33  101931  101928      34  101937  101934      33  101940
  101934      33  101940  101937      34  101946  101943      33  101949  101943
      33  101949  101946      34  101955  101952      33  101958  101952      33
  101958  101955      34  101964  101961      33  101967  101961      33  101967
  101964      34  101973  101970      33  101976  101970      33  101976  101973
      34  101982  101979      33  101985  101979      33  101985  101982      34
  101991  101988      33  101994  101988      33  101994  101991      34  102000
  101997      33  102003  101997      33  102003  102000      34  102009  102006
      33  102012  102006      33  102012  102009      34  102018  102015      33
  102021  102015      33  102021  102018      34  102027  102024      33  102030
  102024      33  102030  102027      34  102036  102033      33  102039  102033
      33  102039  102036      34  102045  102042      33  102048  102042      33
  102048  102045      34  102054  102051      33  102057  102051      33  102057
  102054      34  102063  102060      33  102066  102060      33  102066  102063
      34  102072  102069      33  102075  102069      33  102075  102072      34
  102081  102078      33  102084  102078      33  102084  102081      34  102090
  102087      33  102093  102087      33  102093  102090      34  102099  102096
      33  102102  102096      33  102102  102099      34  102108  102105      33
  102111  102105      33  102111  102108      34  102117  102114      33  102120
  102114      33  102120  102117      34  102126  102123      33  102129  102123
      33  102129  102126      34  102135  102132      33  102138  102132      33
  102138  102135      34  102144  102141      33  102147  102141      33  102147
  102144      34  102153  102150      33  102156  102150      33  102156  102153
      34  102162  102159      33  102165  102159      33  102165  102162      34
  102171  102168      33  102174  102168      33  102174  102171      34  102180
  102177      33  102183  102177      33  102183  102180      34  102189  102186
      33  102192  102186      33  102192  102189      34  102198  102195      33
  102201  102195      33  102201  102198      34  102207  102204      33  102210
  102204      33  102210  102207      34  102216  102213      33  102219  102213
      33  102219  102216      34  102225  102222      33  102228  102222      33
  102228  102225      34  102234  102231      33  102237  102231      33  102237
  102234      34  102243  102240      33  102246  102240      33  102246  102243
      34  102252  102249      33  102255  102249      33  102255  102252      34
  102261  102258      33  102264  102258      33  102264  102261      34  102270
  102267      33  102273  102267      33  102273  102270      34  102279  102276
      33  102282  102276      33  102282  102279      34  102288  102285      33
  102291  102285      33  102291  102288      34  102297  102294      33  102300
  102294      33  102300  102297      34  102306  102303      33  102309  102303
      33  102309  102306      34  102315  102312      33  102318  102312      33
  102318  102315      34  102324  102321      33  102327  102321      33  102327
  102324      34  102333  102330      33  102336  102330      33  102336  102333
      34  102342  102339      33  102345  102339      33  102345  102342      34
  102351  102348      33  102354  102348      33  102354  102351      34  102360
  102357      33  102363  102357      33  102363  102360      34  102369  102366
      33  102372  102366      33  102372  102369      34  102378  102375      33
  102381  102375      33  102381  102378      34  102387  102384      33  102390
  102384      33  102390  102387      34  102396  102393      33  102399  102393
      33  102399  102396      34  102405  102402      33  102408  102402      33
  102408  102405      34  102414  102411      33  102417  102411      33  102417
  102414      34  102423  102420      33  102426  102420      33  102426  102423
      34  102432  102429      33  102435  102429      33  102435  102432      34
  102441  102438      33  102444  102438      33  102444  102441      34  102450
  102447      33  102453  102447      33  102453  102450      34  102459  102456
      33  102462  102456      33  102462  102459      34  102468  102465      33
  102471  102465      33  102471  102468      34  102477  102474      33  102480
  102474      33  102480  102477      34  102486  102483      33  102489  102483
      33  102489  102486      34  102495  102492      33  102498  102492      33
  102498  102495      34  102504  102501      33  102507  102501      33  102507
  102504      34  102513  102510      33  102516  102510      33  102516  102513
      34  102522  102519      33  102525  102519      33  102525  102522      34
  102531  102528      33  102534  102528      33  102534  102531      34  102540
  102537      33  102543  102537      33  102543  102540      34  102549  102546
      33  102552  102546      33  102552  102549      34  102558  102555      33
  102561  102555      33  102561  102558      34  102567  102564      33  102570
  102564      33  102570  102567      34  102576  102573      33  102579  102573
      33  102579  102576      34  102585  102582      33  102588  102582      33
  102588  102585      34  102594  102591      33  102597  102591      33  102597
  102594      34  102603  102600      33  102606  102600      33  102606  102603
      34  102612  102609      33  102615  102609      33  102615  102612      34
  102621  102618      33  102624  102618      33  102624  102621      34  102630
  102627      33  102633  102627      33  102633  102630      34  102639  102636
      33  102642  102636      33  102642  102639      34  102648  102645      33
  102651  102645      33  102651  102648      34  102657  102654      33  102660
  102654      33  102660  102657      34  102666  102663      33  102669  102663
      33  102669  102666      34  102675  102672      33  102678  102672      33
  102678  102675      34  102684  102681      33  102687  102681      33  102687
  102684      34  102693  102690      33  102696  102690      33  102696  102693
      34  102702  102699      33  102705  102699      33  102705  102702      34
  102711  102708      33  102714  102708      33  102714  102711      34  102720
  102717      33  102723  102717      33  102723  102720      34  102729  102726
      33  102732  102726      33  102732  102729      34  102738  102735      33
  102741  102735      33  102741  102738      34  102747  102744      33  102750
  102744      33  102750  102747      34  102756  102753      33  102759  102753
      33  102759  102756      34  102765  102762      33  102768  102762      33
  102768  102765      34  102774  102771      33  102777  102771      33  102777
  102774      34  102783  102780      33  102786  102780      33  102786  102783
      34  102792  102789      33  102795  102789      33  102795  102792      34
  102801  102798      33  102804  102798      33  102804  102801      34  102810
  102807      33  102813  102807      33  102813  102810      34  102819  102816
      33  102822  102816      33  102822  102819      34  102828  102825      33
  102831  102825      33  102831  102828      34  102837  102834      33  102840
  102834      33  102840  102837      34  102846  102843      33  102849  102843
      33  102849  102846      34  102855  102852      33  102858  102852      33
  102858  102855      34  102864  102861      33  102867  102861      33  102867
  102864      34  102873  102870      33  102876  102870      33  102876  102873
      34  102882  102879      33  102885  102879      33  102885  102882      34
  102891  102888      33  102894  102888      33  102894  102891      34  102900
  102897      33  102903  102897      33  102903  102900      34  102909  102906
      33  102912  102906      33  102912  102909      34  102918  102915      33
  102921  102915      33  102921  102918      34  102927  102924      33  102930
  102924      33  102930  102927      34  102936  102933      33  102939  102933
      33  102939  102936      34  102945  102942      33  102948  102942      33
  102948  102945      34  102954  102951      33  102957  102951      33  102957
  102954      34  102963  102960      33  102966  102960      33  102966  102963
      34  102972  102969      33  102975  102969      33  102975  102972      34
  102981  102978      33  102984  102978      33  102984  102981      34  102990
  102987      33  102993  102987      33  102993  102990      34  102999  102996
      33  103002  102996      33  103002  102999      34  103008  103005      33
  103011  103005      33  103011  103008      34  103017  103014      33  103020
  103014      33  103020  103017      34  103026  103023      33  103029  103023
      33  103029  103026      34  103035  103032      33  103038  103032      33
  103038  103035      34  103044  103041      33  103047  103041      33  103047
  103044      34  103053  103050      33  103056  103050      33  103056  103053
      34  103062  103059      33  103065  103059      33  103065  103062      34
  103071  103068      33  103074  103068      33  103074  103071      34  103080
  103077      33  103083  103077      33  103083  103080      34  103089  103086
      33  103092  103086      33  103092  103089      34  103098  103095      33
  103101  103095      33  103101  103098      34  103107  103104      33  103110
  103104      33  103110  103107      34  103116  103113      33  103119  103113
      33  103119  103116      34  103125  103122      33  103128  103122      33
  103128  103125      34  103134  103131      33  103137  103131      33  103137
  103134      34  103143  103140      33  103146  103140      33  103146  103143
      34  103152  103149      33  103155  103149      33  103155  103152      34
  103161  103158      33  103164  103158      33  103164  103161      34  103170
  103167      33  103173  103167      33  103173  103170      34  103179  103176
      33  103182  103176      33  103182  103179      34  103188  103185      33
  103191  103185      33  103191  103188      34  103197  103194      33  103200
  103194      33  103200  103197      34  103206  103203      33  103209  103203
      33  103209  103206      34  103215  103212      33  103218  103212      33
  103218  103215      34  103224  103221      33  103227  103221      33  103227
  103224      34  103233  103230      33  103236  103230      33  103236  103233
      34  103242  103239      33  103245  103239      33  103245  103242      34
  103251  103248      33  103254  103248      33  103254  103251      34  103260
  103257      33  103263  103257      33  103263  103260      34  103269  103266
      33  103272  103266      33  103272  103269      34  103278  103275      33
  103281  103275      33  103281  103278      34  103287  103284      33  103290
  103284      33  103290  103287      34  103296  103293      33  103299  103293
      33  103299  103296      34  103305  103302      33  103308  103302      33
  103308  103305      34  103314  103311      33  103317  103311      33  103317
  103314      34  103323  103320      33  103326  103320      33  103326  103323
      34  103332  103329      33  103335  103329      33  103335  103332      34
  103341  103338      33  103344  103338      33  103344  103341      34  103350
  103347      33  103353  103347      33  103353  103350      34  103359  103356
      33  103362  103356      33  103362  103359      34  103368  103365      33
  103371  103365      33  103371  103368      34  103377  103374      33  103380
  103374      33  103380  103377      34  103386  103383      33  103389  103383
      33  103389  103386      34  103395  103392      33  103398  103392      33
  103398  103395      34  103404  103401      33  103407  103401      33  103407
  103404      34  103413  103410      33  103416  103410      33  103416  103413
      34  103422  103419      33  103425  103419      33  103425  103422      34
  103431  103428      33  103434  103428      33  103434  103431      34  103440
  103437      33  103443  103437      33  103443  103440      34  103449  103446
      33  103452  103446      33  103452  103449      34  103458  103455      33
  103461  103455      33  103461  103458      34  103467  103464      33  103470
  103464      33  103470  103467      34  103476  103473      33  103479  103473
      33  103479  103476      34  103485  103482      33  103488  103482      33
  103488  103485      34  103494  103491      33  103497  103491      33  103497
  103494      34  103503  103500      33  103506  103500      33  103506  103503
      34  103512  103509      33  103515  103509      33  103515  103512      34
  103521  103518      33  103524  103518      33  103524  103521      34  103530
  103527      33  103533  103527      33  103533  103530      34  103539  103536
      33  103542  103536      33  103542  103539      34  103548  103545      33
  103551  103545      33  103551  103548      34  103557  103554      33  103560
  103554      33  103560  103557      34  103566  103563      33  103569  103563
      33  103569  103566      34  103575  103572      33  103578  103572      33
  103578  103575      34  103584  103581      33  103587  103581      33  103587
  103584      34  103593  103590      33  103596  103590      33  103596  103593
      34  103602  103599      33  103605  103599      33  103605  103602      34
  103611  103608      33  103614  103608      33  103614  103611      34  103620
  103617      33  103623  103617      33  103623  103620      34  103629  103626
      33  103632  103626      33  103632  103629      34  103638  103635      33
  103641  103635      33  103641  103638      34  103647  103644      33  103650
  103644      33  103650  103647      34  103656  103653      33  103659  103653
      33  103659  103656      34  103665  103662      33  103668  103662      33
  103668  103665      34  103674  103671      33  103677  103671      33  103677
  103674      34  103683  103680      33  103686  103680      33  103686  103683
      34  103692  103689      33  103695  103689      33  103695  103692      34
  103701  103698      33  103704  103698      33  103704  103701      34  103710
  103707      33  103713  103707      33  103713  103710      34  103719  103716
      33  103722  103716      33  103722  103719      34  103728  103725      33
  103731  103725      33  103731  103728      34  103737  103734      33  103740
  103734      33  103740  103737      34  103746  103743      33  103749  103743
      33  103749  103746      34  103755  103752      33  103758  103752      33
  103758  103755      34  103764  103761      33  103767  103761      33  103767
  103764      34  103773  103770      33  103776  103770      33  103776  103773
      34  103782  103779      33  103785  103779      33  103785  103782      34
  103791  103788      33  103794  103788      33  103794  103791      34  103800
  103797      33  103803  103797      33  103803  103800      34  103809  103806
      33  103812  103806      33  103812  103809      34  103818  103815      33
  103821  103815      33  103821  103818      34  103827  103824      33  103830
  103824      33  103830  103827      34  103836  103833      33  103839  103833
      33  103839  103836      34  103845  103842      33  103848  103842      33
  103848  103845      34  103854  103851      33  103857  103851      33  103857
  103854      34  103863  103860      33  103866  103860      33  103866  103863
      34  103872  103869      33  103875  103869      33  103875  103872      34
  103881  103878      33  103884  103878      33  103884  103881      34  103890
  103887      33  103893  103887      33  103893  103890      34  103899  103896
      33  103902  103896      33  103902  103899      34  103908  103905      33
  103911  103905      33  103911  103908      34  103917  103914      33  103920
  103914      33  103920  103917      34  103926  103923      33  103929  103923
      33  103929  103926      34  103935  103932      33  103938  103932      33
  103938  103935      34  103944  103941      33  103947  103941      33  103947
  103944      34  103953  103950      33  103956  103950      33  103956  103953
      34  103962  103959      33  103965  103959      33  103965  103962      34
  103971  103968      33  103974  103968      33  103974  103971      34  103980
  103977      33  103983  103977      33  103983  103980      34  103989  103986
      33  103992  103986      33  103992  103989      34  103998  103995      33
  104001  103995      33  104001  103998      34  104007  104004      33  104010
  104004      33  104010  104007      34  104016  104013      33  104019  104013
      33  104019  104016      34  104025  104022      33  104028  104022      33
  104028  104025      34  104034  104031      33  104037  104031      33  104037
  104034      34  104043  104040      33  104046  104040      33  104046  104043
      34  104052  104049      33  104055  104049      33  104055  104052      34
  104061  104058      33  104064  104058      33  104064  104061      34  104070
  104067      33  104073  104067      33  104073  104070      34  104079  104076
      33  104082  104076      33  104082  104079      34  104088  104085      33
  104091  104085      33  104091  104088      34  104097  104094      33  104100
  104094      33  104100  104097      34  104106  104103      33  104109  104103
      33  104109  104106      34  104115  104112      33  104118  104112      33
  104118  104115      34  104124  104121      33  104127  104121      33  104127
  104124      34  104133  104130      33  104136  104130      33  104136  104133
      34  104142  104139      33  104145  104139      33  104145  104142      34
  104151  104148      33  104154  104148      33  104154  104151      34  104160
  104157      33  104163  104157      33  104163  104160      34  104169  104166
      33  104172  104166      33  104172  104169      34  104178  104175      33
  104181  104175      33  104181  104178      34  104187  104184      33  104190
  104184      33  104190  104187      34  104196  104193      33  104199  104193
      33  104199  104196      34  104205  104202      33  104208  104202      33
  104208  104205      34  104214  104211      33  104217  104211      33  104217
  104214      34  104223  104220      33  104226  104220      33  104226  104223
      34  104232  104229      33  104235  104229      33  104235  104232      34
  104241  104238      33  104244  104238      33  104244  104241      34  104250
  104247      33  104253  104247      33  104253  104250      34  104259  104256
      33  104262  104256      33  104262  104259      34  104268  104265      33
  104271  104265      33  104271  104268      34  104277  104274      33  104280
  104274      33  104280  104277      34  104286  104283      33  104289  104283
      33  104289  104286      34  104295  104292      33  104298  104292      33
  104298  104295      34  104304  104301      33  104307  104301      33  104307
  104304      34  104313  104310      33  104316  104310      33  104316  104313
      34  104322  104319      33  104325  104319      33  104325  104322      34
  104331  104328      33  104334  104328      33  104334  104331      34  104340
  104337      33  104343  104337      33  104343  104340      34  104349  104346
      33  104352  104346      33  104352  104349      34  104358  104355      33
  104361  104355      33  104361  104358      34  104367  104364      33  104370
  104364      33  104370  104367      34  104376  104373      33  104379  104373
      33  104379  104376      34  104385  104382      33  104388  104382      33
  104388  104385      34  104394  104391      33  104397  104391      33  104397
  104394      34  104403  104400      33  104406  104400      33  104406  104403
      34  104412  104409      33  104415  104409      33  104415  104412      34
  104421  104418      33  104424  104418      33  104424  104421      34  104430
  104427      33  104433  104427      33  104433  104430      34  104439  104436
      33  104442  104436      33  104442  104439      34  104448  104445      33
  104451  104445      33  104451  104448      34  104457  104454      33  104460
  104454      33  104460  104457      34  104466  104463      33  104469  104463
      33  104469  104466      34  104475  104472      33  104478  104472      33
  104478  104475      34  104484  104481      33  104487  104481      33  104487
  104484      34  104493  104490      33  104496  104490      33  104496  104493
      34  104502  104499      33  104505  104499      33  104505  104502      34
  104511  104508      33  104514  104508      33  104514  104511      34  104520
  104517      33  104523  104517      33  104523  104520      34  104529  104526
      33  104532  104526      33  104532  104529      34  104538  104535      33
  104541  104535      33  104541  104538      34  104547  104544      33  104550
  104544      33  104550  104547      34  104556  104553      33  104559  104553
      33  104559  104556      34  104565  104562      33  104568  104562      33
  104568  104565      34  104574  104571      33  104577  104571      33  104577
  104574      34  104583  104580      33  104586  104580      33  104586  104583
      34  104592  104589      33  104595  104589      33  104595  104592      34
  104601  104598      33  104604  104598      33  104604  104601      34  104610
  104607      33  104613  104607      33  104613  104610      34  104619  104616
      33  104622  104616      33  104622  104619      34  104628  104625      33
  104631  104625      33  104631  104628      34  104637  104634      33  104640
  104634      33  104640  104637      34  104646  104643      33  104649  104643
      33  104649  104646      34  104655  104652      33  104658  104652      33
  104658  104655      34  104664  104661      33  104667  104661      33  104667
  104664      34  104673  104670      33  104676  104670      33  104676  104673
      34  104682  104679      33  104685  104679      33  104685  104682      34
  104691  104688      33  104694  104688      33  104694  104691      34  104700
  104697      33  104703  104697      33  104703  104700      34  104709  104706
      33  104712  104706      33  104712  104709      34  104718  104715      33
  104721  104715      33  104721  104718      34  104727  104724      33  104730
  104724      33  104730  104727      34  104736  104733      33  104739  104733
      33  104739  104736      34  104745  104742      33  104748  104742      33
  104748  104745      34  104754  104751      33  104757  104751      33  104757
  104754      34  104763  104760      33  104766  104760      33  104766  104763
      34  104772  104769      33  104775  104769      33  104775  104772      34
  104781  104778      33  104784  104778      33  104784  104781      34  104790
  104787      33  104793  104787      33  104793  104790      34  104799  104796
      33  104802  104796      33  104802  104799      34  104808  104805      33
  104811  104805      33  104811  104808      34  104817  104814      33  104820
  104814      33  104820  104817      34  104826  104823      33  104829  104823
      33  104829  104826      34  104835  104832      33  104838  104832      33
  104838  104835      34  104844  104841      33  104847  104841      33  104847
  104844      34  104853  104850      33  104856  104850      33  104856  104853
      34  104862  104859      33  104865  104859      33  104865  104862      34
  104871  104868      33  104874  104868      33  104874  104871      34  104880
  104877      33  104883  104877      33  104883  104880      34  104889  104886
      33  104892  104886      33  104892  104889      34  104898  104895      33
  104901  104895      33  104901  104898      34  104907  104904      33  104910
  104904      33  104910  104907      34  104916  104913      33  104919  104913
      33  104919  104916      34  104925  104922      33  104928  104922      33
  104928  104925      34  104934  104931      33  104937  104931      33  104937
  104934      34  104943  104940      33  104946  104940      33  104946  104943
      34  104952  104949      33  104955  104949      33  104955  104952      34
  104961  104958      33  104964  104958      33  104964  104961      34  104970
  104967      33  104973  104967      33  104973  104970      34  104979  104976
      33  104982  104976      33  104982  104979      34  104988  104985      33
  104991  104985      33  104991  104988      34  104997  104994      33  105000
  104994      33  105000  104997      34  105006  105003      33  105009  105003
      33  105009  105006      34  105015  105012      33  105018  105012      33
  105018  105015      34  105024  105021      33  105027  105021      33  105027
  105024      34  105033  105030      33  105036  105030      33  105036  105033
      34  105042  105039      33  105045  105039      33  105045  105042      34
  105051  105048      33  105054  105048      33  105054  105051      34  105060
  105057      33  105063  105057      33  105063  105060      34  105069  105066
      33  105072  105066      33  105072  105069      34  105078  105075      33
  105081  105075      33  105081  105078      34  105087  105084      33  105090
  105084      33  105090  105087      34  105096  105093      33  105099  105093
      33  105099  105096      34  105105  105102      33  105108  105102      33
  105108  105105      34  105114  105111      33  105117  105111      33  105117
  105114      34  105123  105120      33  105126  105120      33  105126  105123
      34  105132  105129      33  105135  105129      33  105135  105132      34
  105141  105138      33  105144  105138      33  105144  105141      34  105150
  105147      33  105153  105147      33  105153  105150      34  105159  105156
      33  105162  105156      33  105162  105159      34  105168  105165      33
  105171  105165      33  105171  105168      34  105177  105174      33  105180
  105174      33  105180  105177      34  105186  105183      33  105189  105183
      33  105189  105186      34  105195  105192      33  105198  105192      33
  105198  105195      34  105204  105201      33  105207  105201      33  105207
  105204      34  105213  105210      33  105216  105210      33  105216  105213
      34  105222  105219      33  105225  105219      33  105225  105222      34
  105231  105228      33  105234  105228      33  105234  105231      34  105240
  105237      33  105243  105237      33  105243  105240      34  105249  105246
      33  105252  105246      33  105252  105249      34  105258  105255      33
  105261  105255      33  105261  105258      34  105267  105264      33  105270
  105264      33  105270  105267      34  105276  105273      33  105279  105273
      33  105279  105276      34  105285  105282      33  105288  105282      33
  105288  105285      34  105294  105291      33  105297  105291      33  105297
  105294      34  105303  105300      33  105306  105300      33  105306  105303
      34  105312  105309      33  105315  105309      33  105315  105312      34
  105321  105318      33  105324  105318      33  105324  105321      34  105330
  105327      33  105333  105327      33  105333  105330      34  105339  105336
      33  105342  105336      33  105342  105339      34  105348  105345      33
  105351  105345      33  105351  105348      34  105357  105354      33  105360
  105354      33  105360  105357      34  105366  105363      33  105369  105363
      33  105369  105366      34  105375  105372      33  105378  105372      33
  105378  105375      34  105384  105381      33  105387  105381      33  105387
  105384      34  105393  105390      33  105396  105390      33  105396  105393
      34  105402  105399      33  105405  105399      33  105405  105402      34
  105411  105408      33  105414  105408      33  105414  105411      34  105420
  105417      33  105423  105417      33  105423  105420      34  105429  105426
      33  105432  105426      33  105432  105429      34  105438  105435      33
  105441  105435      33  105441  105438      34  105447  105444      33  105450
  105444      33  105450  105447      34  105456  105453      33  105459  105453
      33  105459  105456      34  105465  105462      33  105468  105462      33
  105468  105465      34  105474  105471      33  105477  105471      33  105477
  105474      34  105483  105480      33  105486  105480      33  105486  105483
      34  105492  105489      33  105495  105489      33  105495  105492      34
  105501  105498      33  105504  105498      33  105504  105501      34  105510
  105507      33  105513  105507      33  105513  105510      34  105519  105516
      33  105522  105516      33  105522  105519      34  105528  105525      33
  105531  105525      33  105531  105528      34  105537  105534      33  105540
  105534      33  105540  105537      34  105546  105543      33  105549  105543
      33  105549  105546      34  105555  105552      33  105558  105552      33
  105558  105555      34  105564  105561      33  105567  105561      33  105567
  105564      34  105573  105570      33  105576  105570      33  105576  105573
      34  105582  105579      33  105585  105579      33  105585  105582      34
  105591  105588      33  105594  105588      33  105594  105591      34  105600
  105597      33  105603  105597      33  105603  105600      34  105609  105606
      33  105612  105606      33  105612  105609      34  105618  105615      33
  105621  105615      33  105621  105618      34  105627  105624      33  105630
  105624      33  105630  105627      34  105636  105633      33  105639  105633
      33  105639  105636      34  105645  105642      33  105648  105642      33
  105648  105645      34  105654  105651      33  105657  105651      33  105657
  105654      34  105663  105660      33  105666  105660      33  105666  105663
      34  105672  105669      33  105675  105669      33  105675  105672      34
  105681  105678      33  105684  105678      33  105684  105681      34  105690
  105687      33  105693  105687      33  105693  105690      34  105699  105696
      33  105702  105696      33  105702  105699      34  105708  105705      33
  105711  105705      33  105711  105708      34  105717  105714      33  105720
  105714      33  105720  105717      34  105726  105723      33  105729  105723
      33  105729  105726      34  105735  105732      33  105738  105732      33
  105738  105735      34  105744  105741      33  105747  105741      33  105747
  105744      34  105753  105750      33  105756  105750      33  105756  105753
      34  105762  105759      33  105765  105759      33  105765  105762      34
  105771  105768      33  105774  105768      33  105774  105771      34  105780
  105777      33  105783  105777      33  105783  105780      34  105789  105786
      33  105792  105786      33  105792  105789      34  105798  105795      33
  105801  105795      33  105801  105798      34  105807  105804      33  105810
  105804      33  105810  105807      34  105816  105813      33  105819  105813
      33  105819  105816      34  105825  105822      33  105828  105822      33
  105828  105825      34  105834  105831      33  105837  105831      33  105837
  105834      34  105843  105840      33  105846  105840      33  105846  105843
      34  105852  105849      33  105855  105849      33  105855  105852      34
  105861  105858      33  105864  105858      33  105864  105861      34  105870
  105867      33  105873  105867      33  105873  105870      34  105879  105876
      33  105882  105876      33  105882  105879      34  105888  105885      33
  105891  105885      33  105891  105888      34  105897  105894      33  105900
  105894      33  105900  105897      34  105906  105903      33  105909  105903
      33  105909  105906      34  105915  105912      33  105918  105912      33
  105918  105915      34  105924  105921      33  105927  105921      33  105927
  105924      34  105933  105930      33  105936  105930      33  105936  105933
      34  105942  105939      33  105945  105939      33  105945  105942      34
  105951  105948      33  105954  105948      33  105954  105951      34  105960
  105957      33  105963  105957      33  105963  105960      34  105969  105966
      33  105972  105966      33  105972  105969      34  105978  105975      33
  105981  105975      33  105981  105978      34  105987  105984      33  105990
  105984      33  105990  105987      34  105996  105993      33  105999  105993
      33  105999  105996      34  106005  106002      33  106008  106002      33
  106008  106005      34  106014  106011      33  106017  106011      33  106017
  106014      34  106023  106020      33  106026  106020      33  106026  106023
      34  106032  106029      33  106035  106029      33  106035  106032      34
  106041  106038      33  106044  106038      33  106044  106041      34  106050
  106047      33  106053  106047      33  106053  106050      34  106059  106056
      33  106062  106056      33  106062  106059      34  106068  106065      33
  106071  106065      33  106071  106068      34  106077  106074      33  106080
  106074      33  106080  106077      34  106086  106083      33  106089  106083
      33  106089  106086      34  106095  106092      33  106098  106092      33
  106098  106095      34  106104  106101      33  106107  106101      33  106107
  106104      34  106113  106110      33  106116  106110      33  106116  106113
      34  106122  106119      33  106125  106119      33  106125  106122      34
  106131  106128      33  106134  106128      33  106134  106131      34  106140
  106137      33  106143  106137      33  106143  106140      34  106149  106146
      33  106152  106146      33  106152  106149      34  106158  106155      33
  106161  106155      33  106161  106158      34  106167  106164      33  106170
  106164      33  106170  106167      34  106176  106173      33  106179  106173
      33  106179  106176      34  106185  106182      33  106188  106182      33
  106188  106185      34  106194  106191      33  106197  106191      33  106197
  106194      34  106203  106200      33  106206  106200      33  106206  106203
      34  106212  106209      33  106215  106209      33  106215  106212      34
  106221  106218      33  106224  106218      33  106224  106221      34  106230
  106227      33  106233  106227      33  106233  106230      34  106239  106236
      33  106242  106236      33  106242  106239      34  106248  106245      33
  106251  106245      33  106251  106248      34  106257  106254      33  106260
  106254      33  106260  106257      34  106266  106263      33  106269  106263
      33  106269  106266      34  106275  106272      33  106278  106272      33
  106278  106275      34  106284  106281      33  106287  106281      33  106287
  106284      34  106293  106290      33  106296  106290      33  106296  106293
      34  106302  106299      33  106305  106299      33  106305  106302      34
  106311  106308      33  106314  106308      33  106314  106311      34  106320
  106317      33  106323  106317      33  106323  106320      34  106329  106326
      33  106332  106326      33  106332  106329      34  106338  106335      33
  106341  106335      33  106341  106338      34  106347  106344      33  106350
  106344      33  106350  106347      34  106356  106353      33  106359  106353
      33  106359  106356      34  106365  106362      33  106368  106362      33
  106368  106365      34  106374  106371      33  106377  106371      33  106377
  106374      34  106383  106380      33  106386  106380      33  106386  106383
      34  106392  106389      33  106395  106389      33  106395  106392      34
  106401  106398      33  106404  106398      33  106404  106401      34  106410
  106407      33  106413  106407      33  106413  106410      34  106419  106416
      33  106422  106416      33  106422  106419      34  106428  106425      33
  106431  106425      33  106431  106428      34  106437  106434      33  106440
  106434      33  106440  106437      34  106446  106443      33  106449  106443
      33  106449  106446      34  106455  106452      33  106458  106452      33
  106458  106455      34  106464  106461      33  106467  106461      33  106467
  106464      34  106473  106470      33  106476  106470      33  106476  106473
      34  106482  106479      33  106485  106479      33  106485  106482      34
  106491  106488      33  106494  106488      33  106494  106491      34  106500
  106497      33  106503  106497      33  106503  106500      34  106509  106506
      33  106512  106506      33  106512  106509      34  106518  106515      33
  106521  106515      33  106521  106518      34  106527  106524      33  106530
  106524      33  106530  106527      34  106536  106533      33  106539  106533
      33  106539  106536      34  106545  106542      33  106548  106542      33
  106548  106545      34  106554  106551      33  106557  106551      33  106557
  106554      34  106563  106560      33  106566  106560      33  106566  106563
      34  106572  106569      33  106575  106569      33  106575  106572      34
  106581  106578      33  106584  106578      33  106584  106581      34  106590
  106587      33  106593  106587      33  106593  106590      34  106599  106596
      33  106602  106596      33  106602  106599      34  106608  106605      33
  106611  106605      33  106611  106608      34  106617  106614      33  106620
  106614      33  106620  106617      34  106626  106623      33  106629  106623
      33  106629  106626      34  106635  106632      33  106638  106632      33
  106638  106635      34  106644  106641      33  106647  106641      33  106647
  106644      34  106653  106650      33  106656  106650      33  106656  106653
      34  106662  106659      33  106665  106659      33  106665  106662      34
  106671  106668      33  106674  106668      33  106674  106671      34  106680
  106677      33  106683  106677      33  106683  106680      34  106689  106686
      33  106692  106686      33  106692  106689      34  106698  106695      33
  106701  106695      33  106701  106698      34  106707  106704      33  106710
  106704      33  106710  106707      34  106716  106713      33  106719  106713
      33  106719  106716      34  106725  106722      33  106728  106722      33
  106728  106725      34  106734  106731      33  106737  106731      33  106737
  106734      34  106743  106740      33  106746  106740      33  106746  106743
      34  106752  106749      33  106755  106749      33  106755  106752      34
  106761  106758      33  106764  106758      33  106764  106761      34  106770
  106767      33  106773  106767      33  106773  106770      34  106779  106776
      33  106782  106776      33  106782  106779      34  106788  106785      33
  106791  106785      33  106791  106788      34  106797  106794      33  106800
  106794      33  106800  106797      34  106806  106803      33  106809  106803
      33  106809  106806      34  106815  106812      33  106818  106812      33
  106818  106815      34  106824  106821      33  106827  106821      33  106827
  106824      34  106833  106830      33  106836  106830      33  106836  106833
      34  106842  106839      33  106845  106839      33  106845  106842      34
  106851  106848      33  106854  106848      33  106854  106851      34  106860
  106857      33  106863  106857      33  106863  106860      34  106869  106866
      33  106872  106866      33  106872  106869      34  106878  106875      33
  106881  106875      33  106881  106878      34  106887  106884      33  106890
  106884      33  106890  106887      34  106896  106893      33  106899  106893
      33  106899  106896      34  106905  106902      33  106908  106902      33
  106908  106905      34  106914  106911      33  106917  106911      33  106917
  106914      34  106923  106920      33  106926  106920      33  106926  106923
      34  106932  106929      33  106935  106929      33  106935  106932      34
  106941  106938      33  106944  106938      33  106944  106941      34  106950
  106947      33  106953  106947      33  106953  106950      34  106959  106956
      33  106962  106956      33  106962  106959      34  106968  106965      33
  106971  106965      33  106971  106968      34  106977  106974      33  106980
  106974      33  106980  106977      34  106986  106983      33  106989  106983
      33  106989  106986      34  106995  106992      33  106998  106992      33
  106998  106995      34  107004  107001      33  107007  107001      33  107007
  107004      34  107013  107010      33  107016  107010      33  107016  107013
      34  107022  107019      33  107025  107019      33  107025  107022      34
  107031  107028      33  107034  107028      33  107034  107031      34  107040
  107037      33  107043  107037      33  107043  107040      34  107049  107046
      33  107052  107046      33  107052  107049      34  107058  107055      33
  107061  107055      33  107061  107058      34  107067  107064      33  107070
  107064      33  107070  107067      34  107076  107073      33  107079  107073
      33  107079  107076      34  107085  107082      33  107088  107082      33
  107088  107085      34  107094  107091      33  107097  107091      33  107097
  107094      34  107103  107100      33  107106  107100      33  107106  107103
      34  107112  107109      33  107115  107109      33  107115  107112      34
  107121  107118      33  107124  107118      33  107124  107121      34  107130
  107127      33  107133  107127      33  107133  107130      34  107139  107136
      33  107142  107136      33  107142  107139      34  107148  107145      33
  107151  107145      33  107151  107148      34  107157  107154      33  107160
  107154      33  107160  107157      34  107166  107163      33  107169  107163
      33  107169  107166      34  107175  107172      33  107178  107172      33
  107178  107175      34  107184  107181      33  107187  107181      33  107187
  107184      34  107193  107190      33  107196  107190      33  107196  107193
      34  107202  107199      33  107205  107199      33  107205  107202      34
  107211  107208      33  107214  107208      33  107214  107211      34  107220
  107217      33  107223  107217      33  107223  107220      34  107229  107226
      33  107232  107226      33  107232  107229      34  107238  107235      33
  107241  107235      33  107241  107238      34  107247  107244      33  107250
  107244      33  107250  107247      34  107256  107253      33  107259  107253
      33  107259  107256      34  107265  107262      33  107268  107262      33
  107268  107265      34  107274  107271      33  107277  107271      33  107277
  107274      34  107283  107280      33  107286  107280      33  107286  107283
      34  107292  107289      33  107295  107289      33  107295  107292      34
  107301  107298      33  107304  107298      33  107304  107301      34  107310
  107307      33  107313  107307      33  107313  107310      34  107319  107316
      33  107322  107316      33  107322  107319      34  107328  107325      33
  107331  107325      33  107331  107328      34  107337  107334      33  107340
  107334      33  107340  107337      34  107346  107343      33  107349  107343
      33  107349  107346      34  107355  107352      33  107358  107352      33
  107358  107355      34  107364  107361      33  107367  107361      33  107367
  107364      34  107373  107370      33  107376  107370      33  107376  107373
      34  107382  107379      33  107385  107379      33  107385  107382      34
  107391  107388      33  107394  107388      33  107394  107391      34  107400
  107397      33  107403  107397      33  107403  107400      34  107409  107406
      33  107412  107406      33  107412  107409      34  107418  107415      33
  107421  107415      33  107421  107418      34  107427  107424      33  107430
  107424      33  107430  107427      34  107436  107433      33  107439  107433
      33  107439  107436      34  107445  107442      33  107448  107442      33
  107448  107445      34  107454  107451      33  107457  107451      33  107457
  107454      34  107463  107460      33  107466  107460      33  107466  107463
      34  107472  107469      33  107475  107469      33  107475  107472      34
  107481  107478      33  107484  107478      33  107484  107481      34  107490
  107487      33  107493  107487      33  107493  107490      34  107499  107496
      33  107502  107496      33  107502  107499      34  107508  107505      33
  107511  107505      33  107511  107508      34  107517  107514      33  107520
  107514      33  107520  107517      34  107526  107523      33  107529  107523
      33  107529  107526      34  107535  107532      33  107538  107532      33
  107538  107535      34  107544  107541      33  107547  107541      33  107547
  107544      34  107553  107550      33  107556  107550      33  107556  107553
      34  107562  107559      33  107565  107559      33  107565  107562      34
  107571  107568      33  107574  107568      33  107574  107571      34  107580
  107577      33  107583  107577      33  107583  107580      34  107589  107586
      33  107592  107586      33  107592  107589      34  107598  107595      33
  107601  107595      33  107601  107598      34  107607  107604      33  107610
  107604      33  107610  107607      34  107616  107613      33  107619  107613
      33  107619  107616      34  107625  107622      33  107628  107622      33
  107628  107625      34  107634  107631      33  107637  107631      33  107637
  107634      34  107643  107640      33  107646  107640      33  107646  107643
      34  107652  107649      33  107655  107649      33  107655  107652      34
  107661  107658      33  107664  107658      33  107664  107661      34  107670
  107667      33  107673  107667      33  107673  107670      34  107679  107676
      33  107682  107676      33  107682  107679      34  107688  107685      33
  107691  107685      33  107691  107688      34  107697  107694      33  107700
  107694      33  107700  107697      34  107706  107703      33  107709  107703
      33  107709  107706      34  107715  107712      33  107718  107712      33
  107718  107715      34  107724  107721      33  107727  107721      33  107727
  107724      34  107733  107730      33  107736  107730      33  107736  107733
      34  107742  107739      33  107745  107739      33  107745  107742      34
  107751  107748      33  107754  107748      33  107754  107751      34  107760
  107757      33  107763  107757      33  107763  107760      34  107769  107766
      33  107772  107766      33  107772  107769      34  107778  107775      33
  107781  107775      33  107781  107778      34  107787  107784      33  107790
  107784      33  107790  107787      34  107796  107793      33  107799  107793
      33  107799  107796      34  107805  107802      33  107808  107802      33
  107808  107805      34  107814  107811      33  107817  107811      33  107817
  107814      34  107823  107820      33  107826  107820      33  107826  107823
      34  107832  107829      33  107835  107829      33  107835  107832      34
  107841  107838      33  107844  107838      33  107844  107841      34  107850
  107847      33  107853  107847      33  107853  107850      34  107859  107856
      33  107862  107856      33  107862  107859      34  107868  107865      33
  107871  107865      33  107871  107868      34  107877  107874      33  107880
  107874      33  107880  107877      34  107886  107883      33  107889  107883
      33  107889  107886      34  107895  107892      33  107898  107892      33
  107898  107895      34  107904  107901      33  107907  107901      33  107907
  107904      34  107913  107910      33  107916  107910      33  107916  107913
      34  107922  107919      33  107925  107919      33  107925  107922      34
  107931  107928      33  107934  107928      33  107934  107931      34  107940
  107937      33  107943  107937      33  107943  107940      34  107949  107946
      33  107952  107946      33  107952  107949      34  107958  107955      33
  107961  107955      33  107961  107958      34  107967  107964      33  107970
  107964      33  107970  107967      34  107976  107973      33  107979  107973
      33  107979  107976      34  107985  107982      33  107988  107982      33
  107988  107985      34  107994  107991      33  107997  107991      33  107997
  107994      34  108003  108000      33  108006  108000      33  108006  108003
      34  108012  108009      33  108015  108009      33  108015  108012      34
  108021  108018      33  108024  108018      33  108024  108021      34  108030
  108027      33  108033  108027      33  108033  108030      34  108039  108036
      33  108042  108036      33  108042  108039      34  108048  108045      33
  108051  108045      33  108051  108048      34  108057  108054      33  108060
  108054      33  108060  108057      34  108066  108063      33  108069  108063
      33  108069  108066      34  108075  108072      33  108078  108072      33
  108078  108075      34  108084  108081      33  108087  108081      33  108087
  108084      34  108093  108090      33  108096  108090      33  108096  108093
      34  108102  108099      33  108105  108099      33  108105  108102      34
  108111  108108      33  108114  108108      33  108114  108111      34  108120
  108117      33  108123  108117      33  108123  108120      34  108129  108126
      33  108132  108126      33  108132  108129      34  108138  108135      33
  108141  108135      33  108141  108138      34  108147  108144      33  108150
  108144      33  108150  108147      34  108156  108153      33  108159  108153
      33  108159  108156      34  108165  108162      33  108168  108162      33
  108168  108165      34  108174  108171      33  108177  108171      33  108177
  108174      34  108183  108180      33  108186  108180      33  108186  108183
      34  108192  108189      33  108195  108189      33  108195  108192      34
  108201  108198      33  108204  108198      33  108204  108201      34  108210
  108207      33  108213  108207      33  108213  108210      34  108219  108216
      33  108222  108216      33  108222  108219      34  108228  108225      33
  108231  108225      33  108231  108228      34  108237  108234      33  108240
  108234      33  108240  108237      34  108246  108243      33  108249  108243
      33  108249  108246      34  108255  108252      33  108258  108252      33
  108258  108255      34  108264  108261      33  108267  108261      33  108267
  108264      34  108273  108270      33  108276  108270      33  108276  108273
      34  108282  108279      33  108285  108279      33  108285  108282      34
  108291  108288      33  108294  108288      33  108294  108291      34  108300
  108297      33  108303  108297      33  108303  108300      34  108309  108306
      33  108312  108306      33  108312  108309      34  108318  108315      33
  108321  108315      33  108321  108318      34  108327  108324      33  108330
  108324      33  108330  108327      34  108336  108333      33  108339  108333
      33  108339  108336      34  108345  108342      33  108348  108342      33
  108348  108345      34  108354  108351      33  108357  108351      33  108357
  108354      34  108363  108360      33  108366  108360      33  108366  108363
      34  108372  108369      33  108375  108369      33  108375  108372      34
  108381  108378      33  108384  108378      33  108384  108381      34  108390
  108387      33  108393  108387      33  108393  108390      34  108399  108396
      33  108402  108396      33  108402  108399      34  108408  108405      33
  108411  108405      33  108411  108408      34  108417  108414      33  108420
  108414      33  108420  108417      34  108426  108423      33  108429  108423
      33  108429  108426      34  108435  108432      33  108438  108432      33
  108438  108435      34  108444  108441      33  108447  108441      33  108447
  108444      34  108453  108450      33  108456  108450      33  108456  108453
      34  108462  108459      33  108465  108459      33  108465  108462      34
  108471  108468      33  108474  108468      33  108474  108471      34  108480
  108477      33  108483  108477      33  108483  108480      34  108489  108486
      33  108492  108486      33  108492  108489      34  108498  108495      33
  108501  108495      33  108501  108498      34  108507  108504      33  108510
  108504      33  108510  108507      34  108516  108513      33  108519  108513
      33  108519  108516      34  108525  108522      33  108528  108522      33
  108528  108525      34  108534  108531      33  108537  108531      33  108537
  108534      34  108543  108540      33  108546  108540      33  108546  108543
      34  108552  108549      33  108555  108549      33  108555  108552      34
  108561  108558      33  108564  108558      33  108564  108561      34  108570
  108567      33  108573  108567      33  108573  108570      34  108579  108576
      33  108582  108576      33  108582  108579      34  108588  108585      33
  108591  108585      33  108591  108588      34  108597  108594      33  108600
  108594      33  108600  108597      34  108606  108603      33  108609  108603
      33  108609  108606      34  108615  108612      33  108618  108612      33
  108618  108615      34  108624  108621      33  108627  108621      33  108627
  108624      34  108633  108630      33  108636  108630      33  108636  108633
      34  108642  108639      33  108645  108639      33  108645  108642      34
  108651  108648      33  108654  108648      33  108654  108651      34  108660
  108657      33  108663  108657      33  108663  108660      34  108669  108666
      33  108672  108666      33  108672  108669      34  108678  108675      33
  108681  108675      33  108681  108678      34  108687  108684      33  108690
  108684      33  108690  108687      34  108696  108693      33  108699  108693
      33  108699  108696      34  108705  108702      33  108708  108702      33
  108708  108705      34  108714  108711      33  108717  108711      33  108717
  108714      34  108723  108720      33  108726  108720      33  108726  108723
      34  108732  108729      33  108735  108729      33  108735  108732      34
  108741  108738      33  108744  108738      33  108744  108741      34  108750
  108747      33  108753  108747      33  108753  108750      34  108759  108756
      33  108762  108756      33  108762  108759      34  108768  108765      33
  108771  108765      33  108771  108768      34  108777  108774      33  108780
  108774      33  108780  108777      34  108786  108783      33  108789  108783
      33  108789  108786      34  108795  108792      33  108798  108792      33
  108798  108795      34  108804  108801      33  108807  108801      33  108807
  108804      34  108813  108810      33  108816  108810      33  108816  108813
      34  108822  108819      33  108825  108819      33  108825  108822      34
  108831  108828      33  108834  108828      33  108834  108831      34  108840
  108837      33  108843  108837      33  108843  108840      34  108849  108846
      33  108852  108846      33  108852  108849      34  108858  108855      33
  108861  108855      33  108861  108858      34  108867  108864      33  108870
  108864      33  108870  108867      34  108876  108873      33  108879  108873
      33  108879  108876      34  108885  108882      33  108888  108882      33
  108888  108885      34  108894  108891      33  108897  108891      33  108897
  108894      34  108903  108900      33  108906  108900      33  108906  108903
      34  108912  108909      33  108915  108909      33  108915  108912      34
  108921  108918      33  108924  108918      33  108924  108921      34  108930
  108927      33  108933  108927      33  108933  108930      34  108939  108936
      33  108942  108936      33  108942  108939      34  108948  108945      33
  108951  108945      33  108951  108948      34  108957  108954      33  108960
  108954      33  108960  108957      34  108966  108963      33  108969  108963
      33  108969  108966      34  108975  108972      33  108978  108972      33
  108978  108975      34  108984  108981      33  108987  108981      33  108987
  108984      34  108993  108990      33  108996  108990      33  108996  108993
      34  109002  108999      33  109005  108999      33  109005  109002      34
  109011  109008      33  109014  109008      33  109014  109011      34  109020
  109017      33  109023  109017      33  109023  109020      34  109029  109026
      33  109032  109026      33  109032  109029      34  109038  109035      33
  109041  109035      33  109041  109038      34  109047  109044      33  109050
  109044      33  109050  109047      34  109056  109053      33  109059  109053
      33  109059  109056      34  109065  109062      33  109068  109062      33
  109068  109065      34  109074  109071      33  109077  109071      33  109077
  109074      34  109083  109080      33  109086  109080      33  109086  109083
      34  109092  109089      33  109095  109089      33  109095  109092      34
  109101  109098      33  109104  109098      33  109104  109101      34  109110
  109107      33  109113  109107      33  109113  109110      34  109119  109116
      33  109122  109116      33  109122  109119      34  109128  109125      33
  109131  109125      33  109131  109128      34  109137  109134      33  109140
  109134      33  109140  109137      34  109146  109143      33  109149  109143
      33  109149  109146      34  109155  109152      33  109158  109152      33
  109158  109155      34  109164  109161      33  109167  109161      33  109167
  109164      34  109173  109170      33  109176  109170      33  109176  109173
      34  109182  109179      33  109185  109179      33  109185  109182      34
  109191  109188      33  109194  109188      33  109194  109191      34  109200
  109197      33  109203  109197      33  109203  109200      34  109209  109206
      33  109212  109206      33  109212  109209      34  109218  109215      33
  109221  109215      33  109221  109218      34  109227  109224      33  109230
  109224      33  109230  109227      34  109236  109233      33  109239  109233
      33  109239  109236      34  109245  109242      33  109248  109242      33
  109248  109245      34  109254  109251      33  109257  109251      33  109257
  109254      34  109263  109260      33  109266  109260      33  109266  109263
      34  109272  109269      33  109275  109269      33  109275  109272      34
  109281  109278      33  109284  109278      33  109284  109281      34  109290
  109287      33  109293  109287      33  109293  109290      34  109299  109296
      33  109302  109296      33  109302  109299      34  109308  109305      33
  109311  109305      33  109311  109308      34  109317  109314      33  109320
  109314      33  109320  109317      34  109326  109323      33  109329  109323
      33  109329  109326      34  109335  109332      33  109338  109332      33
  109338  109335      34  109344  109341      33  109347  109341      33  109347
  109344      34  109353  109350      33  109356  109350      33  109356  109353
      34  109362  109359      33  109365  109359      33  109365  109362      34
  109371  109368      33  109374  109368      33  109374  109371      34  109380
  109377      33  109383  109377      33  109383  109380      34  109389  109386
      33  109392  109386      33  109392  109389      34  109398  109395      33
  109401  109395      33  109401  109398      34  109407  109404      33  109410
  109404      33  109410  109407      34  109416  109413      33  109419  109413
      33  109419  109416      34  109425  109422      33  109428  109422      33
  109428  109425      34  109434  109431      33  109437  109431      33  109437
  109434      34  109443  109440      33  109446  109440      33  109446  109443
      34  109452  109449      33  109455  109449      33  109455  109452      34
  109461  109458      33  109464  109458      33  109464  109461      34  109470
  109467      33  109473  109467      33  109473  109470      34  109479  109476
      33  109482  109476      33  109482  109479      34  109488  109485      33
  109491  109485      33  109491  109488      34  109497  109494      33  109500
  109494      33  109500  109497      34  109506  109503      33  109509  109503
      33  109509  109506      34  109515  109512      33  109518  109512      33
  109518  109515      34  109524  109521      33  109527  109521      33  109527
  109524      34  109533  109530      33  109536  109530      33  109536  109533
      34  109542  109539      33  109545  109539      33  109545  109542      34
  109551  109548      33  109554  109548      33  109554  109551      34  109560
  109557      33  109563  109557      33  109563  109560      34  109569  109566
      33  109572  109566      33  109572  109569      34  109578  109575      33
  109581  109575      33  109581  109578      34  109587  109584      33  109590
  109584      33  109590  109587      34  109596  109593      33  109599  109593
      33  109599  109596      34  109605  109602      33  109608  109602      33
  109608  109605      34  109614  109611      33  109617  109611      33  109617
  109614      34  109623  109620      33  109626  109620      33  109626  109623
      34  109632  109629      33  109635  109629      33  109635  109632      34
  109641  109638      33  109644  109638      33  109644  109641      34  109650
  109647      33  109653  109647      33  109653  109650      34  109659  109656
      33  109662  109656      33  109662  109659      34  109668  109665      33
  109671  109665      33  109671  109668      34  109677  109674      33  109680
  109674      33  109680  109677      34  109686  109683      33  109689  109683
      33  109689  109686      34  109695  109692      33  109698  109692      33
  109698  109695      34  109704  109701      33  109707  109701      33  109707
  109704      34  109713  109710      33  109716  109710      33  109716  109713
      34  109722  109719      33  109725  109719      33  109725  109722      34
  109731  109728      33  109734  109728      33  109734  109731      34  109740
  109737      33  109743  109737      33  109743  109740      34  109749  109746
      33  109752  109746      33  109752  109749      34  109758  109755      33
  109761  109755      33  109761  109758      34  109767  109764      33  109770
  109764      33  109770  109767      34  109776  109773      33  109779  109773
      33  109779  109776      34  109785  109782      33  109788  109782      33
  109788  109785      34  109794  109791      33  109797  109791      33  109797
  109794      34  109803  109800      33  109806  109800      33  109806  109803
      34  109812  109809      33  109815  109809      33  109815  109812      34
  109821  109818      33  109824  109818      33  109824  109821      34  109830
  109827      33  109833  109827      33  109833  109830      34  109839  109836
      33  109842  109836      33  109842  109839      34  109848  109845      33
  109851  109845      33  109851  109848      34  109857  109854      33  109860
  109854      33  109860  109857      34  109866  109863      33  109869  109863
      33  109869  109866      34  109875  109872      33  109878  109872      33
  109878  109875      34  109884  109881      33  109887  109881      33  109887
  109884      34  109893  109890      33  109896  109890      33  109896  109893
      34  109902  109899      33  109905  109899      33  109905  109902      34
  109911  109908      33  109914  109908      33  109914  109911      34  109920
  109917      33  109923  109917      33  109923  109920      34  109929  109926
      33  109932  109926      33  109932  109929      34  109938  109935      33
  109941  109935      33  109941  109938      34  109947  109944      33  109950
  109944      33  109950  109947      34  109956  109953      33  109959  109953
      33  109959  109956      34  109965  109962      33  109968  109962      33
  109968  109965      34  109974  109971      33  109977  109971      33  109977
  109974      34  109983  109980      33  109986  109980      33  109986  109983
      34  109992  109989      33  109995  109989      33  109995  109992      34
  110001  109998      33  110004  109998      33  110004  110001      34  110010
  110007      33  110013  110007      33  110013  110010      34  110019  110016
      33  110022  110016      33  110022  110019      34  110028  110025      33
  110031  110025      33  110031  110028      34  110037  110034      33  110040
  110034      33  110040  110037      34  110046  110043      33  110049  110043
      33  110049  110046      34  110055  110052      33  110058  110052      33
  110058  110055      34  110064  110061      33  110067  110061      33  110067
  110064      34  110073  110070      33  110076  110070      33  110076  110073
      34  110082  110079      33  110085  110079      33  110085  110082      34
  110091  110088      33  110094  110088      33  110094  110091      34  110100
  110097      33  110103  110097      33  110103  110100      34  110109  110106
      33  110112  110106      33  110112  110109      34  110118  110115      33
  110121  110115      33  110121  110118      34  110127  110124      33  110130
  110124      33  110130  110127      34  110136  110133      33  110139  110133
      33  110139  110136      34  110145  110142      33  110148  110142      33
  110148  110145      34  110154  110151      33  110157  110151      33  110157
  110154      34  110163  110160      33  110166  110160      33  110166  110163
      34  110172  110169      33  110175  110169      33  110175  110172      34
  110181  110178      33  110184  110178      33  110184  110181      34  110190
  110187      33  110193  110187      33  110193  110190      34  110199  110196
      33  110202  110196      33  110202  110199      34  110208  110205      33
  110211  110205      33  110211  110208      34  110217  110214      33  110220
  110214      33  110220  110217      34  110226  110223      33  110229  110223
      33  110229  110226      34  110235  110232      33  110238  110232      33
  110238  110235      34  110244  110241      33  110247  110241      33  110247
  110244      34  110253  110250      33  110256  110250      33  110256  110253
      34  110262  110259      33  110265  110259      33  110265  110262      34
  110271  110268      33  110274  110268      33  110274  110271      34  110280
  110277      33  110283  110277      33  110283  110280      34  110289  110286
      33  110292  110286      33  110292  110289      34  110298  110295      33
  110301  110295      33  110301  110298      34  110307  110304      33  110310
  110304      33  110310  110307      34  110316  110313      33  110319  110313
      33  110319  110316      34  110325  110322      33  110328  110322      33
  110328  110325      34  110334  110331      33  110337  110331      33  110337
  110334      34  110343  110340      33  110346  110340      33  110346  110343
      34  110352  110349      33  110355  110349      33  110355  110352      34
  110361  110358      33  110364  110358      33  110364  110361      34  110370
  110367      33  110373  110367      33  110373  110370      34  110379  110376
      33  110382  110376      33  110382  110379      34  110388  110385      33
  110391  110385      33  110391  110388      34  110397  110394      33  110400
  110394      33  110400  110397      34  110406  110403      33  110409  110403
      33  110409  110406      34  110415  110412      33  110418  110412      33
  110418  110415      34  110424  110421      33  110427  110421      33  110427
  110424      34  110433  110430      33  110436  110430      33  110436  110433
      34  110442  110439      33  110445  110439      33  110445  110442      34
  110451  110448      33  110454  110448      33  110454  110451      34  110460
  110457      33  110463  110457      33  110463  110460      34  110469  110466
      33  110472  110466      33  110472  110469      34  110478  110475      33
  110481  110475      33  110481  110478      34  110487  110484      33  110490
  110484      33  110490  110487      34  110496  110493      33  110499  110493
      33  110499  110496      34  110505  110502      33  110508  110502      33
  110508  110505      34  110514  110511      33  110517  110511      33  110517
  110514      34  110523  110520      33  110526  110520      33  110526  110523
      34  110532  110529      33  110535  110529      33  110535  110532      34
  110541  110538      33  110544  110538      33  110544  110541      34  110550
  110547      33  110553  110547      33  110553  110550      34  110559  110556
      33  110562  110556      33  110562  110559      34  110568  110565      33
  110571  110565      33  110571  110568      34  110577  110574      33  110580
  110574      33  110580  110577      34  110586  110583      33  110589  110583
      33  110589  110586      34  110595  110592      33  110598  110592      33
  110598  110595      34  110604  110601      33  110607  110601      33  110607
  110604      34  110613  110610      33  110616  110610      33  110616  110613
      34  110622  110619      33  110625  110619      33  110625  110622      34
  110631  110628      33  110634  110628      33  110634  110631      34  110640
  110637      33  110643  110637      33  110643  110640      34  110649  110646
      33  110652  110646      33  110652  110649      34  110658  110655      33
  110661  110655      33  110661  110658      34  110667  110664      33  110670
  110664      33  110670  110667      34  110676  110673      33  110679  110673
      33  110679  110676      34  110685  110682      33  110688  110682      33
  110688  110685      34  110694  110691      33  110697  110691      33  110697
  110694      34  110703  110700      33  110706  110700      33  110706  110703
      34  110712  110709      33  110715  110709      33  110715  110712      34
  110721  110718      33  110724  110718      33  110724  110721      34  110730
  110727      33  110733  110727      33  110733  110730      34  110739  110736
      33  110742  110736      33  110742  110739      34  110748  110745      33
  110751  110745      33  110751  110748      34  110757  110754      33  110760
  110754      33  110760  110757      34  110766  110763      33  110769  110763
      33  110769  110766      34  110775  110772      33  110778  110772      33
  110778  110775      34  110784  110781      33  110787  110781      33  110787
  110784      34  110793  110790      33  110796  110790      33  110796  110793
      34  110802  110799      33  110805  110799      33  110805  110802      34
  110811  110808      33  110814  110808      33  110814  110811      34  110820
  110817      33  110823  110817      33  110823  110820      34  110829  110826
      33  110832  110826      33  110832  110829      34  110838  110835      33
  110841  110835      33  110841  110838      34  110847  110844      33  110850
  110844      33  110850  110847      34  110856  110853      33  110859  110853
      33  110859  110856      34  110865  110862      33  110868  110862      33
  110868  110865      34  110874  110871      33  110877  110871      33  110877
  110874      34  110883  110880      33  110886  110880      33  110886  110883
      34  110892  110889      33  110895  110889      33  110895  110892      34
  110901  110898      33  110904  110898      33  110904  110901      34  110910
  110907      33  110913  110907      33  110913  110910      34  110919  110916
      33  110922  110916      33  110922  110919      34  110928  110925      33
  110931  110925      33  110931  110928      34  110937  110934      33  110940
  110934      33  110940  110937      34  110946  110943      33  110949  110943
      33  110949  110946      34  110955  110952      33  110958  110952      33
  110958  110955      34  110964  110961      33  110967  110961      33  110967
  110964      34  110973  110970      33  110976  110970      33  110976  110973
      34  110982  110979      33  110985  110979      33  110985  110982      34
  110991  110988      33  110994  110988      33  110994  110991      34  111000
  110997      33  111003  110997      33  111003  111000      34  111009  111006
      33  111012  111006      33  111012  111009      34  111018  111015      33
  111021  111015      33  111021  111018      34  111027  111024      33  111030
  111024      33  111030  111027      34  111036  111033      33  111039  111033
      33  111039  111036      34  111045  111042      33  111048  111042      33
  111048  111045      34  111054  111051      33  111057  111051      33  111057
  111054      34  111063  111060      33  111066  111060      33  111066  111063
      34  111072  111069      33  111075  111069      33  111075  111072      34
  111081  111078      33  111084  111078      33  111084  111081      34  111090
  111087      33  111093  111087      33  111093  111090      34  111099  111096
      33  111102  111096      33  111102  111099      34  111108  111105      33
  111111  111105      33  111111  111108      34  111117  111114      33  111120
  111114      33  111120  111117      34  111126  111123      33  111129  111123
      33  111129  111126      34  111135  111132      33  111138  111132      33
  111138  111135      34  111144  111141      33  111147  111141      33  111147
  111144      34  111153  111150      33  111156  111150      33  111156  111153
      34  111162  111159      33  111165  111159      33  111165  111162      34
  111171  111168      33  111174  111168      33  111174  111171      34  111180
  111177      33  111183  111177      33  111183  111180      34  111189  111186
      33  111192  111186      33  111192  111189      34  111198  111195      33
  111201  111195      33  111201  111198      34  111207  111204      33  111210
  111204      33  111210  111207      34  111216  111213      33  111219  111213
      33  111219  111216      34  111225  111222      33  111228  111222      33
  111228  111225      34  111234  111231      33  111237  111231      33  111237
  111234      34  111243  111240      33  111246  111240      33  111246  111243
      34  111252  111249      33  111255  111249      33  111255  111252      34
  111261  111258      33  111264  111258      33  111264  111261      34  111270
  111267      33  111273  111267      33  111273  111270      34  111279  111276
      33  111282  111276      33  111282  111279      34  111288  111285      33
  111291  111285      33  111291  111288      34  111297  111294      33  111300
  111294      33  111300  111297      34  111306  111303      33  111309  111303
      33  111309  111306      34  111315  111312      33  111318  111312      33
  111318  111315      34  111324  111321      33  111327  111321      33  111327
  111324      34  111333  111330      33  111336  111330      33  111336  111333
      34  111342  111339      33  111345  111339      33  111345  111342      34
  111351  111348      33  111354  111348      33  111354  111351      34  111360
  111357      33  111363  111357      33  111363  111360      34  111369  111366
      33  111372  111366      33  111372  111369      34  111378  111375      33
  111381  111375      33  111381  111378      34  111387  111384      33  111390
  111384      33  111390  111387      34  111396  111393      33  111399  111393
      33  111399  111396      34  111405  111402      33  111408  111402      33
  111408  111405      34  111414  111411      33  111417  111411      33  111417
  111414      34  111423  111420      33  111426  111420      33  111426  111423
      34  111432  111429      33  111435  111429      33  111435  111432      34
  111441  111438      33  111444  111438      33  111444  111441      34  111450
  111447      33  111453  111447      33  111453  111450      34  111459  111456
      33  111462  111456      33  111462  111459      34  111468  111465      33
  111471  111465      33  111471  111468      34  111477  111474      33  111480
  111474      33  111480  111477      34  111486  111483      33  111489  111483
      33  111489  111486      34  111495  111492      33  111498  111492      33
  111498  111495      34  111504  111501      33  111507  111501      33  111507
  111504      34  111513  111510      33  111516  111510      33  111516  111513
      34  111522  111519      33  111525  111519      33  111525  111522      34
  111531  111528      33  111534  111528      33  111534  111531      34  111540
  111537      33  111543  111537      33  111543  111540      34  111549  111546
      33  111552  111546      33  111552  111549      34  111558  111555      33
  111561  111555      33  111561  111558      34  111567  111564      33  111570
  111564      33  111570  111567      34  111576  111573      33  111579  111573
      33  111579  111576      34  111585  111582      33  111588  111582      33
  111588  111585      34  111594  111591      33  111597  111591      33  111597
  111594      34  111603  111600      33  111606  111600      33  111606  111603
      34  111612  111609      33  111615  111609      33  111615  111612      34
  111621  111618      33  111624  111618      33  111624  111621      34  111630
  111627      33  111633  111627      33  111633  111630      34  111639  111636
      33  111642  111636      33  111642  111639      34  111648  111645      33
  111651  111645      33  111651  111648      34  111657  111654      33  111660
  111654      33  111660  111657      34  111666  111663      33  111669  111663
      33  111669  111666      34  111675  111672      33  111678  111672      33
  111678  111675      34  111684  111681      33  111687  111681      33  111687
  111684      34  111693  111690      33  111696  111690      33  111696  111693
      34  111702  111699      33  111705  111699      33  111705  111702      34
  111711  111708      33  111714  111708      33  111714  111711      34  111720
  111717      33  111723  111717      33  111723  111720      34  111729  111726
      33  111732  111726      33  111732  111729      34  111738  111735      33
  111741  111735      33  111741  111738      34  111747  111744      33  111750
  111744      33  111750  111747      34  111756  111753      33  111759  111753
      33  111759  111756      34  111765  111762      33  111768  111762      33
  111768  111765      34  111774  111771      33  111777  111771      33  111777
  111774      34  111783  111780      33  111786  111780      33  111786  111783
      34  111792  111789      33  111795  111789      33  111795  111792      34
  111801  111798      33  111804  111798      33  111804  111801      34  111810
  111807      33  111813  111807      33  111813  111810      34  111819  111816
      33  111822  111816      33  111822  111819      34  111828  111825      33
  111831  111825      33  111831  111828      34  111837  111834      33  111840
  111834      33  111840  111837      34  111846  111843      33  111849  111843
      33  111849  111846      34  111855  111852      33  111858  111852      33
  111858  111855      34  111864  111861      33  111867  111861      33  111867
  111864      34  111873  111870      33  111876  111870      33  111876  111873
      34  111882  111879      33  111885  111879      33  111885  111882      34
  111891  111888      33  111894  111888      33  111894  111891      34  111900
  111897      33  111903  111897      33  111903  111900      34  111909  111906
      33  111912  111906      33  111912  111909      34  111918  111915      33
  111921  111915      33  111921  111918      34  111927  111924      33  111930
  111924      33  111930  111927      34  111936  111933      33  111939  111933
      33  111939  111936      34  111945  111942      33  111948  111942      33
  111948  111945      34  111954  111951      33  111957  111951      33  111957
  111954      34  111963  111960      33  111966  111960      33  111966  111963
      34  111972  111969      33  111975  111969      33  111975  111972      34
  111981  111978      33  111984  111978      33  111984  111981      34  111990
  111987      33  111993  111987      33  111993  111990      34  111999  111996
      33  112002  111996      33  112002  111999      34  112008  112005      33
  112011  112005      33  112011  112008      34  112017  112014      33  112020
  112014      33  112020  112017      34  112026  112023      33  112029  112023
      33  112029  112026      34  112035  112032      33  112038  112032      33
  112038  112035      34  112044  112041      33  112047  112041      33  112047
  112044      34  112053  112050      33  112056  112050      33  112056  112053
      34  112062  112059      33  112065  112059      33  112065  112062      34
  112071  112068      33  112074  112068      33  112074  112071      34  112080
  112077      33  112083  112077      33  112083  112080      34  112089  112086
      33  112092  112086      33  112092  112089      34  112098  112095      33
  112101  112095      33  112101  112098      34  112107  112104      33  112110
  112104      33  112110  112107      34  112116  112113      33  112119  112113
      33  112119  112116      34  112125  112122      33  112128  112122      33
  112128  112125      34  112134  112131      33  112137  112131      33  112137
  112134      34  112143  112140      33  112146  112140      33  112146  112143
      34  112152  112149      33  112155  112149      33  112155  112152      34
  112161  112158      33  112164  112158      33  112164  112161      34  112170
  112167      33  112173  112167      33  112173  112170      34  112179  112176
      33  112182  112176      33  112182  112179      34  112188  112185      33
  112191  112185      33  112191  112188      34  112197  112194      33  112200
  112194      33  112200  112197      34  112206  112203      33  112209  112203
      33  112209  112206      34  112215  112212      33  112218  112212      33
  112218  112215      34  112224  112221      33  112227  112221      33  112227
  112224      34  112233  112230      33  112236  112230      33  112236  112233
      34  112242  112239      33  112245  112239      33  112245  112242      34
  112251  112248      33  112254  112248      33  112254  112251      34  112260
  112257      33  112263  112257      33  112263  112260      34  112269  112266
      33  112272  112266      33  112272  112269      34  112278  112275      33
  112281  112275      33  112281  112278      34  112287  112284      33  112290
  112284      33  112290  112287      34  112296  112293      33  112299  112293
      33  112299  112296      34  112305  112302      33  112308  112302      33
  112308  112305      34  112314  112311      33  112317  112311      33  112317
  112314      34  112323  112320      33  112326  112320      33  112326  112323
      34  112332  112329      33  112335  112329      33  112335  112332      34
  112341  112338      33  112344  112338      33  112344  112341      34  112350
  112347      33  112353  112347      33  112353  112350      34  112359  112356
      33  112362  112356      33  112362  112359      34  112368  112365      33
  112371  112365      33  112371  112368      34  112377  112374      33  112380
  112374      33  112380  112377      34  112386  112383      33  112389  112383
      33  112389  112386      34  112395  112392      33  112398  112392      33
  112398  112395      34  112404  112401      33  112407  112401      33  112407
  112404      34  112413  112410      33  112416  112410      33  112416  112413
      34  112422  112419      33  112425  112419      33  112425  112422      34
  112431  112428      33  112434  112428      33  112434  112431      34  112440
  112437      33  112443  112437      33  112443  112440      34  112449  112446
      33  112452  112446      33  112452  112449      34  112458  112455      33
  112461  112455      33  112461  112458      34  112467  112464      33  112470
  112464      33  112470  112467      34  112476  112473      33  112479  112473
      33  112479  112476      34  112485  112482      33  112488  112482      33
  112488  112485      34  112494  112491      33  112497  112491      33  112497
  112494      34  112503  112500      33  112506  112500      33  112506  112503
      34  112512  112509      33  112515  112509      33  112515  112512      34
  112521  112518      33  112524  112518      33  112524  112521      34  112530
  112527      33  112533  112527      33  112533  112530      34  112539  112536
      33  112542  112536      33  112542  112539      34  112548  112545      33
  112551  112545      33  112551  112548      34  112557  112554      33  112560
  112554      33  112560  112557      34  112566  112563      33  112569  112563
      33  112569  112566      34  112575  112572      33  112578  112572      33
  112578  112575      34  112584  112581      33  112587  112581      33  112587
  112584      34  112593  112590      33  112596  112590      33  112596  112593
      34  112602  112599      33  112605  112599      33  112605  112602      34
  112611  112608      33  112614  112608      33  112614  112611      34  112620
  112617      33  112623  112617      33  112623  112620      34  112629  112626
      33  112632  112626      33  112632  112629      34  112638  112635      33
  112641  112635      33  112641  112638      34  112647  112644      33  112650
  112644      33  112650  112647      34  112656  112653      33  112659  112653
      33  112659  112656      34  112665  112662      33  112668  112662      33
  112668  112665      34  112674  112671      33  112677  112671      33  112677
  112674      34  112683  112680      33  112686  112680      33  112686  112683
      34  112692  112689      33  112695  112689      33  112695  112692      34
  112701  112698      33  112704  112698      33  112704  112701      34  112710
  112707      33  112713  112707      33  112713  112710      34  112719  112716
      33  112722  112716      33  112722  112719      34  112728  112725      33
  112731  112725      33  112731  112728      34  112737  112734      33  112740
  112734      33  112740  112737      34  112746  112743      33  112749  112743
      33  112749  112746      34  112755  112752      33  112758  112752      33
  112758  112755      34  112764  112761      33  112767  112761      33  112767
  112764      34  112773  112770      33  112776  112770      33  112776  112773
      34  112782  112779      33  112785  112779      33  112785  112782      34
  112791  112788      33  112794  112788      33  112794  112791      34  112800
  112797      33  112803  112797      33  112803  112800      34  112809  112806
      33  112812  112806      33  112812  112809      34  112818  112815      33
  112821  112815      33  112821  112818      34  112827  112824      33  112830
  112824      33  112830  112827      34  112836  112833      33  112839  112833
      33  112839  112836      34  112845  112842      33  112848  112842      33
  112848  112845      34  112854  112851      33  112857  112851      33  112857
  112854      34  112863  112860      33  112866  112860      33  112866  112863
      34  112872  112869      33  112875  112869      33  112875  112872      34
  112881  112878      33  112884  112878      33  112884  112881      34  112890
  112887      33  112893  112887      33  112893  112890      34  112899  112896
      33  112902  112896      33  112902  112899      34  112908  112905      33
  112911  112905      33  112911  112908      34  112917  112914      33  112920
  112914      33  112920  112917      34  112926  112923      33  112929  112923
      33  112929  112926      34  112935  112932      33  112938  112932      33
  112938  112935      34  112944  112941      33  112947  112941      33  112947
  112944      34  112953  112950      33  112956  112950      33  112956  112953
      34  112962  112959      33  112965  112959      33  112965  112962      34
  112971  112968      33  112974  112968      33  112974  112971      34  112980
  112977      33  112983  112977      33  112983  112980      34  112989  112986
      33  112992  112986      33  112992  112989      34  112998  112995      33
  113001  112995      33  113001  112998      34  113007  113004      33  113010
  113004      33  113010  113007      34  113016  113013      33  113019  113013
      33  113019  113016      34  113025  113022      33  113028  113022      33
  113028  113025      34  113034  113031      33  113037  113031      33  113037
  113034      34  113043  113040      33  113046  113040      33  113046  113043
      34  113052  113049      33  113055  113049      33  113055  113052      34
  113061  113058      33  113064  113058      33  113064  113061      34  113070
  113067      33  113073  113067      33  113073  113070      34  113079  113076
      33  113082  113076      33  113082  113079      34  113088  113085      33
  113091  113085      33  113091  113088      34  113097  113094      33  113100
  113094      33  113100  113097      34  113106  113103      33  113109  113103
      33  113109  113106      34  113115  113112      33  113118  113112      33
  113118  113115      34  113124  113121      33  113127  113121      33  113127
  113124      34  113133  113130      33  113136  113130      33  113136  113133
      34  113142  113139      33  113145  113139      33  113145  113142      34
  113151  113148      33  113154  113148      33  113154  113151      34  113160
  113157      33  113163  113157      33  113163  113160      34  113169  113166
      33  113172  113166      33  113172  113169      34  113178  113175      33
  113181  113175      33  113181  113178      34  113187  113184      33  113190
  113184      33  113190  113187      34  113196  113193      33  113199  113193
      33  113199  113196      34  113205  113202      33  113208  113202      33
  113208  113205      34  113214  113211      33  113217  113211      33  113217
  113214      34  113223  113220      33  113226  113220      33  113226  113223
      34  113232  113229      33  113235  113229      33  113235  113232      34
  113241  113238      33  113244  113238      33  113244  113241      34  113250
  113247      33  113253  113247      33  113253  113250      34  113259  113256
      33  113262  113256      33  113262  113259      34  113268  113265      33
  113271  113265      33  113271  113268      34  113277  113274      33  113280
  113274      33  113280  113277      34  113286  113283      33  113289  113283
      33  113289  113286      34  113295  113292      33  113298  113292      33
  113298  113295      34  113304  113301      33  113307  113301      33  113307
  113304      34  113313  113310      33  113316  113310      33  113316  113313
      34  113322  113319      33  113325  113319      33  113325  113322      34
  113331  113328      33  113334  113328      33  113334  113331      34  113340
  113337      33  113343  113337      33  113343  113340      34  113349  113346
      33  113352  113346      33  113352  113349      34  113358  113355      33
  113361  113355      33  113361  113358      34  113367  113364      33  113370
  113364      33  113370  113367      34  113376  113373      33  113379  113373
      33  113379  113376      34  113385  113382      33  113388  113382      33
  113388  113385      34  113394  113391      33  113397  113391      33  113397
  113394      34  113403  113400      33  113406  113400      33  113406  113403
      34  113412  113409      33  113415  113409      33  113415  113412      34
  113421  113418      33  113424  113418      33  113424  113421      34  113430
  113427      33  113433  113427      33  113433  113430      34  113439  113436
      33  113442  113436      33  113442  113439      34  113448  113445      33
  113451  113445      33  113451  113448      34  113457  113454      33  113460
  113454      33  113460  113457      34  113466  113463      33  113469  113463
      33  113469  113466      34  113475  113472      33  113478  113472      33
  113478  113475      34  113484  113481      33  113487  113481      33  113487
  113484      34  113493  113490      33  113496  113490      33  113496  113493
      34  113502  113499      33  113505  113499      33  113505  113502      34
  113511  113508      33  113514  113508      33  113514  113511      34  113520
  113517      33  113523  113517      33  113523  113520      34  113529  113526
      33  113532  113526      33  113532  113529      34  113538  113535      33
  113541  113535      33  113541  113538      34  113547  113544      33  113550
  113544      33  113550  113547      34  113556  113553      33  113559  113553
      33  113559  113556      34  113565  113562      33  113568  113562      33
  113568  113565      34  113574  113571      33  113577  113571      33  113577
  113574      34  113583  113580      33  113586  113580      33  113586  113583
      34  113592  113589      33  113595  113589      33  113595  113592      34
  113601  113598      33  113604  113598      33  113604  113601      34  113610
  113607      33  113613  113607      33  113613  113610      34  113619  113616
      33  113622  113616      33  113622  113619      34  113628  113625      33
  113631  113625      33  113631  113628      34  113637  113634      33  113640
  113634      33  113640  113637      34  113646  113643      33  113649  113643
      33  113649  113646      34  113655  113652      33  113658  113652      33
  113658  113655      34  113664  113661      33  113667  113661      33  113667
  113664      34  113673  113670      33  113676  113670      33  113676  113673
      34  113682  113679      33  113685  113679      33  113685  113682      34
  113691  113688      33  113694  113688      33  113694  113691      34  113700
  113697      33  113703  113697      33  113703  113700      34  113709  113706
      33  113712  113706      33  113712  113709      34  113718  113715      33
  113721  113715      33  113721  113718      34  113727  113724      33  113730
  113724      33  113730  113727      34  113736  113733      33  113739  113733
      33  113739  113736      34  113745  113742      33  113748  113742      33
  113748  113745      34  113754  113751      33  113757  113751      33  113757
  113754      34  113763  113760      33  113766  113760      33  113766  113763
      34  113772  113769      33  113775  113769      33  113775  113772      34
  113781  113778      33  113784  113778      33  113784  113781      34  113790
  113787      33  113793  113787      33  113793  113790      34  113799  113796
      33  113802  113796      33  113802  113799      34  113808  113805      33
  113811  113805      33  113811  113808      34  113817  113814      33  113820
  113814      33  113820  113817      34  113826  113823      33  113829  113823
      33  113829  113826      34  113835  113832      33  113838  113832      33
  113838  113835      34  113844  113841      33  113847  113841      33  113847
  113844      34  113853  113850      33  113856  113850      33  113856  113853
      34  113862  113859      33  113865  113859      33  113865  113862      34
  113871  113868      33  113874  113868      33  113874  113871      34  113880
  113877      33  113883  113877      33  113883  113880      34  113889  113886
      33  113892  113886      33  113892  113889      34  113898  113895      33
  113901  113895      33  113901  113898      34  113907  113904      33  113910
  113904      33  113910  113907      34  113916  113913      33  113919  113913
      33  113919  113916      34  113925  113922      33  113928  113922      33
  113928  113925      34  113934  113931      33  113937  113931      33  113937
  113934      34  113943  113940      33  113946  113940      33  113946  113943
      34  113952  113949      33  113955  113949      33  113955  113952      34
  113961  113958      33  113964  113958      33  113964  113961      34  113970
  113967      33  113973  113967      33  113973  113970      34  113979  113976
      33  113982  113976      33  113982  113979      34  113988  113985      33
  113991  113985      33  113991  113988      34  113997  113994      33  114000
  113994      33  114000  113997      34  114006  114003      33  114009  114003
      33  114009  114006      34  114015  114012      33  114018  114012      33
  114018  114015      34  114024  114021      33  114027  114021      33  114027
  114024      34  114033  114030      33  114036  114030      33  114036  114033
      34  114042  114039      33  114045  114039      33  114045  114042      34
  114051  114048      33  114054  114048      33  114054  114051      34  114060
  114057      33  114063  114057      33  114063  114060      34  114069  114066
      33  114072  114066      33  114072  114069      34  114078  114075      33
  114081  114075      33  114081  114078      34  114087  114084      33  114090
  114084      33  114090  114087      34  114096  114093      33  114099  114093
      33  114099  114096      34  114105  114102      33  114108  114102      33
  114108  114105      34  114114  114111      33  114117  114111      33  114117
  114114      34  114123  114120      33  114126  114120      33  114126  114123
      34  114132  114129      33  114135  114129      33  114135  114132      34
  114141  114138      33  114144  114138      33  114144  114141      34  114150
  114147      33  114153  114147      33  114153  114150      34  114159  114156
      33  114162  114156      33  114162  114159      34  114168  114165      33
  114171  114165      33  114171  114168      34  114177  114174      33  114180
  114174      33  114180  114177      34  114186  114183      33  114189  114183
      33  114189  114186      34  114195  114192      33  114198  114192      33
  114198  114195      34  114204  114201      33  114207  114201      33  114207
  114204      34  114213  114210      33  114216  114210      33  114216  114213
      34  114222  114219      33  114225  114219      33  114225  114222      34
  114231  114228      33  114234  114228      33  114234  114231      34  114240
  114237      33  114243  114237      33  114243  114240      34  114249  114246
      33  114252  114246      33  114252  114249      34  114258  114255      33
  114261  114255      33  114261  114258      34  114267  114264      33  114270
  114264      33  114270  114267      34  114276  114273      33  114279  114273
      33  114279  114276      34  114285  114282      33  114288  114282      33
  114288  114285      34  114294  114291      33  114297  114291      33  114297
  114294      34  114303  114300      33  114306  114300      33  114306  114303
      34  114312  114309      33  114315  114309      33  114315  114312      34
  114321  114318      33  114324  114318      33  114324  114321      34  114330
  114327      33  114333  114327      33  114333  114330      34  114339  114336
      33  114342  114336      33  114342  114339      34  114348  114345      33
  114351  114345      33  114351  114348      34  114357  114354      33  114360
  114354      33  114360  114357      34  114366  114363      33  114369  114363
      33  114369  114366      34  114375  114372      33  114378  114372      33
  114378  114375      34  114384  114381      33  114387  114381      33  114387
  114384      34  114393  114390      33  114396  114390      33  114396  114393
      34  114402  114399      33  114405  114399      33  114405  114402      34
  114411  114408      33  114414  114408      33  114414  114411      34  114420
  114417      33  114423  114417      33  114423  114420      34  114429  114426
      33  114432  114426      33  114432  114429      34  114438  114435      33
  114441  114435      33  114441  114438      34  114447  114444      33  114450
  114444      33  114450  114447      34  114456  114453      33  114459  114453
      33  114459  114456      34  114465  114462      33  114468  114462      33
  114468  114465      34  114474  114471      33  114477  114471      33  114477
  114474      34  114483  114480      33  114486  114480      33  114486  114483
      34  114492  114489      33  114495  114489      33  114495  114492      34
  114501  114498      33  114504  114498      33  114504  114501      34  114510
  114507      33  114513  114507      33  114513  114510      34  114519  114516
      33  114522  114516      33  114522  114519      34  114528  114525      33
  114531  114525      33  114531  114528      34  114537  114534      33  114540
  114534      33  114540  114537      34  114546  114543      33  114549  114543
      33  114549  114546      34  114555  114552      33  114558  114552      33
  114558  114555      34  114564  114561      33  114567  114561      33  114567
  114564      34  114573  114570      33  114576  114570      33  114576  114573
      34  114582  114579      33  114585  114579      33  114585  114582      34
  114591  114588      33  114594  114588      33  114594  114591      34  114600
  114597      33  114603  114597      33  114603  114600      34  114609  114606
      33  114612  114606      33  114612  114609      34  114618  114615      33
  114621  114615      33  114621  114618      34  114627  114624      33  114630
  114624      33  114630  114627      34  114636  114633      33  114639  114633
      33  114639  114636      34  114645  114642      33  114648  114642      33
  114648  114645      34  114654  114651      33  114657  114651      33  114657
  114654      34  114663  114660      33  114666  114660      33  114666  114663
      34  114672  114669      33  114675  114669      33  114675  114672      34
  114681  114678      33  114684  114678      33  114684  114681      34  114690
  114687      33  114693  114687      33  114693  114690      34  114699  114696
      33  114702  114696      33  114702  114699      34  114708  114705      33
  114711  114705      33  114711  114708      34  114717  114714      33  114720
  114714      33  114720  114717      34  114726  114723      33  114729  114723
      33  114729  114726      34  114735  114732      33  114738  114732      33
  114738  114735      34  114744  114741      33  114747  114741      33  114747
  114744      34  114753  114750      33  114756  114750      33  114756  114753
      34  114762  114759      33  114765  114759      33  114765  114762      34
  114771  114768      33  114774  114768      33  114774  114771      34  114780
  114777      33  114783  114777      33  114783  114780      34  114789  114786
      33  114792  114786      33  114792  114789      34  114798  114795      33
  114801  114795      33  114801  114798      34  114807  114804      33  114810
  114804      33  114810  114807      34  114816  114813      33  114819  114813
      33  114819  114816      34  114825  114822      33  114828  114822      33
  114828  114825      34  114834  114831      33  114837  114831      33  114837
  114834      34  114843  114840      33  114846  114840      33  114846  114843
      34  114852  114849      33  114855  114849      33  114855  114852      34
  114861  114858      33  114864  114858      33  114864  114861      34  114870
  114867      33  114873  114867      33  114873  114870      34  114879  114876
      33  114882  114876      33  114882  114879      34  114888  114885      33
  114891  114885      33  114891  114888      34  114897  114894      33  114900
  114894      33  114900  114897      34  114906  114903      33  114909  114903
      33  114909  114906      34  114915  114912      33  114918  114912      33
  114918  114915      34  114924  114921      33  114927  114921      33  114927
  114924      34  114933  114930      33  114936  114930      33  114936  114933
      34  114942  114939      33  114945  114939      33  114945  114942      34
  114951  114948      33  114954  114948      33  114954  114951      34  114960
  114957      33  114963  114957      33  114963  114960      34  114969  114966
      33  114972  114966      33  114972  114969      34  114978  114975      33
  114981  114975      33  114981  114978      34  114987  114984      33  114990
  114984      33  114990  114987      34  114996  114993      33  114999  114993
      33  114999  114996      34  115005  115002      33  115008  115002      33
  115008  115005      34  115014  115011      33  115017  115011      33  115017
  115014      34  115023  115020      33  115026  115020      33  115026  115023
      34  115032  115029      33  115035  115029      33  115035  115032      34
  115041  115038      33  115044  115038      33  115044  115041      34  115050
  115047      33  115053  115047      33  115053  115050      34  115059  115056
      33  115062  115056      33  115062  115059      34  115068  115065      33
  115071  115065      33  115071  115068      34  115077  115074      33  115080
  115074      33  115080  115077      34  115086  115083      33  115089  115083
      33  115089  115086      34  115095  115092      33  115098  115092      33
  115098  115095      34  115104  115101      33  115107  115101      33  115107
  115104      34  115113  115110      33  115116  115110      33  115116  115113
      34  115122  115119      33  115125  115119      33  115125  115122      34
  115131  115128      33  115134  115128      33  115134  115131      34  115140
  115137      33  115143  115137      33  115143  115140      34  115149  115146
      33  115152  115146      33  115152  115149      34  115158  115155      33
  115161  115155      33  115161  115158      34  115167  115164      33  115170
  115164      33  115170  115167      34  115176  115173      33  115179  115173
      33  115179  115176      34  115185  115182      33  115188  115182      33
  115188  115185      34  115194  115191      33  115197  115191      33  115197
  115194      34  115203  115200      33  115206  115200      33  115206  115203
      34  115212  115209      33  115215  115209      33  115215  115212      34
  115221  115218      33  115224  115218      33  115224  115221      34  115230
  115227      33  115233  115227      33  115233  115230      34  115239  115236
      33  115242  115236      33  115242  115239      34  115248  115245      33
  115251  115245      33  115251  115248      34  115257  115254      33  115260
  115254      33  115260  115257      34  115266  115263      33  115269  115263
      33  115269  115266      34  115275  115272      33  115278  115272      33
  115278  115275      34  115284  115281      33  115287  115281      33  115287
  115284      34  115293  115290      33  115296  115290      33  115296  115293
      34  115302  115299      33  115305  115299      33  115305  115302      34
  115311  115308      33  115314  115308      33  115314  115311      34  115320
  115317      33  115323  115317      33  115323  115320      34  115329  115326
      33  115332  115326      33  115332  115329      34  115338  115335      33
  115341  115335      33  115341  115338      34  115347  115344      33  115350
  115344      33  115350  115347      34  115356  115353      33  115359  115353
      33  115359  115356      34  115365  115362      33  115368  115362      33
  115368  115365      34  115374  115371      33  115377  115371      33  115377
  115374      34  115383  115380      33  115386  115380      33  115386  115383
      34  115392  115389      33  115395  115389      33  115395  115392      34
  115401  115398      33  115404  115398      33  115404  115401      34  115410
  115407      33  115413  115407      33  115413  115410      34  115419  115416
      33  115422  115416      33  115422  115419      34  115428  115425      33
  115431  115425      33  115431  115428      34  115437  115434      33  115440
  115434      33  115440  115437      34  115446  115443      33  115449  115443
      33  115449  115446      34  115455  115452      33  115458  115452      33
  115458  115455      34  115464  115461      33  115467  115461      33  115467
  115464      34  115473  115470      33  115476  115470      33  115476  115473
      34  115482  115479      33  115485  115479      33  115485  115482      34
  115491  115488      33  115494  115488      33  115494  115491      34  115500
  115497      33  115503  115497      33  115503  115500      34  115509  115506
      33  115512  115506      33  115512  115509      34  115518  115515      33
  115521  115515      33  115521  115518      34  115527  115524      33  115530
  115524      33  115530  115527      34  115536  115533      33  115539  115533
      33  115539  115536      34  115545  115542      33  115548  115542      33
  115548  115545      34  115554  115551      33  115557  115551      33  115557
  115554      34  115563  115560      33  115566  115560      33  115566  115563
      34  115572  115569      33  115575  115569      33  115575  115572      34
  115581  115578      33  115584  115578      33  115584  115581      34  115590
  115587      33  115593  115587      33  115593  115590      34  115599  115596
      33  115602  115596      33  115602  115599      34  115608  115605      33
  115611  115605      33  115611  115608      34  115617  115614      33  115620
  115614      33  115620  115617      34  115626  115623      33  115629  115623
      33  115629  115626      34  115635  115632      33  115638  115632      33
  115638  115635      34  115644  115641      33  115647  115641      33  115647
  115644      34  115653  115650      33  115656  115650      33  115656  115653
      34  115662  115659      33  115665  115659      33  115665  115662      34
  115671  115668      33  115674  115668      33  115674  115671      34  115680
  115677      33  115683  115677      33  115683  115680      34  115689  115686
      33  115692  115686      33  115692  115689      34  115698  115695      33
  115701  115695      33  115701  115698      34  115707  115704      33  115710
  115704      33  115710  115707      34  115716  115713      33  115719  115713
      33  115719  115716      34  115725  115722      33  115728  115722      33
  115728  115725      34  115734  115731      33  115737  115731      33  115737
  115734      34  115743  115740      33  115746  115740      33  115746  115743
      34  115752  115749      33  115755  115749      33  115755  115752      34
  115761  115758      33  115764  115758      33  115764  115761      34  115770
  115767      33  115773  115767      33  115773  115770      34  115779  115776
      33  115782  115776      33  115782  115779      34  115788  115785      33
  115791  115785      33  115791  115788      34  115797  115794      33  115800
  115794      33  115800  115797      34  115806  115803      33  115809  115803
      33  115809  115806      34  115815  115812      33  115818  115812      33
  115818  115815      34  115824  115821      33  115827  115821      33  115827
  115824      34  115833  115830      33  115836  115830      33  115836  115833
      34  115842  115839      33  115845  115839      33  115845  115842      34
  115851  115848      33  115854  115848      33  115854  115851      34  115860
  115857      33  115863  115857      33  115863  115860      34  115869  115866
      33  115872  115866      33  115872  115869      34  115878  115875      33
  115881  115875      33  115881  115878      34  115887  115884      33  115890
  115884      33  115890  115887      34  115896  115893      33  115899  115893
      33  115899  115896      34  115905  115902      33  115908  115902      33
  115908  115905      34  115914  115911      33  115917  115911      33  115917
  115914      34  115923  115920      33  115926  115920      33  115926  115923
      34  115932  115929      33  115935  115929      33  115935  115932      34
  115941  115938      33  115944  115938      33  115944  115941      34  115950
  115947      33  115953  115947      33  115953  115950      34  115959  115956
      33  115962  115956      33  115962  115959      34  115968  115965      33
  115971  115965      33  115971  115968      34  115977  115974      33  115980
  115974      33  115980  115977      34  115986  115983      33  115989  115983
      33  115989  115986      34  115995  115992      33  115998  115992      33
  115998  115995      34  116004  116001      33  116007  116001      33  116007
  116004      34  116013  116010      33  116016  116010      33  116016  116013
      34  116022  116019      33  116025  116019      33  116025  116022      34
  116031  116028      33  116034  116028      33  116034  116031      34  116040
  116037      33  116043  116037      33  116043  116040      34  116049  116046
      33  116052  116046      33  116052  116049      34  116058  116055      33
  116061  116055      33  116061  116058      34  116067  116064      33  116070
  116064      33  116070  116067      34  116076  116073      33  116079  116073
      33  116079  116076      34  116085  116082      33  116088  116082      33
  116088  116085      34  116094  116091      33  116097  116091      33  116097
  116094      34  116103  116100      33  116106  116100      33  116106  116103
      34  116112  116109      33  116115  116109      33  116115  116112      34
  116121  116118      33  116124  116118      33  116124  116121      34  116130
  116127      33  116133  116127      33  116133  116130      34  116139  116136
      33  116142  116136      33  116142  116139      34  116148  116145      33
  116151  116145      33  116151  116148      34  116157  116154      33  116160
  116154      33  116160  116157      34  116166  116163      33  116169  116163
      33  116169  116166      34  116175  116172      33  116178  116172      33
  116178  116175      34  116184  116181      33  116187  116181      33  116187
  116184      34  116193  116190      33  116196  116190      33  116196  116193
      34  116202  116199      33  116205  116199      33  116205  116202      34
  116211  116208      33  116214  116208      33  116214  116211      34  116220
  116217      33  116223  116217      33  116223  116220      34  116229  116226
      33  116232  116226      33  116232  116229      34  116238  116235      33
  116241  116235      33  116241  116238      34  116247  116244      33  116250
  116244      33  116250  116247      34  116256  116253      33  116259  116253
      33  116259  116256      34  116265  116262      33  116268  116262      33
  116268  116265      34  116274  116271      33  116277  116271      33  116277
  116274      34  116283  116280      33  116286  116280      33  116286  116283
      34  116292  116289      33  116295  116289      33  116295  116292      34
  116301  116298      33  116304  116298      33  116304  116301      34  116310
  116307      33  116313  116307      33  116313  116310      34  116319  116316
      33  116322  116316      33  116322  116319      34  116328  116325      33
  116331  116325      33  116331  116328      34  116337  116334      33  116340
  116334      33  116340  116337      34  116346  116343      33  116349  116343
      33  116349  116346      34  116355  116352      33  116358  116352      33
  116358  116355      34  116364  116361      33  116367  116361      33  116367
  116364      34  116373  116370      33  116376  116370      33  116376  116373
      34  116382  116379      33  116385  116379      33  116385  116382      34
  116391  116388      33  116394  116388      33  116394  116391      34  116400
  116397      33  116403  116397      33  116403  116400      34  116409  116406
      33  116412  116406      33  116412  116409      34  116418  116415      33
  116421  116415      33  116421  116418      34  116427  116424      33  116430
  116424      33  116430  116427      34  116436  116433      33  116439  116433
      33  116439  116436      34  116445  116442      33  116448  116442      33
  116448  116445      34  116454  116451      33  116457  116451      33  116457
  116454      34  116463  116460      33  116466  116460      33  116466  116463
      34  116472  116469      33  116475  116469      33  116475  116472      34
  116481  116478      33  116484  116478      33  116484  116481      34  116490
  116487      33  116493  116487      33  116493  116490      34  116499  116496
      33  116502  116496      33  116502  116499      34  116508  116505      33
  116511  116505      33  116511  116508      34  116517  116514      33  116520
  116514      33  116520  116517      34  116526  116523      33  116529  116523
      33  116529  116526      34  116535  116532      33  116538  116532      33
  116538  116535      34  116544  116541      33  116547  116541      33  116547
  116544      34  116553  116550      33  116556  116550      33  116556  116553
      34  116562  116559      33  116565  116559      33  116565  116562      34
  116571  116568      33  116574  116568      33  116574  116571      34  116580
  116577      33  116583  116577      33  116583  116580      34  116589  116586
      33  116592  116586      33  116592  116589      34  116598  116595      33
  116601  116595      33  116601  116598      34  116607  116604      33  116610
  116604      33  116610  116607      34  116616  116613      33  116619  116613
      33  116619  116616      34  116625  116622      33  116628  116622      33
  116628  116625      34  116634  116631      33  116637  116631      33  116637
  116634      34  116643  116640      33  116646  116640      33  116646  116643
      34  116652  116649      33  116655  116649      33  116655  116652      34
  116661  116658      33  116664  116658      33  116664  116661      34  116670
  116667      33  116673  116667      33  116673  116670      34  116679  116676
      33  116682  116676      33  116682  116679      34  116688  116685      33
  116691  116685      33  116691  116688      34  116697  116694      33  116700
  116694      33  116700  116697      34  116706  116703      33  116709  116703
      33  116709  116706      34  116715  116712      33  116718  116712      33
  116718  116715      34  116724  116721      33  116727  116721      33  116727
  116724      34  116733  116730      33  116736  116730      33  116736  116733
      34  116742  116739      33  116745  116739      33  116745  116742      34
  116751  116748      33  116754  116748      33  116754  116751      34  116760
  116757      33  116763  116757      33  116763  116760      34  116769  116766
      33  116772  116766      33  116772  116769      34  116778  116775      33
  116781  116775      33  116781  116778      34  116787  116784      33  116790
  116784      33  116790  116787      34  116796  116793      33  116799  116793
      33  116799  116796      34  116805  116802      33  116808  116802      33
  116808  116805      34  116814  116811      33  116817  116811      33  116817
  116814      34  116823  116820      33  116826  116820      33  116826  116823
      34  116832  116829      33  116835  116829      33  116835  116832      34
  116841  116838      33  116844  116838      33  116844  116841      34  116850
  116847      33  116853  116847      33  116853  116850      34  116859  116856
      33  116862  116856      33  116862  116859      34  116868  116865      33
  116871  116865      33  116871  116868      34  116877  116874      33  116880
  116874      33  116880  116877      34  116886  116883      33  116889  116883
      33  116889  116886      34  116895  116892      33  116898  116892      33
  116898  116895      34  116904  116901      33  116907  116901      33  116907
  116904      34  116913  116910      33  116916  116910      33  116916  116913
      34  116922  116919      33  116925  116919      33  116925  116922      34
  116931  116928      33  116934  116928      33  116934  116931      34  116940
  116937      33  116943  116937      33  116943  116940      34  116949  116946
      33  116952  116946      33  116952  116949      34  116958  116955      33
  116961  116955      33  116961  116958      34  116967  116964      33  116970
  116964      33  116970  116967      34  116976  116973      33  116979  116973
      33  116979  116976      34  116985  116982      33  116988  116982      33
  116988  116985      34  116994  116991      33  116997  116991      33  116997
  116994      34  117003  117000      33  117006  117000      33  117006  117003
      34  117012  117009      33  117015  117009      33  117015  117012      34
  117021  117018      33  117024  117018      33  117024  117021      34  117030
  117027      33  117033  117027      33  117033  117030      34  117039  117036
      33  117042  117036      33  117042  117039      34  117048  117045      33
  117051  117045      33  117051  117048      34  117057  117054      33  117060
  117054      33  117060  117057      34  117066  117063      33  117069  117063
      33  117069  117066      34  117075  117072      33  117078  117072      33
  117078  117075      34  117084  117081      33  117087  117081      33  117087
  117084      34  117093  117090      33  117096  117090      33  117096  117093
      34  117102  117099      33  117105  117099      33  117105  117102      34
  117111  117108      33  117114  117108      33  117114  117111      34  117120
  117117      33  117123  117117      33  117123  117120      34  117129  117126
      33  117132  117126      33  117132  117129      34  117138  117135      33
  117141  117135      33  117141  117138      34  117147  117144      33  117150
  117144      33  117150  117147      34  117156  117153      33  117159  117153
      33  117159  117156      34  117165  117162      33  117168  117162      33
  117168  117165      34  117174  117171      33  117177  117171      33  117177
  117174      34  117183  117180      33  117186  117180      33  117186  117183
      34  117192  117189      33  117195  117189      33  117195  117192      34
  117201  117198      33  117204  117198      33  117204  117201      34  117210
  117207      33  117213  117207      33  117213  117210      34  117219  117216
      33  117222  117216      33  117222  117219      34  117228  117225      33
  117231  117225      33  117231  117228      34  117237  117234      33  117240
  117234      33  117240  117237      34  117246  117243      33  117249  117243
      33  117249  117246      34  117255  117252      33  117258  117252      33
  117258  117255      34  117264  117261      33  117267  117261      33  117267
  117264      34  117273  117270      33  117276  117270      33  117276  117273
      34  117282  117279      33  117285  117279      33  117285  117282      34
  117291  117288      33  117294  117288      33  117294  117291      34  117300
  117297      33  117303  117297      33  117303  117300      34  117309  117306
      33  117312  117306      33  117312  117309      34  117318  117315      33
  117321  117315      33  117321  117318      34  117327  117324      33  117330
  117324      33  117330  117327      34  117336  117333      33  117339  117333
      33  117339  117336      34  117345  117342      33  117348  117342      33
  117348  117345      34  117354  117351      33  117357  117351      33  117357
  117354      34  117363  117360      33  117366  117360      33  117366  117363
      34  117372  117369      33  117375  117369      33  117375  117372      34
  117381  117378      33  117384  117378      33  117384  117381      34  117390
  117387      33  117393  117387      33  117393  117390      34  117399  117396
      33  117402  117396      33  117402  117399      34  117408  117405      33
  117411  117405      33  117411  117408      34  117417  117414      33  117420
  117414      33  117420  117417      34  117426  117423      33  117429  117423
      33  117429  117426      34  117435  117432      33  117438  117432      33
  117438  117435      34  117444  117441      33  117447  117441      33  117447
  117444      34  117453  117450      33  117456  117450      33  117456  117453
      34  117462  117459      33  117465  117459      33  117465  117462      34
  117471  117468      33  117474  117468      33  117474  117471      34  117480
  117477      33  117483  117477      33  117483  117480      34  117489  117486
      33  117492  117486      33  117492  117489      34  117498  117495      33
  117501  117495      33  117501  117498      34  117507  117504      33  117510
  117504      33  117510  117507      34  117516  117513      33  117519  117513
      33  117519  117516      34  117525  117522      33  117528  117522      33
  117528  117525      34  117534  117531      33  117537  117531      33  117537
  117534      34  117543  117540      33  117546  117540      33  117546  117543
      34  117552  117549      33  117555  117549      33  117555  117552      34
  117561  117558      33  117564  117558      33  117564  117561      34  117570
  117567      33  117573  117567      33  117573  117570      34  117579  117576
      33  117582  117576      33  117582  117579      34  117588  117585      33
  117591  117585      33  117591  117588      34  117597  117594      33  117600
  117594      33  117600  117597      34  117606  117603      33  117609  117603
      33  117609  117606      34  117615  117612      33  117618  117612      33
  117618  117615      34  117624  117621      33  117627  117621      33  117627
  117624      34  117633  117630      33  117636  117630      33  117636  117633
      34  117642  117639      33  117645  117639      33  117645  117642      34
  117651  117648      33  117654  117648      33  117654  117651      34  117660
  117657      33  117663  117657      33  117663  117660      34  117669  117666
      33  117672  117666      33  117672  117669      34  117678  117675      33
  117681  117675      33  117681  117678      34  117687  117684      33  117690
  117684      33  117690  117687      34  117696  117693      33  117699  117693
      33  117699  117696      34  117705  117702      33  117708  117702      33
  117708  117705      34  117714  117711      33  117717  117711      33  117717
  117714      34  117723  117720      33  117726  117720      33  117726  117723
      34  117732  117729      33  117735  117729      33  117735  117732      34
  117741  117738      33  117744  117738      33  117744  117741      34  117750
  117747      33  117753  117747      33  117753  117750      34  117759  117756
      33  117762  117756      33  117762  117759      34  117768  117765      33
  117771  117765      33  117771  117768      34  117777  117774      33  117780
  117774      33  117780  117777      34  117786  117783      33  117789  117783
      33  117789  117786      34  117795  117792      33  117798  117792      33
  117798  117795      34  117804  117801      33  117807  117801      33  117807
  117804      34  117813  117810      33  117816  117810      33  117816  117813
      34  117822  117819      33  117825  117819      33  117825  117822      34
  117831  117828      33  117834  117828      33  117834  117831      34  117840
  117837      33  117843  117837      33  117843  117840      34  117849  117846
      33  117852  117846      33  117852  117849      34  117858  117855      33
  117861  117855      33  117861  117858      34  117867  117864      33  117870
  117864      33  117870  117867      34  117876  117873      33  117879  117873
      33  117879  117876      34  117885  117882      33  117888  117882      33
  117888  117885      34  117894  117891      33  117897  117891      33  117897
  117894      34  117903  117900      33  117906  117900      33  117906  117903
      34  117912  117909      33  117915  117909      33  117915  117912      34
  117921  117918      33  117924  117918      33  117924  117921      34  117930
  117927      33  117933  117927      33  117933  117930      34  117939  117936
      33  117942  117936      33  117942  117939      34  117948  117945      33
  117951  117945      33  117951  117948      34  117957  117954      33  117960
  117954      33  117960  117957      34  117966  117963      33  117969  117963
      33  117969  117966      34  117975  117972      33  117978  117972      33
  117978  117975      34  117984  117981      33  117987  117981      33  117987
  117984      34  117993  117990      33  117996  117990      33  117996  117993
      34  118002  117999      33  118005  117999      33  118005  118002      34
  118011  118008      33  118014  118008      33  118014  118011      34  118020
  118017      33  118023  118017      33  118023  118020      34  118029  118026
      33  118032  118026      33  118032  118029      34  118038  118035      33
  118041  118035      33  118041  118038      34  118047  118044      33  118050
  118044      33  118050  118047      34  118056  118053      33  118059  118053
      33  118059  118056      34  118065  118062      33  118068  118062      33
  118068  118065      34  118074  118071      33  118077  118071      33  118077
  118074      34  118083  118080      33  118086  118080      33  118086  118083
      34  118092  118089      33  118095  118089      33  118095  118092      34
  118101  118098      33  118104  118098      33  118104  118101      34  118110
  118107      33  118113  118107      33  118113  118110      34  118119  118116
      33  118122  118116      33  118122  118119      34  118128  118125      33
  118131  118125      33  118131  118128      34  118137  118134      33  118140
  118134      33  118140  118137      34  118146  118143      33  118149  118143
      33  118149  118146      34  118155  118152      33  118158  118152      33
  118158  118155      34  118164  118161      33  118167  118161      33  118167
  118164      34  118173  118170      33  118176  118170      33  118176  118173
      34  118182  118179      33  118185  118179      33  118185  118182      34
  118191  118188      33  118194  118188      33  118194  118191      34  118200
  118197      33  118203  118197      33  118203  118200      34  118209  118206
      33  118212  118206      33  118212  118209      34  118218  118215      33
  118221  118215      33  118221  118218      34  118227  118224      33  118230
  118224      33  118230  118227      34  118236  118233      33  118239  118233
      33  118239  118236      34  118245  118242      33  118248  118242      33
  118248  118245      34  118254  118251      33  118257  118251      33  118257
  118254      34  118263  118260      33  118266  118260      33  118266  118263
      34  118272  118269      33  118275  118269      33  118275  118272      34
  118281  118278      33  118284  118278      33  118284  118281      34  118290
  118287      33  118293  118287      33  118293  118290      34  118299  118296
      33  118302  118296      33  118302  118299      34  118308  118305      33
  118311  118305      33  118311  118308      34  118317  118314      33  118320
  118314      33  118320  118317      34  118326  118323      33  118329  118323
      33  118329  118326      34  118335  118332      33  118338  118332      33
  118338  118335      34  118344  118341      33  118347  118341      33  118347
  118344      34  118353  118350      33  118356  118350      33  118356  118353
      34  118362  118359      33  118365  118359      33  118365  118362      34
  118371  118368      33  118374  118368      33  118374  118371      34  118380
  118377      33  118383  118377      33  118383  118380      34  118389  118386
      33  118392  118386      33  118392  118389      34  118398  118395      33
  118401  118395      33  118401  118398      34  118407  118404      33  118410
  118404      33  118410  118407      34  118416  118413      33  118419  118413
      33  118419  118416      34  118425  118422      33  118428  118422      33
  118428  118425      34  118434  118431      33  118437  118431      33  118437
  118434      34  118443  118440      33  118446  118440      33  118446  118443
      34  118452  118449      33  118455  118449      33  118455  118452      34
  118461  118458      33  118464  118458      33  118464  118461      34  118470
  118467      33  118473  118467      33  118473  118470      34  118479  118476
      33  118482  118476      33  118482  118479      34  118488  118485      33
  118491  118485      33  118491  118488      34  118497  118494      33  118500
  118494      33  118500  118497      34  118506  118503      33  118509  118503
      33  118509  118506      34  118515  118512      33  118518  118512      33
  118518  118515      34  118524  118521      33  118527  118521      33  118527
  118524      34  118533  118530      33  118536  118530      33  118536  118533
      34  118542  118539      33  118545  118539      33  118545  118542      34
  118551  118548      33  118554  118548      33  118554  118551      34  118560
  118557      33  118563  118557      33  118563  118560      34  118569  118566
      33  118572  118566      33  118572  118569      34  118578  118575      33
  118581  118575      33  118581  118578      34  118587  118584      33  118590
  118584      33  118590  118587      34  118596  118593      33  118599  118593
      33  118599  118596      34  118605  118602      33  118608  118602      33
  118608  118605      34  118614  118611      33  118617  118611      33  118617
  118614      34  118623  118620      33  118626  118620      33  118626  118623
      34  118632  118629      33  118635  118629      33  118635  118632      34
  118641  118638      33  118644  118638      33  118644  118641      34  118650
  118647      33  118653  118647      33  118653  118650      34  118659  118656
      33  118662  118656      33  118662  118659      34  118668  118665      33
  118671  118665      33  118671  118668      34  118677  118674      33  118680
  118674      33  118680  118677      34  118686  118683      33  118689  118683
      33  118689  118686      34  118695  118692      33  118698  118692      33
  118698  118695      34  118704  118701      33  118707  118701      33  118707
  118704      34  118713  118710      33  118716  118710      33  118716  118713
      34  118722  118719      33  118725  118719      33  118725  118722      34
  118731  118728      33  118734  118728      33  118734  118731      34  118740
  118737      33  118743  118737      33  118743  118740      34  118749  118746
      33  118752  118746      33  118752  118749      34  118758  118755      33
  118761  118755      33  118761  118758      34  118767  118764      33  118770
  118764      33  118770  118767      34  118776  118773      33  118779  118773
      33  118779  118776      34  118785  118782      33  118788  118782      33
  118788  118785      34  118794  118791      33  118797  118791      33  118797
  118794      34  118803  118800      33  118806  118800      33  118806  118803
      34  118812  118809      33  118815  118809      33  118815  118812      34
  118821  118818      33  118824  118818      33  118824  118821      34  118830
  118827      33  118833  118827      33  118833  118830      34  118839  118836
      33  118842  118836      33  118842  118839      34  118848  118845      33
  118851  118845      33  118851  118848      34  118857  118854      33  118860
  118854      33  118860  118857      34  118866  118863      33  118869  118863
      33  118869  118866      34  118875  118872      33  118878  118872      33
  118878  118875      34  118884  118881      33  118887  118881      33  118887
  118884      34  118893  118890      33  118896  118890      33  118896  118893
      34  118902  118899      33  118905  118899      33  118905  118902      34
  118911  118908      33  118914  118908      33  118914  118911      34  118920
  118917      33  118923  118917      33  118923  118920      34  118929  118926
      33  118932  118926      33  118932  118929      34  118938  118935      33
  118941  118935      33  118941  118938      34  118947  118944      33  118950
  118944      33  118950  118947      34  118956  118953      33  118959  118953
      33  118959  118956      34  118965  118962      33  118968  118962      33
  118968  118965      34  118974  118971      33  118977  118971      33  118977
  118974      34  118983  118980      33  118986  118980      33  118986  118983
      34  118992  118989      33  118995  118989      33  118995  118992      34
  119001  118998      33  119004  118998      33  119004  119001      34  119010
  119007      33  119013  119007      33  119013  119010      34  119019  119016
      33  119022  119016      33  119022  119019      34  119028  119025      33
  119031  119025      33  119031  119028      34  119037  119034      33  119040
  119034      33  119040  119037      34  119046  119043      33  119049  119043
      33  119049  119046      34  119055  119052      33  119058  119052      33
  119058  119055      34  119064  119061      33  119067  119061      33  119067
  119064      34  119073  119070      33  119076  119070      33  119076  119073
      34  119082  119079      33  119085  119079      33  119085  119082      34
  119091  119088      33  119094  119088      33  119094  119091      34  119100
  119097      33  119103  119097      33  119103  119100      34  119109  119106
      33  119112  119106      33  119112  119109      34  119118  119115      33
  119121  119115      33  119121  119118      34  119127  119124      33  119130
  119124      33  119130  119127      34  119136  119133      33  119139  119133
      33  119139  119136      34  119145  119142      33  119148  119142      33
  119148  119145      34  119154  119151      33  119157  119151      33  119157
  119154      34  119163  119160      33  119166  119160      33  119166  119163
      34  119172  119169      33  119175  119169      33  119175  119172      34
  119181  119178      33  119184  119178      33  119184  119181      34  119190
  119187      33  119193  119187      33  119193  119190      34  119199  119196
      33  119202  119196      33  119202  119199      34  119208  119205      33
  119211  119205      33  119211  119208      34  119217  119214      33  119220
  119214      33  119220  119217      34  119226  119223      33  119229  119223
      33  119229  119226      34  119235  119232      33  119238  119232      33
  119238  119235      34  119244  119241      33  119247  119241      33  119247
  119244      34  119253  119250      33  119256  119250      33  119256  119253
      34  119262  119259      33  119265  119259      33  119265  119262      34
  119271  119268      33  119274  119268      33  119274  119271      34  119280
  119277      33  119283  119277      33  119283  119280      34  119289  119286
      33  119292  119286      33  119292  119289      34  119298  119295      33
  119301  119295      33  119301  119298      34  119307  119304      33  119310
  119304      33  119310  119307      34  119316  119313      33  119319  119313
      33  119319  119316      34  119325  119322      33  119328  119322      33
  119328  119325      34  119334  119331      33  119337  119331      33  119337
  119334      34  119343  119340      33  119346  119340      33  119346  119343
      34  119352  119349      33  119355  119349      33  119355  119352      34
  119361  119358      33  119364  119358      33  119364  119361      34  119370
  119367      33  119373  119367      33  119373  119370      34  119379  119376
      33  119382  119376      33  119382  119379      34  119388  119385      33
  119391  119385      33  119391  119388      34  119397  119394      33  119400
  119394      33  119400  119397      34  119406  119403      33  119409  119403
      33  119409  119406      34  119415  119412      33  119418  119412      33
  119418  119415      34  119424  119421      33  119427  119421      33  119427
  119424      34  119433  119430      33  119436  119430      33  119436  119433
      34  119442  119439      33  119445  119439      33  119445  119442      34
  119451  119448      33  119454  119448      33  119454  119451      34  119460
  119457      33  119463  119457      33  119463  119460      34  119469  119466
      33  119472  119466      33  119472  119469      34  119478  119475      33
  119481  119475      33  119481  119478      34  119487  119484      33  119490
  119484      33  119490  119487      34  119496  119493      33  119499  119493
      33  119499  119496      34  119505  119502      33  119508  119502      33
  119508  119505      34  119514  119511      33  119517  119511      33  119517
  119514      34  119523  119520      33  119526  119520      33  119526  119523
      34  119532  119529      33  119535  119529      33  119535  119532      34
  119541  119538      33  119544  119538      33  119544  119541      34  119550
  119547      33  119553  119547      33  119553  119550      34  119559  119556
      33  119562  119556      33  119562  119559      34  119568  119565      33
  119571  119565      33  119571  119568      34  119577  119574      33  119580
  119574      33  119580  119577      34  119586  119583      33  119589  119583
      33  119589  119586      34  119595  119592      33  119598  119592      33
  119598  119595      34  119604  119601      33  119607  119601      33  119607
  119604      34  119613  119610      33  119616  119610      33  119616  119613
      34  119622  119619      33  119625  119619      33  119625  119622      34
  119631  119628      33  119634  119628      33  119634  119631      34  119640
  119637      33  119643  119637      33  119643  119640      34  119649  119646
      33  119652  119646      33  119652  119649      34  119658  119655      33
  119661  119655      33  119661  119658      34  119667  119664      33  119670
  119664      33  119670  119667      34  119676  119673      33  119679  119673
      33  119679  119676      34  119685  119682      33  119688  119682      33
  119688  119685      34  119694  119691      33  119697  119691      33  119697
  119694      34  119703  119700      33  119706  119700      33  119706  119703
      34  119712  119709      33  119715  119709      33  119715  119712      34
  119721  119718      33  119724  119718      33  119724  119721      34  119730
  119727      33  119733  119727      33  119733  119730      34  119739  119736
      33  119742  119736      33  119742  119739      34  119748  119745      33
  119751  119745      33  119751  119748      34  119757  119754      33  119760
  119754      33  119760  119757      34  119766  119763      33  119769  119763
      33  119769  119766      34  119775  119772      33  119778  119772      33
  119778  119775      34  119784  119781      33  119787  119781      33  119787
  119784      34  119793  119790      33  119796  119790      33  119796  119793
      34  119802  119799      33  119805  119799      33  119805  119802      34
  119811  119808      33  119814  119808      33  119814  119811      34  119820
  119817      33  119823  119817      33  119823  119820      34  119829  119826
      33  119832  119826      33  119832  119829      34  119838  119835      33
  119841  119835      33  119841  119838      34  119847  119844      33  119850
  119844      33  119850  119847      34  119856  119853      33  119859  119853
      33  119859  119856      34  119865  119862      33  119868  119862      33
  119868  119865      34  119874  119871      33  119877  119871      33  119877
  119874      34  119883  119880      33  119886  119880      33  119886  119883
      34  119892  119889      33  119895  119889      33  119895  119892      34
  119901  119898      33  119904  119898      33  119904  119901      34  119910
  119907      33  119913  119907      33  119913  119910      34  119919  119916
      33  119922  119916      33  119922  119919      34  119928  119925      33
  119931  119925      33  119931  119928      34  119937  119934      33  119940
  119934      33  119940  119937      34  119946  119943      33  119949  119943
      33  119949  119946      34  119955  119952      33  119958  119952      33
  119958  119955      34  119964  119961      33  119967  119961      33  119967
  119964      34  119973  119970      33  119976  119970      33  119976  119973
      34  119982  119979      33  119985  119979      33  119985  119982      34
  119991  119988      33  119994  119988      33  119994  119991      34  120000
  119997      33  120003  119997      33  120003  120000      34  120009  120006
      33  120012  120006      33  120012  120009      34  120018  120015      33
  120021  120015      33  120021  120018      34  120027  120024      33  120030
  120024      33  120030  120027      34  120036  120033      33  120039  120033
      33  120039  120036      34  120045  120042      33  120048  120042      33
  120048  120045      34  120054  120051      33  120057  120051      33  120057
  120054      34  120063  120060      33  120066  120060      33  120066  120063
      34  120072  120069      33  120075  120069      33  120075  120072      34
  120081  120078      33  120084  120078      33  120084  120081      34  120090
  120087      33  120093  120087      33  120093  120090      34  120099  120096
      33  120102  120096      33  120102  120099      34  120108  120105      33
  120111  120105      33  120111  120108      34  120117  120114      33  120120
  120114      33  120120  120117      34  120126  120123      33  120129  120123
      33  120129  120126      34  120135  120132      33  120138  120132      33
  120138  120135      34  120144  120141      33  120147  120141      33  120147
  120144      34  120153  120150      33  120156  120150      33  120156  120153
      34  120162  120159      33  120165  120159      33  120165  120162      34
  120171  120168      33  120174  120168      33  120174  120171      34  120180
  120177      33  120183  120177      33  120183  120180      34  120189  120186
      33  120192  120186      33  120192  120189      34  120198  120195      33
  120201  120195      33  120201  120198      34  120207  120204      33  120210
  120204      33  120210  120207      34  120216  120213      33  120219  120213
      33  120219  120216      34  120225  120222      33  120228  120222      33
  120228  120225      34  120234  120231      33  120237  120231      33  120237
  120234      34  120243  120240      33  120246  120240      33  120246  120243
      34  120252  120249      33  120255  120249      33  120255  120252      34
  120261  120258      33  120264  120258      33  120264  120261      34  120270
  120267      33  120273  120267      33  120273  120270      34  120279  120276
      33  120282  120276      33  120282  120279      34  120288  120285      33
  120291  120285      33  120291  120288      34  120297  120294      33  120300
  120294      33  120300  120297      34  120306  120303      33  120309  120303
      33  120309  120306      34  120315  120312      33  120318  120312      33
  120318  120315      34  120324  120321      33  120327  120321      33  120327
  120324      34  120333  120330      33  120336  120330      33  120336  120333
      34  120342  120339      33  120345  120339      33  120345  120342      34
  120351  120348      33  120354  120348      33  120354  120351      34  120360
  120357      33  120363  120357      33  120363  120360      34  120369  120366
      33  120372  120366      33  120372  120369      34  120378  120375      33
  120381  120375      33  120381  120378      34  120387  120384      33  120390
  120384      33  120390  120387      34  120396  120393      33  120399  120393
      33  120399  120396      34  120405  120402      33  120408  120402      33
  120408  120405      34  120414  120411      33  120417  120411      33  120417
  120414      34  120423  120420      33  120426  120420      33  120426  120423
      34  120432  120429      33  120435  120429      33  120435  120432      34
  120441  120438      33  120444  120438      33  120444  120441      34  120450
  120447      33  120453  120447      33  120453  120450      34  120459  120456
      33  120462  120456      33  120462  120459      34  120468  120465      33
  120471  120465      33  120471  120468      34  120477  120474      33  120480
  120474      33  120480  120477      34  120486  120483      33  120489  120483
      33  120489  120486      34  120495  120492      33  120498  120492      33
  120498  120495      34  120504  120501      33  120507  120501      33  120507
  120504      34  120513  120510      33  120516  120510      33  120516  120513
      34  120522  120519      33  120525  120519      33  120525  120522      34
  120531  120528      33  120534  120528      33  120534  120531      34  120540
  120537      33  120543  120537      33  120543  120540      34  120549  120546
      33  120552  120546      33  120552  120549      34  120558  120555      33
  120561  120555      33  120561  120558      34  120567  120564      33  120570
  120564      33  120570  120567      34  120576  120573      33  120579  120573
      33  120579  120576      34  120585  120582      33  120588  120582      33
  120588  120585      34  120594  120591      33  120597  120591      33  120597
  120594      34  120603  120600      33  120606  120600      33  120606  120603
      34  120612  120609      33  120615  120609      33  120615  120612      34
  120621  120618      33  120624  120618      33  120624  120621      34  120630
  120627      33  120633  120627      33  120633  120630      34  120639  120636
      33  120642  120636      33  120642  120639      34  120648  120645      33
  120651  120645      33  120651  120648      34  120657  120654      33  120660
  120654      33  120660  120657      34  120666  120663      33  120669  120663
      33  120669  120666      34  120675  120672      33  120678  120672      33
  120678  120675      34  120684  120681      33  120687  120681      33  120687
  120684      34  120693  120690      33  120696  120690      33  120696  120693
      34  120702  120699      33  120705  120699      33  120705  120702      34
  120711  120708      33  120714  120708      33  120714  120711      34  120720
  120717      33  120723  120717      33  120723  120720      34  120729  120726
      33  120732  120726      33  120732  120729      34  120738  120735      33
  120741  120735      33  120741  120738      34  120747  120744      33  120750
  120744      33  120750  120747      34  120756  120753      33  120759  120753
      33  120759  120756      34  120765  120762      33  120768  120762      33
  120768  120765      34  120774  120771      33  120777  120771      33  120777
  120774      34  120783  120780      33  120786  120780      33  120786  120783
      34  120792  120789      33  120795  120789      33  120795  120792      34
  120801  120798      33  120804  120798      33  120804  120801      34  120810
  120807      33  120813  120807      33  120813  120810      34  120819  120816
      33  120822  120816      33  120822  120819      34  120828  120825      33
  120831  120825      33  120831  120828      34  120837  120834      33  120840
  120834      33  120840  120837      34  120846  120843      33  120849  120843
      33  120849  120846      34  120855  120852      33  120858  120852      33
  120858  120855      34  120864  120861      33  120867  120861      33  120867
  120864      34  120873  120870      33  120876  120870      33  120876  120873
      34  120882  120879      33  120885  120879      33  120885  120882      34
  120891  120888      33  120894  120888      33  120894  120891      34  120900
  120897      33  120903  120897      33  120903  120900      34  120909  120906
      33  120912  120906      33  120912  120909      34  120918  120915      33
  120921  120915      33  120921  120918      34  120927  120924      33  120930
  120924      33  120930  120927      34  120936  120933      33  120939  120933
      33  120939  120936      34  120945  120942      33  120948  120942      33
  120948  120945      34  120954  120951      33  120957  120951      33  120957
  120954      34  120963  120960      33  120966  120960      33  120966  120963
      34  120972  120969      33  120975  120969      33  120975  120972      34
  120981  120978      33  120984  120978      33  120984  120981      34  120990
  120987      33  120993  120987      33  120993  120990      34  120999  120996
      33  121002  120996      33  121002  120999      34  121008  121005      33
  121011  121005      33  121011  121008      34  121017  121014      33  121020
  121014      33  121020  121017      34  121026  121023      33  121029  121023
      33  121029  121026      34  121035  121032      33  121038  121032      33
  121038  121035      34  121044  121041      33  121047  121041      33  121047
  121044      34  121053  121050      33  121056  121050      33  121056  121053
      34  121062  121059      33  121065  121059      33  121065  121062      34
  121071  121068      33  121074  121068      33  121074  121071      34  121080
  121077      33  121083  121077      33  121083  121080      34  121089  121086
      33  121092  121086      33  121092  121089      34  121098  121095      33
  121101  121095      33  121101  121098      34  121107  121104      33  121110
  121104      33  121110  121107      34  121116  121113      33  121119  121113
      33  121119  121116      34  121125  121122      33  121128  121122      33
  121128  121125      34  121134  121131      33  121137  121131      33  121137
  121134      34  121143  121140      33  121146  121140      33  121146  121143
      34  121152  121149      33  121155  121149      33  121155  121152      34
  121161  121158      33  121164  121158      33  121164  121161      34  121170
  121167      33  121173  121167      33  121173  121170      34  121179  121176
      33  121182  121176      33  121182  121179      34  121188  121185      33
  121191  121185      33  121191  121188      34  121197  121194      33  121200
  121194      33  121200  121197      34  121206  121203      33  121209  121203
      33  121209  121206      34  121215  121212      33  121218  121212      33
  121218  121215      34  121224  121221      33  121227  121221      33  121227
  121224      34  121233  121230      33  121236  121230      33  121236  121233
      34  121242  121239      33  121245  121239      33  121245  121242      34
  121251  121248      33  121254  121248      33  121254  121251      34  121260
  121257      33  121263  121257      33  121263  121260      34  121269  121266
      33  121272  121266      33  121272  121269      34  121278  121275      33
  121281  121275      33  121281  121278      34  121287  121284      33  121290
  121284      33  121290  121287      34  121296  121293      33  121299  121293
      33  121299  121296      34  121305  121302      33  121308  121302      33
  121308  121305      34  121314  121311      33  121317  121311      33  121317
  121314      34  121323  121320      33  121326  121320      33  121326  121323
      34  121332  121329      33  121335  121329      33  121335  121332      34
  121341  121338      33  121344  121338      33  121344  121341      34  121350
  121347      33  121353  121347      33  121353  121350      34  121359  121356
      33  121362  121356      33  121362  121359      34  121368  121365      33
  121371  121365      33  121371  121368      34  121377  121374      33  121380
  121374      33  121380  121377      34  121386  121383      33  121389  121383
      33  121389  121386      34  121395  121392      33  121398  121392      33
  121398  121395      34  121404  121401      33  121407  121401      33  121407
  121404      34  121413  121410      33  121416  121410      33  121416  121413
      34  121422  121419      33  121425  121419      33  121425  121422      34
  121431  121428      33  121434  121428      33  121434  121431      34  121440
  121437      33  121443  121437      33  121443  121440      34  121449  121446
      33  121452  121446      33  121452  121449      34  121458  121455      33
  121461  121455      33  121461  121458      34  121467  121464      33  121470
  121464      33  121470  121467      34  121476  121473      33  121479  121473
      33  121479  121476      34  121485  121482      33  121488  121482      33
  121488  121485      34  121494  121491      33  121497  121491      33  121497
  121494      34  121503  121500      33  121506  121500      33  121506  121503
      34  121512  121509      33  121515  121509      33  121515  121512      34
  121521  121518      33  121524  121518      33  121524  121521      34  121530
  121527      33  121533  121527      33  121533  121530      34  121539  121536
      33  121542  121536      33  121542  121539      34  121548  121545      33
  121551  121545      33  121551  121548      34  121557  121554      33  121560
  121554      33  121560  121557      34  121566  121563      33  121569  121563
      33  121569  121566      34  121575  121572      33  121578  121572      33
  121578  121575      34  121584  121581      33  121587  121581      33  121587
  121584      34  121593  121590      33  121596  121590      33  121596  121593
      34  121602  121599      33  121605  121599      33  121605  121602      34
  121611  121608      33  121614  121608      33  121614  121611      34  121620
  121617      33  121623  121617      33  121623  121620      34  121629  121626
      33  121632  121626      33  121632  121629      34  121638  121635      33
  121641  121635      33  121641  121638      34  121647  121644      33  121650
  121644      33  121650  121647      34  121656  121653      33  121659  121653
      33  121659  121656      34  121665  121662      33  121668  121662      33
  121668  121665      34  121674  121671      33  121677  121671      33  121677
  121674      34  121683  121680      33  121686  121680      33  121686  121683
      34  121692  121689      33  121695  121689      33  121695  121692      34
  121701  121698      33  121704  121698      33  121704  121701      34  121710
  121707      33  121713  121707      33  121713  121710      34  121719  121716
      33  121722  121716      33  121722  121719      34  121728  121725      33
  121731  121725      33  121731  121728      34  121737  121734      33  121740
  121734      33  121740  121737      34  121746  121743      33  121749  121743
      33  121749  121746      34  121755  121752      33  121758  121752      33
  121758  121755      34  121764  121761      33  121767  121761      33  121767
  121764      34  121773  121770      33  121776  121770      33  121776  121773
      34  121782  121779      33  121785  121779      33  121785  121782      34
  121791  121788      33  121794  121788      33  121794  121791      34  121800
  121797      33  121803  121797      33  121803  121800      34  121809  121806
      33  121812  121806      33  121812  121809      34  121818  121815      33
  121821  121815      33  121821  121818      34  121827  121824      33  121830
  121824      33  121830  121827      34  121836  121833      33  121839  121833
      33  121839  121836      34  121845  121842      33  121848  121842      33
  121848  121845      34  121854  121851      33  121857  121851      33  121857
  121854      34  121863  121860      33  121866  121860      33  121866  121863
      34  121872  121869      33  121875  121869      33  121875  121872      34
  121881  121878      33  121884  121878      33  121884  121881      34  121890
  121887      33  121893  121887      33  121893  121890      34  121899  121896
      33  121902  121896      33  121902  121899      34  121908  121905      33
  121911  121905      33  121911  121908      34  121917  121914      33  121920
  121914      33  121920  121917      34  121926  121923      33  121929  121923
      33  121929  121926      34  121935  121932      33  121938  121932      33
  121938  121935      34  121944  121941      33  121947  121941      33  121947
  121944      34  121953  121950      33  121956  121950      33  121956  121953
      34  121962  121959      33  121965  121959      33  121965  121962      34
  121971  121968      33  121974  121968      33  121974  121971      34  121980
  121977      33  121983  121977      33  121983  121980      34  121989  121986
      33  121992  121986      33  121992  121989      34  121998  121995      33
  122001  121995      33  122001  121998      34  122007  122004      33  122010
  122004      33  122010  122007      34  122016  122013      33  122019  122013
      33  122019  122016      34  122025  122022      33  122028  122022      33
  122028  122025      34  122034  122031      33  122037  122031      33  122037
  122034      34  122043  122040      33  122046  122040      33  122046  122043
      34  122052  122049      33  122055  122049      33  122055  122052      34
  122061  122058      33  122064  122058      33  122064  122061      34  122070
  122067      33  122073  122067      33  122073  122070      34  122079  122076
      33  122082  122076      33  122082  122079      34  122088  122085      33
  122091  122085      33  122091  122088      34  122097  122094      33  122100
  122094      33  122100  122097      34  122106  122103      33  122109  122103
      33  122109  122106      34  122115  122112      33  122118  122112      33
  122118  122115      34  122124  122121      33  122127  122121      33  122127
  122124      34  122133  122130      33  122136  122130      33  122136  122133
      34  122142  122139      33  122145  122139      33  122145  122142      34
  122151  122148      33  122154  122148      33  122154  122151      34  122160
  122157      33  122163  122157      33  122163  122160      34  122169  122166
      33  122172  122166      33  122172  122169      34  122178  122175      33
  122181  122175      33  122181  122178      34  122187  122184      33  122190
  122184      33  122190  122187      34  122196  122193      33  122199  122193
      33  122199  122196      34  122205  122202      33  122208  122202      33
  122208  122205      34  122214  122211      33  122217  122211      33  122217
  122214      34  122223  122220      33  122226  122220      33  122226  122223
      34  122232  122229      33  122235  122229      33  122235  122232      34
  122241  122238      33  122244  122238      33  122244  122241      34  122250
  122247      33  122253  122247      33  122253  122250      34  122259  122256
      33  122262  122256      33  122262  122259      34  122268  122265      33
  122271  122265      33  122271  122268      34  122277  122274      33  122280
  122274      33  122280  122277      34  122286  122283      33  122289  122283
      33  122289  122286      34  122295  122292      33  122298  122292      33
  122298  122295      34  122304  122301      33  122307  122301      33  122307
  122304      34  122313  122310      33  122316  122310      33  122316  122313
      34  122322  122319      33  122325  122319      33  122325  122322      34
  122331  122328      33  122334  122328      33  122334  122331      34  122340
  122337      33  122343  122337      33  122343  122340      34  122349  122346
      33  122352  122346      33  122352  122349      34  122358  122355      33
  122361  122355      33  122361  122358      34  122367  122364      33  122370
  122364      33  122370  122367      34  122376  122373      33  122379  122373
      33  122379  122376      34  122385  122382      33  122388  122382      33
  122388  122385      34  122394  122391      33  122397  122391      33  122397
  122394      34  122403  122400      33  122406  122400      33  122406  122403
      34  122412  122409      33  122415  122409      33  122415  122412      34
  122421  122418      33  122424  122418      33  122424  122421      34  122430
  122427      33  122433  122427      33  122433  122430      34  122439  122436
      33  122442  122436      33  122442  122439      34  122448  122445      33
  122451  122445      33  122451  122448      34  122457  122454      33  122460
  122454      33  122460  122457      34  122466  122463      33  122469  122463
      33  122469  122466      34  122475  122472      33  122478  122472      33
  122478  122475      34  122484  122481      33  122487  122481      33  122487
  122484      34  122493  122490      33  122496  122490      33  122496  122493
      34  122502  122499      33  122505  122499      33  122505  122502      34
  122511  122508      33  122514  122508      33  122514  122511      34  122520
  122517      33  122523  122517      33  122523  122520      34  122529  122526
      33  122532  122526      33  122532  122529      34  122538  122535      33
  122541  122535      33  122541  122538      34  122547  122544      33  122550
  122544      33  122550  122547      34  122556  122553      33  122559  122553
      33  122559  122556      34  122565  122562      33  122568  122562      33
  122568  122565      34  122574  122571      33  122577  122571      33  122577
  122574      34  122583  122580      33  122586  122580      33  122586  122583
      34  122592  122589      33  122595  122589      33  122595  122592      34
  122601  122598      33  122604  122598      33  122604  122601      34  122610
  122607      33  122613  122607      33  122613  122610      34  122619  122616
      33  122622  122616      33  122622  122619      34  122628  122625      33
  122631  122625      33  122631  122628      34  122637  122634      33  122640
  122634      33  122640  122637      34  122646  122643      33  122649  122643
      33  122649  122646      34  122655  122652      33  122658  122652      33
  122658  122655      34  122664  122661      33  122667  122661      33  122667
  122664      34  122673  122670      33  122676  122670      33  122676  122673
      34  122682  122679      33  122685  122679      33  122685  122682      34
  122691  122688      33  122694  122688      33  122694  122691      34  122700
  122697      33  122703  122697      33  122703  122700      34  122709  122706
      33  122712  122706      33  122712  122709      34  122718  122715      33
  122721  122715      33  122721  122718      34  122727  122724      33  122730
  122724      33  122730  122727      34  122736  122733      33  122739  122733
      33  122739  122736      34  122745  122742      33  122748  122742      33
  122748  122745      34  122754  122751      33  122757  122751      33  122757
  122754      34  122763  122760      33  122766  122760      33  122766  122763
      34  122772  122769      33  122775  122769      33  122775  122772      34
  122781  122778      33  122784  122778      33  122784  122781      34  122790
  122787      33  122793  122787      33  122793  122790      34  122799  122796
      33  122802  122796      33  122802  122799      34  122808  122805      33
  122811  122805      33  122811  122808      34  122817  122814      33  122820
  122814      33  122820  122817      34  122826  122823      33  122829  122823
      33  122829  122826      34  122835  122832      33  122838  122832      33
  122838  122835      34  122844  122841      33  122847  122841      33  122847
  122844      34  122853  122850      33  122856  122850      33  122856  122853
      34  122862  122859      33  122865  122859      33  122865  122862      34
  122871  122868      33  122874  122868      33  122874  122871      34  122880
  122877      33  122883  122877      33  122883  122880      34  122889  122886
      33  122892  122886      33  122892  122889      34  122898  122895      33
  122901  122895      33  122901  122898      34  122907  122904      33  122910
  122904      33  122910  122907      34  122916  122913      33  122919  122913
      33  122919  122916      34  122925  122922      33  122928  122922      33
  122928  122925      34  122934  122931      33  122937  122931      33  122937
  122934      34  122943  122940      33  122946  122940      33  122946  122943
      34  122952  122949      33  122955  122949      33  122955  122952      34
  122961  122958      33  122964  122958      33  122964  122961      34  122970
  122967      33  122973  122967      33  122973  122970      34  122979  122976
      33  122982  122976      33  122982  122979      34  122988  122985      33
  122991  122985      33  122991  122988      34  122997  122994      33  123000
  122994      33  123000  122997      34  123006  123003      33  123009  123003
      33  123009  123006      34  123015  123012      33  123018  123012      33
  123018  123015      34  123024  123021      33  123027  123021      33  123027
  123024      34  123033  123030      33  123036  123030      33  123036  123033
      34  123042  123039      33  123045  123039      33  123045  123042      34
  123051  123048      33  123054  123048      33  123054  123051      34  123060
  123057      33  123063  123057      33  123063  123060      34  123069  123066
      33  123072  123066      33  123072  123069      34  123078  123075      33
  123081  123075      33  123081  123078      34  123087  123084      33  123090
  123084      33  123090  123087      34  123096  123093      33  123099  123093
      33  123099  123096      34  123105  123102      33  123108  123102      33
  123108  123105      34  123114  123111      33  123117  123111      33  123117
  123114      34  123123  123120      33  123126  123120      33  123126  123123
      34  123132  123129      33  123135  123129      33  123135  123132      34
  123141  123138      33  123144  123138      33  123144  123141      34  123150
  123147      33  123153  123147      33  123153  123150      34  123159  123156
      33  123162  123156      33  123162  123159      34  123168  123165      33
  123171  123165      33  123171  123168      34  123177  123174      33  123180
  123174      33  123180  123177      34  123186  123183      33  123189  123183
      33  123189  123186      34  123195  123192      33  123198  123192      33
  123198  123195      34  123204  123201      33  123207  123201      33  123207
  123204      34  123213  123210      33  123216  123210      33  123216  123213
      34  123222  123219      33  123225  123219      33  123225  123222      34
  123231  123228      33  123234  123228      33  123234  123231      34  123240
  123237      33  123243  123237      33  123243  123240      34  123249  123246
      33  123252  123246      33  123252  123249      34  123258  123255      33
  123261  123255      33  123261  123258      34  123267  123264      33  123270
  123264      33  123270  123267      34  123276  123273      33  123279  123273
      33  123279  123276      34  123285  123282      33  123288  123282      33
  123288  123285      34  123294  123291      33  123297  123291      33  123297
  123294      34  123303  123300      33  123306  123300      33  123306  123303
      34  123312  123309      33  123315  123309      33  123315  123312      34
  123321  123318      33  123324  123318      33  123324  123321      34  123330
  123327      33  123333  123327      33  123333  123330      34  123339  123336
      33  123342  123336      33  123342  123339      34  123348  123345      33
  123351  123345      33  123351  123348      34  123357  123354      33  123360
  123354      33  123360  123357      34  123366  123363      33  123369  123363
      33  123369  123366      34  123375  123372      33  123378  123372      33
  123378  123375      34  123384  123381      33  123387  123381      33  123387
  123384      34  123393  123390      33  123396  123390      33  123396  123393
      34  123402  123399      33  123405  123399      33  123405  123402      34
  123411  123408      33  123414  123408      33  123414  123411      34  123420
  123417      33  123423  123417      33  123423  123420      34  123429  123426
      33  123432  123426      33  123432  123429      34  123438  123435      33
  123441  123435      33  123441  123438      34  123447  123444      33  123450
  123444      33  123450  123447      34  123456  123453      33  123459  123453
      33  123459  123456      34  123465  123462      33  123468  123462      33
  123468  123465      34  123474  123471      33  123477  123471      33  123477
  123474      34  123483  123480      33  123486  123480      33  123486  123483
      34  123492  123489      33  123495  123489      33  123495  123492      34
  123501  123498      33  123504  123498      33  123504  123501      34  123510
  123507      33  123513  123507      33  123513  123510      34  123519  123516
      33  123522  123516      33  123522  123519      34  123528  123525      33
  123531  123525      33  123531  123528      34  123537  123534      33  123540
  123534      33  123540  123537      34  123546  123543      33  123549  123543
      33  123549  123546      34  123555  123552      33  123558  123552      33
  123558  123555      34  123564  123561      33  123567  123561      33  123567
  123564      34  123573  123570      33  123576  123570      33  123576  123573
      34  123582  123579      33  123585  123579      33  123585  123582      34
  123591  123588      33  123594  123588      33  123594  123591      34  123600
  123597      33  123603  123597      33  123603  123600      34  123609  123606
      33  123612  123606      33  123612  123609      34  123618  123615      33
  123621  123615      33  123621  123618      34  123627  123624      33  123630
  123624      33  123630  123627      34  123636  123633      33  123639  123633
      33  123639  123636      34  123645  123642      33  123648  123642      33
  123648  123645      34  123654  123651      33  123657  123651      33  123657
  123654      34  123663  123660      33  123666  123660      33  123666  123663
      34  123672  123669      33  123675  123669      33  123675  123672      34
  123681  123678      33  123684  123678      33  123684  123681      34  123690
  123687      33  123693  123687      33  123693  123690      34  123699  123696
      33  123702  123696      33  123702  123699      34  123708  123705      33
  123711  123705      33  123711  123708      34  123717  123714      33  123720
  123714      33  123720  123717      34  123726  123723      33  123729  123723
      33  123729  123726      34  123735  123732      33  123738  123732      33
  123738  123735      34  123744  123741      33  123747  123741      33  123747
  123744      34  123753  123750      33  123756  123750      33  123756  123753
      34  123762  123759      33  123765  123759      33  123765  123762      34
  123771  123768      33  123774  123768      33  123774  123771      34  123780
  123777      33  123783  123777      33  123783  123780      34  123789  123786
      33  123792  123786      33  123792  123789      34  123798  123795      33
  123801  123795      33  123801  123798      34  123807  123804      33  123810
  123804      33  123810  123807      34  123816  123813      33  123819  123813
      33  123819  123816      34  123825  123822      33  123828  123822      33
  123828  123825      34  123834  123831      33  123837  123831      33  123837
  123834      34  123843  123840      33  123846  123840      33  123846  123843
      34  123852  123849      33  123855  123849      33  123855  123852      34
  123861  123858      33  123864  123858      33  123864  123861      34  123870
  123867      33  123873  123867      33  123873  123870      34  123879  123876
      33  123882  123876      33  123882  123879      34  123888  123885      33
  123891  123885      33  123891  123888      34  123897  123894      33  123900
  123894      33  123900  123897      34  123906  123903      33  123909  123903
      33  123909  123906      34  123915  123912      33  123918  123912      33
  123918  123915      34  123924  123921      33  123927  123921      33  123927
  123924      34  123933  123930      33  123936  123930      33  123936  123933
      34  123942  123939      33  123945  123939      33  123945  123942      34
  123951  123948      33  123954  123948      33  123954  123951      34  123960
  123957      33  123963  123957      33  123963  123960      34  123969  123966
      33  123972  123966      33  123972  123969      34  123978  123975      33
  123981  123975      33  123981  123978      34  123987  123984      33  123990
  123984      33  123990  123987      34  123996  123993      33  123999  123993
      33  123999  123996      34  124005  124002      33  124008  124002      33
  124008  124005      34  124014  124011      33  124017  124011      33  124017
  124014      34  124023  124020      33  124026  124020      33  124026  124023
      34  124032  124029      33  124035  124029      33  124035  124032      34
  124041  124038      33  124044  124038      33  124044  124041      34  124050
  124047      33  124053  124047      33  124053  124050      34  124059  124056
      33  124062  124056      33  124062  124059      34  124068  124065      33
  124071  124065      33  124071  124068      34  124077  124074      33  124080
  124074      33  124080  124077      34  124086  124083      33  124089  124083
      33  124089  124086      34  124095  124092      33  124098  124092      33
  124098  124095      34  124104  124101      33  124107  124101      33  124107
  124104      34  124113  124110      33  124116  124110      33  124116  124113
      34  124122  124119      33  124125  124119      33  124125  124122      34
  124131  124128      33  124134  124128      33  124134  124131      34  124140
  124137      33  124143  124137      33  124143  124140      34  124149  124146
      33  124152  124146      33  124152  124149      34  124158  124155      33
  124161  124155      33  124161  124158      34  124167  124164      33  124170
  124164      33  124170  124167      34  124176  124173      33  124179  124173
      33  124179  124176      34  124185  124182      33  124188  124182      33
  124188  124185      34  124194  124191      33  124197  124191      33  124197
  124194      34  124203  124200      33  124206  124200      33  124206  124203
      34  124212  124209      33  124215  124209      33  124215  124212      34
  124221  124218      33  124224  124218      33  124224  124221      34  124230
  124227      33  124233  124227      33  124233  124230      34  124239  124236
      33  124242  124236      33  124242  124239      34  124248  124245      33
  124251  124245      33  124251  124248      34  124257  124254      33  124260
  124254      33  124260  124257      34  124266  124263      33  124269  124263
      33  124269  124266      34  124275  124272      33  124278  124272      33
  124278  124275      34  124284  124281      33  124287  124281      33  124287
  124284      34  124293  124290      33  124296  124290      33  124296  124293
      34  124302  124299      33  124305  124299      33  124305  124302      34
  124311  124308      33  124314  124308      33  124314  124311      34  124320
  124317      33  124323  124317      33  124323  124320      34  124329  124326
      33  124332  124326      33  124332  124329      34  124338  124335      33
  124341  124335      33  124341  124338      34  124347  124344      33  124350
  124344      33  124350  124347      34  124356  124353      33  124359  124353
      33  124359  124356      34  124365  124362      33  124368  124362      33
  124368  124365      34  124374  124371      33  124377  124371      33  124377
  124374      34  124383  124380      33  124386  124380      33  124386  124383
      34  124392  124389      33  124395  124389      33  124395  124392      34
  124401  124398      33  124404  124398      33  124404  124401      34  124410
  124407      33  124413  124407      33  124413  124410      34  124419  124416
      33  124422  124416      33  124422  124419      34  124428  124425      33
  124431  124425      33  124431  124428      34  124437  124434      33  124440
  124434      33  124440  124437      34  124446  124443      33  124449  124443
      33  124449  124446      34  124455  124452      33  124458  124452      33
  124458  124455      34  124464  124461      33  124467  124461      33  124467
  124464      34  124473  124470      33  124476  124470      33  124476  124473
      34  124482  124479      33  124485  124479      33  124485  124482      34
  124491  124488      33  124494  124488      33  124494  124491      34  124500
  124497      33  124503  124497      33  124503  124500      34  124509  124506
      33  124512  124506      33  124512  124509      34  124518  124515      33
  124521  124515      33  124521  124518      34  124527  124524      33  124530
  124524      33  124530  124527      34  124536  124533      33  124539  124533
      33  124539  124536      34  124545  124542      33  124548  124542      33
  124548  124545      34  124554  124551      33  124557  124551      33  124557
  124554      34  124563  124560      33  124566  124560      33  124566  124563
      34  124572  124569      33  124575  124569      33  124575  124572      34
  124581  124578      33  124584  124578      33  124584  124581      34  124590
  124587      33  124593  124587      33  124593  124590      34  124599  124596
      33  124602  124596      33  124602  124599      34  124608  124605      33
  124611  124605      33  124611  124608      34  124617  124614      33  124620
  124614      33  124620  124617      34  124626  124623      33  124629  124623
      33  124629  124626      34  124635  124632      33  124638  124632      33
  124638  124635      34  124644  124641      33  124647  124641      33  124647
  124644      34  124653  124650      33  124656  124650      33  124656  124653
      34  124662  124659      33  124665  124659      33  124665  124662      34
  124671  124668      33  124674  124668      33  124674  124671      34  124680
  124677      33  124683  124677      33  124683  124680      34  124689  124686
      33  124692  124686      33  124692  124689      34  124698  124695      33
  124701  124695      33  124701  124698      34  124707  124704      33  124710
  124704      33  124710  124707      34  124716  124713      33  124719  124713
      33  124719  124716      34  124725  124722      33  124728  124722      33
  124728  124725      34  124734  124731      33  124737  124731      33  124737
  124734      34  124743  124740      33  124746  124740      33  124746  124743
      34  124752  124749      33  124755  124749      33  124755  124752      34
  124761  124758      33  124764  124758      33  124764  124761      34  124770
  124767      33  124773  124767      33  124773  124770      34  124779  124776
      33  124782  124776      33  124782  124779      34  124788  124785      33
  124791  124785      33  124791  124788      34  124797  124794      33  124800
  124794      33  124800  124797      34  124806  124803      33  124809  124803
      33  124809  124806      34  124815  124812      33  124818  124812      33
  124818  124815      34  124824  124821      33  124827  124821      33  124827
  124824      34  124833  124830      33  124836  124830      33  124836  124833
      34  124842  124839      33  124845  124839      33  124845  124842      34
  124851  124848      33  124854  124848      33  124854  124851      34  124860
  124857      33  124863  124857      33  124863  124860      34  124869  124866
      33  124872  124866      33  124872  124869      34  124878  124875      33
  124881  124875      33  124881  124878      34  124887  124884      33  124890
  124884      33  124890  124887      34  124896  124893      33  124899  124893
      33  124899  124896      34  124905  124902      33  124908  124902      33
  124908  124905      34  124914  124911      33  124917  124911      33  124917
  124914      34  124923  124920      33  124926  124920      33  124926  124923
      34  124932  124929      33  124935  124929      33  124935  124932      34
  124941  124938      33  124944  124938      33  124944  124941      34  124950
  124947      33  124953  124947      33  124953  124950      34  124959  124956
      33  124962  124956      33  124962  124959      34  124968  124965      33
  124971  124965      33  124971  124968      34  124977  124974      33  124980
  124974      33  124980  124977      34  124986  124983      33  124989  124983
      33  124989  124986      34  124995  124992      33  124998  124992      33
  124998  124995      34  125004  125001      33  125007  125001      33  125007
  125004      34  125013  125010      33  125016  125010      33  125016  125013
      34  125022  125019      33  125025  125019      33  125025  125022      34
  125031  125028      33  125034  125028      33  125034  125031      34  125040
  125037      33  125043  125037      33  125043  125040      34  125049  125046
      33  125052  125046      33  125052  125049      34  125058  125055      33
  125061  125055      33  125061  125058      34  125067  125064      33  125070
  125064      33  125070  125067      34  125076  125073      33  125079  125073
      33  125079  125076      34  125085  125082      33  125088  125082      33
  125088  125085      34  125094  125091      33  125097  125091      33  125097
  125094      34  125103  125100      33  125106  125100      33  125106  125103
      34  125112  125109      33  125115  125109      33  125115  125112      34
  125121  125118      33  125124  125118      33  125124  125121      34  125130
  125127      33  125133  125127      33  125133  125130      34  125139  125136
      33  125142  125136      33  125142  125139      34  125148  125145      33
  125151  125145      33  125151  125148      34  125157  125154      33  125160
  125154      33  125160  125157      34  125166  125163      33  125169  125163
      33  125169  125166      34  125175  125172      33  125178  125172      33
  125178  125175      34  125184  125181      33  125187  125181      33  125187
  125184      34  125193  125190      33  125196  125190      33  125196  125193
      34  125202  125199      33  125205  125199      33  125205  125202      34
  125211  125208      33  125214  125208      33  125214  125211      34  125220
  125217      33  125223  125217      33  125223  125220      34  125229  125226
      33  125232  125226      33  125232  125229      34  125238  125235      33
  125241  125235      33  125241  125238      34  125247  125244      33  125250
  125244      33  125250  125247      34  125256  125253      33  125259  125253
      33  125259  125256      34  125265  125262      33  125268  125262      33
  125268  125265      34  125274  125271      33  125277  125271      33  125277
  125274      34  125283  125280      33  125286  125280      33  125286  125283
      34  125292  125289      33  125295  125289      33  125295  125292      34
  125301  125298      33  125304  125298      33  125304  125301      34  125310
  125307      33  125313  125307      33  125313  125310      34  125319  125316
      33  125322  125316      33  125322  125319      34  125328  125325      33
  125331  125325      33  125331  125328      34  125337  125334      33  125340
  125334      33  125340  125337      34  125346  125343      33  125349  125343
      33  125349  125346      34  125355  125352      33  125358  125352      33
  125358  125355      34  125364  125361      33  125367  125361      33  125367
  125364      34  125373  125370      33  125376  125370      33  125376  125373
      34  125382  125379      33  125385  125379      33  125385  125382      34
  125391  125388      33  125394  125388      33  125394  125391      34  125400
  125397      33  125403  125397      33  125403  125400      34  125409  125406
      33  125412  125406      33  125412  125409      34  125418  125415      33
  125421  125415      33  125421  125418      34  125427  125424      33  125430
  125424      33  125430  125427      34  125436  125433      33  125439  125433
      33  125439  125436      34  125445  125442      33  125448  125442      33
  125448  125445      34  125454  125451      33  125457  125451      33  125457
  125454      34  125463  125460      33  125466  125460      33  125466  125463
      34  125472  125469      33  125475  125469      33  125475  125472      34
  125481  125478      33  125484  125478      33  125484  125481      34  125490
  125487      33  125493  125487      33  125493  125490      34  125499  125496
      33  125502  125496      33  125502  125499      34  125508  125505      33
  125511  125505      33  125511  125508      34  125517  125514      33  125520
  125514      33  125520  125517      34  125526  125523      33  125529  125523
      33  125529  125526      34  125535  125532      33  125538  125532      33
  125538  125535      34  125544  125541      33  125547  125541      33  125547
  125544      34  125553  125550      33  125556  125550      33  125556  125553
      34  125562  125559      33  125565  125559      33  125565  125562      34
  125571  125568      33  125574  125568      33  125574  125571      34  125580
  125577      33  125583  125577      33  125583  125580      34  125589  125586
      33  125592  125586      33  125592  125589      34  125598  125595      33
  125601  125595      33  125601  125598      34  125607  125604      33  125610
  125604      33  125610  125607      34  125616  125613      33  125619  125613
      33  125619  125616      34  125625  125622      33  125628  125622      33
  125628  125625      34  125634  125631      33  125637  125631      33  125637
  125634      34  125643  125640      33  125646  125640      33  125646  125643
      34  125652  125649      33  125655  125649      33  125655  125652      34
  125661  125658      33  125664  125658      33  125664  125661      34  125670
  125667      33  125673  125667      33  125673  125670      34  125679  125676
      33  125682  125676      33  125682  125679      34  125688  125685      33
  125691  125685      33  125691  125688      34  125697  125694      33  125700
  125694      33  125700  125697      34  125706  125703      33  125709  125703
      33  125709  125706      34  125715  125712      33  125718  125712      33
  125718  125715      34  125724  125721      33  125727  125721      33  125727
  125724      34  125733  125730      33  125736  125730      33  125736  125733
      34  125742  125739      33  125745  125739      33  125745  125742      34
  125751  125748      33  125754  125748      33  125754  125751      34  125760
  125757      33  125763  125757      33  125763  125760      34  125769  125766
      33  125772  125766      33  125772  125769      34  125778  125775      33
  125781  125775      33  125781  125778      34  125787  125784      33  125790
  125784      33  125790  125787      34  125796  125793      33  125799  125793
      33  125799  125796      34  125805  125802      33  125808  125802      33
  125808  125805      34  125814  125811      33  125817  125811      33  125817
  125814      34  125823  125820      33  125826  125820      33  125826  125823
      34  125832  125829      33  125835  125829      33  125835  125832      34
  125841  125838      33  125844  125838      33  125844  125841      34  125850
  125847      33  125853  125847      33  125853  125850      34  125859  125856
      33  125862  125856      33  125862  125859      34  125868  125865      33
  125871  125865      33  125871  125868      34  125877  125874      33  125880
  125874      33  125880  125877      34  125886  125883      33  125889  125883
      33  125889  125886      34  125895  125892      33  125898  125892      33
  125898  125895      34  125904  125901      33  125907  125901      33  125907
  125904      34  125913  125910      33  125916  125910      33  125916  125913
      34  125922  125919      33  125925  125919      33  125925  125922      34
  125931  125928      33  125934  125928      33  125934  125931      34  125940
  125937      33  125943  125937      33  125943  125940      34  125949  125946
      33  125952  125946      33  125952  125949      34  125958  125955      33
  125961  125955      33  125961  125958      34  125967  125964      33  125970
  125964      33  125970  125967      34  125976  125973      33  125979  125973
      33  125979  125976      34  125985  125982      33  125988  125982      33
  125988  125985      34  125994  125991      33  125997  125991      33  125997
  125994      34  126003  126000      33  126006  126000      33  126006  126003
      34  126012  126009      33  126015  126009      33  126015  126012      34
  126021  126018      33  126024  126018      33  126024  126021      34  126030
  126027      33  126033  126027      33  126033  126030      34  126039  126036
      33  126042  126036      33  126042  126039      34  126048  126045      33
  126051  126045      33  126051  126048      34  126057  126054      33  126060
  126054      33  126060  126057      34  126066  126063      33  126069  126063
      33  126069  126066      34  126075  126072      33  126078  126072      33
  126078  126075      34  126084  126081      33  126087  126081      33  126087
  126084      34  126093  126090      33  126096  126090      33  126096  126093
      34  126102  126099      33  126105  126099      33  126105  126102      34
  126111  126108      33  126114  126108      33  126114  126111      34  126120
  126117      33  126123  126117      33  126123  126120      34  126129  126126
      33  126132  126126      33  126132  126129      34  126138  126135      33
  126141  126135      33  126141  126138      34  126147  126144      33  126150
  126144      33  126150  126147      34  126156  126153      33  126159  126153
      33  126159  126156      34  126165  126162      33  126168  126162      33
  126168  126165      34  126174  126171      33  126177  126171      33  126177
  126174      34  126183  126180      33  126186  126180      33  126186  126183
      34  126192  126189      33  126195  126189      33  126195  126192      34
  126201  126198      33  126204  126198      33  126204  126201      34  126210
  126207      33  126213  126207      33  126213  126210      34  126219  126216
      33  126222  126216      33  126222  126219      34  126228  126225      33
  126231  126225      33  126231  126228      34  126237  126234      33  126240
  126234      33  126240  126237      34  126246  126243      33  126249  126243
      33  126249  126246      34  126255  126252      33  126258  126252      33
  126258  126255      34  126264  126261      33  126267  126261      33  126267
  126264      34  126273  126270      33  126276  126270      33  126276  126273
      34  126282  126279      33  126285  126279      33  126285  126282      34
  126291  126288      33  126294  126288      33  126294  126291      34  126300
  126297      33  126303  126297      33  126303  126300      34  126309  126306
      33  126312  126306      33  126312  126309      34  126318  126315      33
  126321  126315      33  126321  126318      34  126327  126324      33  126330
  126324      33  126330  126327      34  126336  126333      33  126339  126333
      33  126339  126336      34  126345  126342      33  126348  126342      33
  126348  126345      34  126354  126351      33  126357  126351      33  126357
  126354      34  126363  126360      33  126366  126360      33  126366  126363
      34  126372  126369      33  126375  126369      33  126375  126372      34
  126381  126378      33  126384  126378      33  126384  126381      34  126390
  126387      33  126393  126387      33  126393  126390      34  126399  126396
      33  126402  126396      33  126402  126399      34  126408  126405      33
  126411  126405      33  126411  126408      34  126417  126414      33  126420
  126414      33  126420  126417      34  126426  126423      33  126429  126423
      33  126429  126426      34  126435  126432      33  126438  126432      33
  126438  126435      34  126444  126441      33  126447  126441      33  126447
  126444      34  126453  126450      33  126456  126450      33  126456  126453
      34  126462  126459      33  126465  126459      33  126465  126462      34
  126471  126468      33  126474  126468      33  126474  126471      34  126480
  126477      33  126483  126477      33  126483  126480      34  126489  126486
      33  126492  126486      33  126492  126489      34  126498  126495      33
  126501  126495      33  126501  126498      34  126507  126504      33  126510
  126504      33  126510  126507      34  126516  126513      33  126519  126513
      33  126519  126516      34  126525  126522      33  126528  126522      33
  126528  126525      34  126534  126531      33  126537  126531      33  126537
  126534      34  126543  126540      33  126546  126540      33  126546  126543
      34  126552  126549      33  126555  126549      33  126555  126552      34
  126561  126558      33  126564  126558      33  126564  126561      34  126570
  126567      33  126573  126567      33  126573  126570      34  126579  126576
      33  126582  126576      33  126582  126579      34  126588  126585      33
  126591  126585      33  126591  126588      34  126597  126594      33  126600
  126594      33  126600  126597      34  126606  126603      33  126609  126603
      33  126609  126606      34  126615  126612      33  126618  126612      33
  126618  126615      34  126624  126621      33  126627  126621      33  126627
  126624      34  126633  126630      33  126636  126630      33  126636  126633
      34  126642  126639      33  126645  126639      33  126645  126642      34
  126651  126648      33  126654  126648      33  126654  126651      34  126660
  126657      33  126663  126657      33  126663  126660      34  126669  126666
      33  126672  126666      33  126672  126669      34  126678  126675      33
  126681  126675      33  126681  126678      34  126687  126684      33  126690
  126684      33  126690  126687      34  126696  126693      33  126699  126693
      33  126699  126696      34  126705  126702      33  126708  126702      33
  126708  126705      34  126714  126711      33  126717  126711      33  126717
  126714      34  126723  126720      33  126726  126720      33  126726  126723
      34  126732  126729      33  126735  126729      33  126735  126732      34
  126741  126738      33  126744  126738      33  126744  126741      34  126750
  126747      33  126753  126747      33  126753  126750      34  126759  126756
      33  126762  126756      33  126762  126759      34  126768  126765      33
  126771  126765      33  126771  126768      34  126777  126774      33  126780
  126774      33  126780  126777      34  126786  126783      33  126789  126783
      33  126789  126786      34  126795  126792      33  126798  126792      33
  126798  126795      34  126804  126801      33  126807  126801      33  126807
  126804      34  126813  126810      33  126816  126810      33  126816  126813
      34  126822  126819      33  126825  126819      33  126825  126822      34
  126831  126828      33  126834  126828      33  126834  126831      34  126840
  126837      33  126843  126837      33  126843  126840      34  126849  126846
      33  126852  126846      33  126852  126849      34  126858  126855      33
  126861  126855      33  126861  126858      34  126867  126864      33  126870
  126864      33  126870  126867      34  126876  126873      33  126879  126873
      33  126879  126876      34  126885  126882      33  126888  126882      33
  126888  126885      34  126894  126891      33  126897  126891      33  126897
  126894      34  126903  126900      33  126906  126900      33  126906  126903
      34  126912  126909      33  126915  126909      33  126915  126912      34
  126921  126918      33  126924  126918      33  126924  126921      34  126930
  126927      33  126933  126927      33  126933  126930      34  126939  126936
      33  126942  126936      33  126942  126939      34  126948  126945      33
  126951  126945      33  126951  126948      34  126957  126954      33  126960
  126954      33  126960  126957      34  126966  126963      33  126969  126963
      33  126969  126966      34  126975  126972      33  126978  126972      33
  126978  126975      34  126984  126981      33  126987  126981      33  126987
  126984      34  126993  126990      33  126996  126990      33  126996  126993
      34  127002  126999      33  127005  126999      33  127005  127002      34
  127011  127008      33  127014  127008      33  127014  127011      34  127020
  127017      33  127023  127017      33  127023  127020      34  127029  127026
      33  127032  127026      33  127032  127029      34  127038  127035      33
  127041  127035      33  127041  127038      34  127047  127044      33  127050
  127044      33  127050  127047      34  127056  127053      33  127059  127053
      33  127059  127056      34  127065  127062      33  127068  127062      33
  127068  127065      34  127074  127071      33  127077  127071      33  127077
  127074      34  127083  127080      33  127086  127080      33  127086  127083
      34  127092  127089      33  127095  127089      33  127095  127092      34
  127101  127098      33  127104  127098      33  127104  127101      34  127110
  127107      33  127113  127107      33  127113  127110      34  127119  127116
      33  127122  127116      33  127122  127119      34  127128  127125      33
  127131  127125      33  127131  127128      34  127137  127134      33  127140
  127134      33  127140  127137      34  127146  127143      33  127149  127143
      33  127149  127146      34  127155  127152      33  127158  127152      33
  127158  127155      34  127164  127161      33  127167  127161      33  127167
  127164      34  127173  127170      33  127176  127170      33  127176  127173
      34  127182  127179      33  127185  127179      33  127185  127182      34
  127191  127188      33  127194  127188      33  127194  127191      34  127200
  127197      33  127203  127197      33  127203  127200      34  127209  127206
      33  127212  127206      33  127212  127209      34  127218  127215      33
  127221  127215      33  127221  127218      34  127227  127224      33  127230
  127224      33  127230  127227      34  127236  127233      33  127239  127233
      33  127239  127236      34  127245  127242      33  127248  127242      33
  127248  127245      34  127254  127251      33  127257  127251      33  127257
  127254      34  127263  127260      33  127266  127260      33  127266  127263
      34  127272  127269      33  127275  127269      33  127275  127272      34
  127281  127278      33  127284  127278      33  127284  127281      34  127290
  127287      33  127293  127287      33  127293  127290      34  127299  127296
      33  127302  127296      33  127302  127299      34  127308  127305      33
  127311  127305      33  127311  127308      34  127317  127314      33  127320
  127314      33  127320  127317      34  127326  127323      33  127329  127323
      33  127329  127326      34  127335  127332      33  127338  127332      33
  127338  127335      34  127344  127341      33  127347  127341      33  127347
  127344      34  127353  127350      33  127356  127350      33  127356  127353
      34  127362  127359      33  127365  127359      33  127365  127362      34
  127371  127368      33  127374  127368      33  127374  127371      34  127380
  127377      33  127383  127377      33  127383  127380      34  127389  127386
      33  127392  127386      33  127392  127389      34  127398  127395      33
  127401  127395      33  127401  127398      34  127407  127404      33  127410
  127404      33  127410  127407      34  127416  127413      33  127419  127413
      33  127419  127416      34  127425  127422      33  127428  127422      33
  127428  127425      34  127434  127431      33  127437  127431      33  127437
  127434      34  127443  127440      33  127446  127440      33  127446  127443
      34  127452  127449      33  127455  127449      33  127455  127452      34
  127461  127458      33  127464  127458      33  127464  127461      34  127470
  127467      33  127473  127467      33  127473  127470      34  127479  127476
      33  127482  127476      33  127482  127479      34  127488  127485      33
  127491  127485      33  127491  127488      34  127497  127494      33  127500
  127494      33  127500  127497      34  127506  127503      33  127509  127503
      33  127509  127506      34  127515  127512      33  127518  127512      33
  127518  127515      34  127524  127521      33  127527  127521      33  127527
  127524      34  127533  127530      33  127536  127530      33  127536  127533
      34  127542  127539      33  127545  127539      33  127545  127542      34
  127551  127548      33  127554  127548      33  127554  127551      34  127560
  127557      33  127563  127557      33  127563  127560      34  127569  127566
      33  127572  127566      33  127572  127569      34  127578  127575      33
  127581  127575      33  127581  127578      34  127587  127584      33  127590
  127584      33  127590  127587      34  127596  127593      33  127599  127593
      33  127599  127596      34  127605  127602      33  127608  127602      33
  127608  127605      34  127614  127611      33  127617  127611      33  127617
  127614      34  127623  127620      33  127626  127620      33  127626  127623
      34  127632  127629      33  127635  127629      33  127635  127632      34
  127641  127638      33  127644  127638      33  127644  127641      34  127650
  127647      33  127653  127647      33  127653  127650      34  127659  127656
      33  127662  127656      33  127662  127659      34  127668  127665      33
  127671  127665      33  127671  127668      34  127677  127674      33  127680
  127674      33  127680  127677      34  127686  127683      33  127689  127683
      33  127689  127686      34  127695  127692      33  127698  127692      33
  127698  127695      34  127704  127701      33  127707  127701      33  127707
  127704      34  127713  127710      33  127716  127710      33  127716  127713
      34  127722  127719      33  127725  127719      33  127725  127722      34
  127731  127728      33  127734  127728      33  127734  127731      34  127740
  127737      33  127743  127737      33  127743  127740      34  127749  127746
      33  127752  127746      33  127752  127749      34  127758  127755      33
  127761  127755      33  127761  127758      34  127767  127764      33  127770
  127764      33  127770  127767      34  127776  127773      33  127779  127773
      33  127779  127776      34  127785  127782      33  127788  127782      33
  127788  127785      34  127794  127791      33  127797  127791      33  127797
  127794      34  127803  127800      33  127806  127800      33  127806  127803
      34  127812  127809      33  127815  127809      33  127815  127812      34
  127821  127818      33  127824  127818      33  127824  127821      34  127830
  127827      33  127833  127827      33  127833  127830      34  127839  127836
      33  127842  127836      33  127842  127839      34  127848  127845      33
  127851  127845      33  127851  127848      34  127857  127854      33  127860
  127854      33  127860  127857      34  127866  127863      33  127869  127863
      33  127869  127866      34  127875  127872      33  127878  127872      33
  127878  127875      34  127884  127881      33  127887  127881      33  127887
  127884      34  127893  127890      33  127896  127890      33  127896  127893
      34  127902  127899      33  127905  127899      33  127905  127902      34
  127911  127908      33  127914  127908      33  127914  127911      34  127920
  127917      33  127923  127917      33  127923  127920      34  127929  127926
      33  127932  127926      33  127932  127929      34  127938  127935      33
  127941  127935      33  127941  127938      34  127947  127944      33  127950
  127944      33  127950  127947      34  127956  127953      33  127959  127953
      33  127959  127956      34  127965  127962      33  127968  127962      33
  127968  127965      34  127974  127971      33  127977  127971      33  127977
  127974      34  127983  127980      33  127986  127980      33  127986  127983
      34  127992  127989      33  127995  127989      33  127995  127992      34
  128001  127998      33  128004  127998      33  128004  128001      34  128010
  128007      33  128013  128007      33  128013  128010      34  128019  128016
      33  128022  128016      33  128022  128019      34  128028  128025      33
  128031  128025      33  128031  128028      34  128037  128034      33  128040
  128034      33  128040  128037      34  128046  128043      33  128049  128043
      33  128049  128046      34  128055  128052      33  128058  128052      33
  128058  128055      34  128064  128061      33  128067  128061      33  128067
  128064      34  128073  128070      33  128076  128070      33  128076  128073
      34  128082  128079      33  128085  128079      33  128085  128082      34
  128091  128088      33  128094  128088      33  128094  128091      34  128100
  128097      33  128103  128097      33  128103  128100      34  128109  128106
      33  128112  128106      33  128112  128109      34  128118  128115      33
  128121  128115      33  128121  128118      34  128127  128124      33  128130
  128124      33  128130  128127      34  128136  128133      33  128139  128133
      33  128139  128136      34  128145  128142      33  128148  128142      33
  128148  128145      34  128154  128151      33  128157  128151      33  128157
  128154      34  128163  128160      33  128166  128160      33  128166  128163
      34  128172  128169      33  128175  128169      33  128175  128172      34
  128181  128178      33  128184  128178      33  128184  128181      34  128190
  128187      33  128193  128187      33  128193  128190      34  128199  128196
      33  128202  128196      33  128202  128199      34  128208  128205      33
  128211  128205      33  128211  128208      34  128217  128214      33  128220
  128214      33  128220  128217      34  128226  128223      33  128229  128223
      33  128229  128226      34  128235  128232      33  128238  128232      33
  128238  128235      34  128244  128241      33  128247  128241      33  128247
  128244      34  128253  128250      33  128256  128250      33  128256  128253
      34  128262  128259      33  128265  128259      33  128265  128262      34
  128271  128268      33  128274  128268      33  128274  128271      34  128280
  128277      33  128283  128277      33  128283  128280      34  128289  128286
      33  128292  128286      33  128292  128289      34  128298  128295      33
  128301  128295      33  128301  128298      34  128307  128304      33  128310
  128304      33  128310  128307      34  128316  128313      33  128319  128313
      33  128319  128316      34  128325  128322      33  128328  128322      33
  128328  128325      34  128334  128331      33  128337  128331      33  128337
  128334      34  128343  128340      33  128346  128340      33  128346  128343
      34  128352  128349      33  128355  128349      33  128355  128352      34
  128361  128358      33  128364  128358      33  128364  128361      34  128370
  128367      33  128373  128367      33  128373  128370      34  128379  128376
      33  128382  128376      33  128382  128379      34  128388  128385      33
  128391  128385      33  128391  128388      34  128397  128394      33  128400
  128394      33  128400  128397      34  128406  128403      33  128409  128403
      33  128409  128406      34  128415  128412      33  128418  128412      33
  128418  128415      34  128424  128421      33  128427  128421      33  128427
  128424      34  128433  128430      33  128436  128430      33  128436  128433
      34  128442  128439      33  128445  128439      33  128445  128442      34
  128451  128448      33  128454  128448      33  128454  128451      34  128460
  128457      33  128463  128457      33  128463  128460      34  128469  128466
      33  128472  128466      33  128472  128469      34  128478  128475      33
  128481  128475      33  128481  128478      34  128487  128484      33  128490
  128484      33  128490  128487      34  128496  128493      33  128499  128493
      33  128499  128496      34  128505  128502      33  128508  128502      33
  128508  128505      34  128514  128511      33  128517  128511      33  128517
  128514      34  128523  128520      33  128526  128520      33  128526  128523
      34  128532  128529      33  128535  128529      33  128535  128532      34
  128541  128538      33  128544  128538      33  128544  128541      34  128550
  128547      33  128553  128547      33  128553  128550      34  128559  128556
      33  128562  128556      33  128562  128559      34  128568  128565      33
  128571  128565      33  128571  128568      34  128577  128574      33  128580
  128574      33  128580  128577      34  128586  128583      33  128589  128583
      33  128589  128586      34  128595  128592      33  128598  128592      33
  128598  128595      34  128604  128601      33  128607  128601      33  128607
  128604      34  128613  128610      33  128616  128610      33  128616  128613
      34  128622  128619      33  128625  128619      33  128625  128622      34
  128631  128628      33  128634  128628      33  128634  128631      34  128640
  128637      33  128643  128637      33  128643  128640      34  128649  128646
      33  128652  128646      33  128652  128649      34  128658  128655      33
  128661  128655      33  128661  128658      34  128667  128664      33  128670
  128664      33  128670  128667      34  128676  128673      33  128679  128673
      33  128679  128676      34  128685  128682      33  128688  128682      33
  128688  128685      34  128694  128691      33  128697  128691      33  128697
  128694      34  128703  128700      33  128706  128700      33  128706  128703
      34  128712  128709      33  128715  128709      33  128715  128712      34
  128721  128718      33  128724  128718      33  128724  128721      34  128730
  128727      33  128733  128727      33  128733  128730      34  128739  128736
      33  128742  128736      33  128742  128739      34  128748  128745      33
  128751  128745      33  128751  128748      34  128757  128754      33  128760
  128754      33  128760  128757      34  128766  128763      33  128769  128763
      33  128769  128766      34  128775  128772      33  128778  128772      33
  128778  128775      34  128784  128781      33  128787  128781      33  128787
  128784      34  128793  128790      33  128796  128790      33  128796  128793
      34  128802  128799      33  128805  128799      33  128805  128802      34
  128811  128808      33  128814  128808      33  128814  128811      34  128820
  128817      33  128823  128817      33  128823  128820      34  128829  128826
      33  128832  128826      33  128832  128829      34  128838  128835      33
  128841  128835      33  128841  128838      34  128847  128844      33  128850
  128844      33  128850  128847      34  128856  128853      33  128859  128853
      33  128859  128856      34  128865  128862      33  128868  128862      33
  128868  128865      34  128874  128871      33  128877  128871      33  128877
  128874      34  128883  128880      33  128886  128880      33  128886  128883
      34  128892  128889      33  128895  128889      33  128895  128892      34
  128901  128898      33  128904  128898      33  128904  128901      34  128910
  128907      33  128913  128907      33  128913  128910      34  128919  128916
      33  128922  128916      33  128922  128919      34  128928  128925      33
  128931  128925      33  128931  128928      34  128937  128934      33  128940
  128934      33  128940  128937      34  128946  128943      33  128949  128943
      33  128949  128946      34  128955  128952      33  128958  128952      33
  128958  128955      34  128964  128961      33  128967  128961      33  128967
  128964      34  128973  128970      33  128976  128970      33  128976  128973
      34  128982  128979      33  128985  128979      33  128985  128982      34
  128991  128988      33  128994  128988      33  128994  128991      34  129000
  128997      33  129003  128997      33  129003  129000      34  129009  129006
      33  129012  129006      33  129012  129009      34  129018  129015      33
  129021  129015      33  129021  129018      34  129027  129024      33  129030
  129024      33  129030  129027      34  129036  129033      33  129039  129033
      33  129039  129036      34  129045  129042      33  129048  129042      33
  129048  129045      34  129054  129051      33  129057  129051      33  129057
  129054      34  129063  129060      33  129066  129060      33  129066  129063
      34  129072  129069      33  129075  129069      33  129075  129072      34
  129081  129078      33  129084  129078      33  129084  129081      34  129090
  129087      33  129093  129087      33  129093  129090      34  129099  129096
      33  129102  129096      33  129102  129099      34  129108  129105      33
  129111  129105      33  129111  129108      34  129117  129114      33  129120
  129114      33  129120  129117      34  129126  129123      33  129129  129123
      33  129129  129126      34  129135  129132      33  129138  129132      33
  129138  129135      34  129144  129141      33  129147  129141      33  129147
  129144      34  129153  129150      33  129156  129150      33  129156  129153
      34  129162  129159      33  129165  129159      33  129165  129162      34
  129171  129168      33  129174  129168      33  129174  129171      34  129180
  129177      33  129183  129177      33  129183  129180      34  129189  129186
      33  129192  129186      33  129192  129189      34  129198  129195      33
  129201  129195      33  129201  129198      34  129207  129204      33  129210
  129204      33  129210  129207      34  129216  129213      33  129219  129213
      33  129219  129216      34  129225  129222      33  129228  129222      33
  129228  129225      34  129234  129231      33  129237  129231      33  129237
  129234      34  129243  129240      33  129246  129240      33  129246  129243
      34  129252  129249      33  129255  129249      33  129255  129252      34
  129261  129258      33  129264  129258      33  129264  129261      34  129270
  129267      33  129273  129267      33  129273  129270      34  129279  129276
      33  129282  129276      33  129282  129279      34  129288  129285      33
  129291  129285      33  129291  129288      34  129297  129294      33  129300
  129294      33  129300  129297      34  129306  129303      33  129309  129303
      33  129309  129306      34  129315  129312      33  129318  129312      33
  129318  129315      34  129324  129321      33  129327  129321      33  129327
  129324      34  129333  129330      33  129336  129330      33  129336  129333
      34  129342  129339      33  129345  129339      33  129345  129342      34
  129351  129348      33  129354  129348      33  129354  129351      34  129360
  129357      33  129363  129357      33  129363  129360      34  129369  129366
      33  129372  129366      33  129372  129369      34  129378  129375      33
  129381  129375      33  129381  129378      34  129387  129384      33  129390
  129384      33  129390  129387      34  129396  129393      33  129399  129393
      33  129399  129396      34  129405  129402      33  129408  129402      33
  129408  129405      34  129414  129411      33  129417  129411      33  129417
  129414      34  129423  129420      33  129426  129420      33  129426  129423
      34  129432  129429      33  129435  129429      33  129435  129432      34
  129441  129438      33  129444  129438      33  129444  129441      34  129450
  129447      33  129453  129447      33  129453  129450      34  129459  129456
      33  129462  129456      33  129462  129459      34  129468  129465      33
  129471  129465      33  129471  129468      34  129477  129474      33  129480
  129474      33  129480  129477      34  129486  129483      33  129489  129483
      33  129489  129486      34  129495  129492      33  129498  129492      33
  129498  129495      34  129504  129501      33  129507  129501      33  129507
  129504      34  129513  129510      33  129516  129510      33  129516  129513
      34  129522  129519      33  129525  129519      33  129525  129522      34
  129531  129528      33  129534  129528      33  129534  129531      34  129540
  129537      33  129543  129537      33  129543  129540      34  129549  129546
      33  129552  129546      33  129552  129549      34  129558  129555      33
  129561  129555      33  129561  129558      34  129567  129564      33  129570
  129564      33  129570  129567      34  129576  129573      33  129579  129573
      33  129579  129576      34  129585  129582      33  129588  129582      33
  129588  129585      34  129594  129591      33  129597  129591      33  129597
  129594      34  129603  129600      33  129606  129600      33  129606  129603
      34  129612  129609      33  129615  129609      33  129615  129612      34
  129621  129618      33  129624  129618      33  129624  129621      34  129630
  129627      33  129633  129627      33  129633  129630      34  129639  129636
      33  129642  129636      33  129642  129639      34  129648  129645      33
  129651  129645      33  129651  129648      34  129657  129654      33  129660
  129654      33  129660  129657      34  129666  129663      33  129669  129663
      33  129669  129666      34  129675  129672      33  129678  129672      33
  129678  129675      34  129684  129681      33  129687  129681      33  129687
  129684      34  129693  129690      33  129696  129690      33  129696  129693
      34  129702  129699      33  129705  129699      33  129705  129702      34
  129711  129708      33  129714  129708      33  129714  129711      34  129720
  129717      33  129723  129717      33  129723  129720      34  129729  129726
      33  129732  129726      33  129732  129729      34  129738  129735      33
  129741  129735      33  129741  129738      34  129747  129744      33  129750
  129744      33  129750  129747      34  129756  129753      33  129759  129753
      33  129759  129756      34  129765  129762      33  129768  129762      33
  129768  129765      34  129774  129771      33  129777  129771      33  129777
  129774      34  129783  129780      33  129786  129780      33  129786  129783
      34  129792  129789      33  129795  129789      33  129795  129792      34
  129801  129798      33  129804  129798      33  129804  129801      34  129810
  129807      33  129813  129807      33  129813  129810      34  129819  129816
      33  129822  129816      33  129822  129819      34  129828  129825      33
  129831  129825      33  129831  129828      34  129837  129834      33  129840
  129834      33  129840  129837      34  129846  129843      33  129849  129843
      33  129849  129846      34  129855  129852      33  129858  129852      33
  129858  129855      34  129864  129861      33  129867  129861      33  129867
  129864      34  129873  129870      33  129876  129870      33  129876  129873
      34  129882  129879      33  129885  129879      33  129885  129882      34
  129891  129888      33  129894  129888      33  129894  129891      34  129900
  129897      33  129903  129897      33  129903  129900      34  129909  129906
      33  129912  129906      33  129912  129909      34  129918  129915      33
  129921  129915      33  129921  129918      34  129927  129924      33  129930
  129924      33  129930  129927      34  129936  129933      33  129939  129933
      33  129939  129936      34  129945  129942      33  129948  129942      33
  129948  129945      34  129954  129951      33  129957  129951      33  129957
  129954      34  129963  129960      33  129966  129960      33  129966  129963
      34  129972  129969      33  129975  129969      33  129975  129972      34
  129981  129978      33  129984  129978      33  129984  129981      34  129990
  129987      33  129993  129987      33  129993  129990      34  129999  129996
      33  130002  129996      33  130002  129999      34  130008  130005      33
  130011  130005      33  130011  130008      34  130017  130014      33  130020
  130014      33  130020  130017      34  130026  130023      33  130029  130023
      33  130029  130026      34  130035  130032      33  130038  130032      33
  130038  130035      34  130044  130041      33  130047  130041      33  130047
  130044      34  130053  130050      33  130056  130050      33  130056  130053
      34  130062  130059      33  130065  130059      33  130065  130062      34
  130071  130068      33  130074  130068      33  130074  130071      34  130080
  130077      33  130083  130077      33  130083  130080      34  130089  130086
      33  130092  130086      33  130092  130089      34  130098  130095      33
  130101  130095      33  130101  130098      34  130107  130104      33  130110
  130104      33  130110  130107      34  130116  130113      33  130119  130113
      33  130119  130116      34  130125  130122      33  130128  130122      33
  130128  130125      34  130134  130131      33  130137  130131      33  130137
  130134      34  130143  130140      33  130146  130140      33  130146  130143
      34  130152  130149      33  130155  130149      33  130155  130152      34
  130161  130158      33  130164  130158      33  130164  130161      34  130170
  130167      33  130173  130167      33  130173  130170      34  130179  130176
      33  130182  130176      33  130182  130179      34  130188  130185      33
  130191  130185      33  130191  130188      34  130197  130194      33  130200
  130194      33  130200  130197      34  130206  130203      33  130209  130203
      33  130209  130206      34  130215  130212      33  130218  130212      33
  130218  130215      34  130224  130221      33  130227  130221      33  130227
  130224      34  130233  130230      33  130236  130230      33  130236  130233
      34  130242  130239      33  130245  130239      33  130245  130242      34
  130251  130248      33  130254  130248      33  130254  130251      34  130260
  130257      33  130263  130257      33  130263  130260      34  130269  130266
      33  130272  130266      33  130272  130269      34  130278  130275      33
  130281  130275      33  130281  130278      34  130287  130284      33  130290
  130284      33  130290  130287      34  130296  130293      33  130299  130293
      33  130299  130296      34  130305  130302      33  130308  130302      33
  130308  130305      34  130314  130311      33  130317  130311      33  130317
  130314      34  130323  130320      33  130326  130320      33  130326  130323
      34  130332  130329      33  130335  130329      33  130335  130332      34
  130341  130338      33  130344  130338      33  130344  130341      34  130350
  130347      33  130353  130347      33  130353  130350      34  130359  130356
      33  130362  130356      33  130362  130359      34  130368  130365      33
  130371  130365      33  130371  130368      34  130377  130374      33  130380
  130374      33  130380  130377      34  130386  130383      33  130389  130383
      33  130389  130386      34  130395  130392      33  130398  130392      33
  130398  130395      34  130404  130401      33  130407  130401      33  130407
  130404      34  130413  130410      33  130416  130410      33  130416  130413
      34  130422  130419      33  130425  130419      33  130425  130422      34
  130431  130428      33  130434  130428      33  130434  130431      34  130440
  130437      33  130443  130437      33  130443  130440      34  130449  130446
      33  130452  130446      33  130452  130449      34  130458  130455      33
  130461  130455      33  130461  130458      34  130467  130464      33  130470
  130464      33  130470  130467      34  130476  130473      33  130479  130473
      33  130479  130476      34  130485  130482      33  130488  130482      33
  130488  130485      34  130494  130491      33  130497  130491      33  130497
  130494      34  130503  130500      33  130506  130500      33  130506  130503
      34  130512  130509      33  130515  130509      33  130515  130512      34
  130521  130518      33  130524  130518      33  130524  130521      34  130530
  130527      33  130533  130527      33  130533  130530      34  130539  130536
      33  130542  130536      33  130542  130539      34  130548  130545      33
  130551  130545      33  130551  130548      34  130557  130554      33  130560
  130554      33  130560  130557      34  130566  130563      33  130569  130563
      33  130569  130566      34  130575  130572      33  130578  130572      33
  130578  130575      34  130584  130581      33  130587  130581      33  130587
  130584      34  130593  130590      33  130596  130590      33  130596  130593
      34  130602  130599      33  130605  130599      33  130605  130602      34
  130611  130608      33  130614  130608      33  130614  130611      34  130620
  130617      33  130623  130617      33  130623  130620      34  130629  130626
      33  130632  130626      33  130632  130629      34  130638  130635      33
  130641  130635      33  130641  130638      34  130647  130644      33  130650
  130644      33  130650  130647      34  130656  130653      33  130659  130653
      33  130659  130656      34  130665  130662      33  130668  130662      33
  130668  130665      34  130674  130671      33  130677  130671      33  130677
  130674      34  130683  130680      33  130686  130680      33  130686  130683
      34  130692  130689      33  130695  130689      33  130695  130692      34
  130701  130698      33  130704  130698      33  130704  130701      34  130710
  130707      33  130713  130707      33  130713  130710      34  130719  130716
      33  130722  130716      33  130722  130719      34  130728  130725      33
  130731  130725      33  130731  130728      34  130737  130734      33  130740
  130734      33  130740  130737      34  130746  130743      33  130749  130743
      33  130749  130746      34  130755  130752      33  130758  130752      33
  130758  130755      34  130764  130761      33  130767  130761      33  130767
  130764      34  130773  130770      33  130776  130770      33  130776  130773
      34  130782  130779      33  130785  130779      33  130785  130782      34
  130791  130788      33  130794  130788      33  130794  130791      34  130800
  130797      33  130803  130797      33  130803  130800      34  130809  130806
      33  130812  130806      33  130812  130809      34  130818  130815      33
  130821  130815      33  130821  130818      34  130827  130824      33  130830
  130824      33  130830  130827      34  130836  130833      33  130839  130833
      33  130839  130836      34  130845  130842      33  130848  130842      33
  130848  130845      34  130854  130851      33  130857  130851      33  130857
  130854      34  130863  130860      33  130866  130860      33  130866  130863
      34  130872  130869      33  130875  130869      33  130875  130872      34
  130881  130878      33  130884  130878      33  130884  130881      34  130890
  130887      33  130893  130887      33  130893  130890      34  130899  130896
      33  130902  130896      33  130902  130899      34  130908  130905      33
  130911  130905      33  130911  130908      34  130917  130914      33  130920
  130914      33  130920  130917      34  130926  130923      33  130929  130923
      33  130929  130926      34  130935  130932      33  130938  130932      33
  130938  130935      34  130944  130941      33  130947  130941      33  130947
  130944      34  130953  130950      33  130956  130950      33  130956  130953
      34  130962  130959      33  130965  130959      33  130965  130962      34
  130971  130968      33  130974  130968      33  130974  130971      34  130980
  130977      33  130983  130977      33  130983  130980      34  130989  130986
      33  130992  130986      33  130992  130989      34  130998  130995      33
  131001  130995      33  131001  130998      34  131007  131004      33  131010
  131004      33  131010  131007      34  131016  131013      33  131019  131013
      33  131019  131016      34  131025  131022      33  131028  131022      33
  131028  131025      34  131034  131031      33  131037  131031      33  131037
  131034      34  131043  131040      33  131046  131040      33  131046  131043
      34  131052  131049      33  131055  131049      33  131055  131052      34
  131061  131058      33  131064  131058      33  131064  131061      34  131070
  131067      33  131073  131067      33  131073  131070      34  131079  131076
      33  131082  131076      33  131082  131079      34  131088  131085      33
  131091  131085      33  131091  131088      34  131097  131094      33  131100
  131094      33  131100  131097      34  131106  131103      33  131109  131103
      33  131109  131106      34  131115  131112      33  131118  131112      33
  131118  131115      34  131124  131121      33  131127  131121      33  131127
  131124      34  131133  131130      33  131136  131130      33  131136  131133
      34  131142  131139      33  131145  131139      33  131145  131142      34
  131151  131148      33  131154  131148      33  131154  131151      34  131160
  131157      33  131163  131157      33  131163  131160      34  131169  131166
      33  131172  131166      33  131172  131169      34  131178  131175      33
  131181  131175      33  131181  131178      34  131187  131184      33  131190
  131184      33  131190  131187      34  131196  131193      33  131199  131193
      33  131199  131196      34  131205  131202      33  131208  131202      33
  131208  131205      34  131214  131211      33  131217  131211      33  131217
  131214      34  131223  131220      33  131226  131220      33  131226  131223
      34  131232  131229      33  131235  131229      33  131235  131232      34
  131241  131238      33  131244  131238      33  131244  131241      34  131250
  131247      33  131253  131247      33  131253  131250      34  131259  131256
      33  131262  131256      33  131262  131259      34  131268  131265      33
  131271  131265      33  131271  131268      34  131277  131274      33  131280
  131274      33  131280  131277      34  131286  131283      33  131289  131283
      33  131289  131286      34  131295  131292      33  131298  131292      33
  131298  131295      34  131304  131301      33  131307  131301      33  131307
  131304      34  131313  131310      33  131316  131310      33  131316  131313
      34  131322  131319      33  131325  131319      33  131325  131322      34
  131331  131328      33  131334  131328      33  131334  131331      34  131340
  131337      33  131343  131337      33  131343  131340      34  131349  131346
      33  131352  131346      33  131352  131349      34  131358  131355      33
  131361  131355      33  131361  131358      34  131367  131364      33  131370
  131364      33  131370  131367      34  131376  131373      33  131379  131373
      33  131379  131376      34  131385  131382      33  131388  131382      33
  131388  131385      34  131394  131391      33  131397  131391      33  131397
  131394      34  131403  131400      33  131406  131400      33  131406  131403
      34  131412  131409      33  131415  131409      33  131415  131412      34
  131421  131418      33  131424  131418      33  131424  131421      34  131430
  131427      33  131433  131427      33  131433  131430      34  131439  131436
      33  131442  131436      33  131442  131439      34  131448  131445      33
  131451  131445      33  131451  131448      34  131457  131454      33  131460
  131454      33  131460  131457      34  131466  131463      33  131469  131463
      33  131469  131466      34  131475  131472      33  131478  131472      33
  131478  131475      34  131484  131481      33  131487  131481      33  131487
  131484      34  131493  131490      33  131496  131490      33  131496  131493
      34  131502  131499      33  131505  131499      33  131505  131502      34
  131511  131508      33  131514  131508      33  131514  131511      34  131520
  131517      33  131523  131517      33  131523  131520      34  131529  131526
      33  131532  131526      33  131532  131529      34  131538  131535      33
  131541  131535      33  131541  131538      34  131547  131544      33  131550
  131544      33  131550  131547      34  131556  131553      33  131559  131553
      33  131559  131556      34  131565  131562      33  131568  131562      33
  131568  131565      34  131574  131571      33  131577  131571      33  131577
  131574      34  131583  131580      33  131586  131580      33  131586  131583
      34  131592  131589      33  131595  131589      33  131595  131592      34
  131601  131598      33  131604  131598      33  131604  131601      34  131610
  131607      33  131613  131607      33  131613  131610      34  131619  131616
      33  131622  131616      33  131622  131619      34  131628  131625      33
  131631  131625      33  131631  131628      34  131637  131634      33  131640
  131634      33  131640  131637      34  131646  131643      33  131649  131643
      33  131649  131646      34  131655  131652      33  131658  131652      33
  131658  131655      34  131664  131661      33  131667  131661      33  131667
  131664      34  131673  131670      33  131676  131670      33  131676  131673
      34  131682  131679      33  131685  131679      33  131685  131682      34
  131691  131688      33  131694  131688      33  131694  131691      34  131700
  131697      33  131703  131697      33  131703  131700      34  131709  131706
      33  131712  131706      33  131712  131709      34  131718  131715      33
  131721  131715      33  131721  131718      34  131727  131724      33  131730
  131724      33  131730  131727      34  131736  131733      33  131739  131733
      33  131739  131736      34  131745  131742      33  131748  131742      33
  131748  131745      34  131754  131751      33  131757  131751      33  131757
  131754      34  131763  131760      33  131766  131760      33  131766  131763
      34  131772  131769      33  131775  131769      33  131775  131772      34
  131781  131778      33  131784  131778      33  131784  131781      34  131790
  131787      33  131793  131787      33  131793  131790      34  131799  131796
      33  131802  131796      33  131802  131799      34  131808  131805      33
  131811  131805      33  131811  131808      34  131817  131814      33  131820
  131814      33  131820  131817      34  131826  131823      33  131829  131823
      33  131829  131826      34  131835  131832      33  131838  131832      33
  131838  131835      34  131844  131841      33  131847  131841      33  131847
  131844      34  131853  131850      33  131856  131850      33  131856  131853
      34  131862  131859      33  131865  131859      33  131865  131862      34
  131871  131868      33  131874  131868      33  131874  131871      34  131880
  131877      33  131883  131877      33  131883  131880      34  131889  131886
      33  131892  131886      33  131892  131889      34  131898  131895      33
  131901  131895      33  131901  131898      34  131907  131904      33  131910
  131904      33  131910  131907      34  131916  131913      33  131919  131913
      33  131919  131916      34  131925  131922      33  131928  131922      33
  131928  131925      34  131934  131931      33  131937  131931      33  131937
  131934      34  131943  131940      33  131946  131940      33  131946  131943
      34  131952  131949      33  131955  131949      33  131955  131952      34
  131961  131958      33  131964  131958      33  131964  131961      34  131970
  131967      33  131973  131967      33  131973  131970      34  131979  131976
      33  131982  131976      33  131982  131979      34  131988  131985      33
  131991  131985      33  131991  131988      34  131997  131994      33  132000
  131994      33  132000  131997      34  132006  132003      33  132009  132003
      33  132009  132006      34  132015  132012      33  132018  132012      33
  132018  132015      34  132024  132021      33  132027  132021      33  132027
  132024      34  132033  132030      33  132036  132030      33  132036  132033
      34  132042  132039      33  132045  132039      33  132045  132042      34
  132051  132048      33  132054  132048      33  132054  132051      34  132060
  132057      33  132063  132057      33  132063  132060      34  132069  132066
      33  132072  132066      33  132072  132069      34  132078  132075      33
  132081  132075      33  132081  132078      34  132087  132084      33  132090
  132084      33  132090  132087      34  132096  132093      33  132099  132093
      33  132099  132096      34  132105  132102      33  132108  132102      33
  132108  132105      34  132114  132111      33  132117  132111      33  132117
  132114      34  132123  132120      33  132126  132120      33  132126  132123
      34  132132  132129      33  132135  132129      33  132135  132132      34
  132141  132138      33  132144  132138      33  132144  132141      34  132150
  132147      33  132153  132147      33  132153  132150      34  132159  132156
      33  132162  132156      33  132162  132159      34  132168  132165      33
  132171  132165      33  132171  132168      34  132177  132174      33  132180
  132174      33  132180  132177      34  132186  132183      33  132189  132183
      33  132189  132186      34  132195  132192      33  132198  132192      33
  132198  132195      34  132204  132201      33  132207  132201      33  132207
  132204      34  132213  132210      33  132216  132210      33  132216  132213
      34  132222  132219      33  132225  132219      33  132225  132222      34
  132231  132228      33  132234  132228      33  132234  132231      34  132240
  132237      33  132243  132237      33  132243  132240      34  132249  132246
      33  132252  132246      33  132252  132249      34  132258  132255      33
  132261  132255      33  132261  132258      34  132267  132264      33  132270
  132264      33  132270  132267      34  132276  132273      33  132279  132273
      33  132279  132276      34  132285  132282      33  132288  132282      33
  132288  132285      34  132294  132291      33  132297  132291      33  132297
  132294      34  132303  132300      33  132306  132300      33  132306  132303
      34  132312  132309      33  132315  132309      33  132315  132312      34
  132321  132318      33  132324  132318      33  132324  132321      34  132330
  132327      33  132333  132327      33  132333  132330      34  132339  132336
      33  132342  132336      33  132342  132339      34  132348  132345      33
  132351  132345      33  132351  132348      34  132357  132354      33  132360
  132354      33  132360  132357      34  132366  132363      33  132369  132363
      33  132369  132366      34  132375  132372      33  132378  132372      33
  132378  132375      34  132384  132381      33  132387  132381      33  132387
  132384      34  132393  132390      33  132396  132390      33  132396  132393
      34  132402  132399      33  132405  132399      33  132405  132402      34
  132411  132408      33  132414  132408      33  132414  132411      34  132420
  132417      33  132423  132417      33  132423  132420      34  132429  132426
      33  132432  132426      33  132432  132429      34  132438  132435      33
  132441  132435      33  132441  132438      34  132447  132444      33  132450
  132444      33  132450  132447      34  132456  132453      33  132459  132453
      33  132459  132456      34  132465  132462      33  132468  132462      33
  132468  132465      34  132474  132471      33  132477  132471      33  132477
  132474      34  132483  132480      33  132486  132480      33  132486  132483
      34  132492  132489      33  132495  132489      33  132495  132492      34
  132501  132498      33  132504  132498      33  132504  132501      34  132510
  132507      33  132513  132507      33  132513  132510      34  132519  132516
      33  132522  132516      33  132522  132519      34  132528  132525      33
  132531  132525      33  132531  132528      34  132537  132534      33  132540
  132534      33  132540  132537      34  132546  132543      33  132549  132543
      33  132549  132546      34  132555  132552      33  132558  132552      33
  132558  132555      34  132564  132561      33  132567  132561      33  132567
  132564      34  132573  132570      33  132576  132570      33  132576  132573
      34  132582  132579      33  132585  132579      33  132585  132582      34
  132591  132588      33  132594  132588      33  132594  132591      34  132600
  132597      33  132603  132597      33  132603  132600      34  132609  132606
      33  132612  132606      33  132612  132609      34  132618  132615      33
  132621  132615      33  132621  132618      34  132627  132624      33  132630
  132624      33  132630  132627      34  132636  132633      33  132639  132633
      33  132639  132636      34  132645  132642      33  132648  132642      33
  132648  132645      34  132654  132651      33  132657  132651      33  132657
  132654      34  132663  132660      33  132666  132660      33  132666  132663
      34  132672  132669      33  132675  132669      33  132675  132672      34
  132681  132678      33  132684  132678      33  132684  132681      34  132690
  132687      33  132693  132687      33  132693  132690      34  132699  132696
      33  132702  132696      33  132702  132699      34  132708  132705      33
  132711  132705      33  132711  132708      34  132717  132714      33  132720
  132714      33  132720  132717      34  132726  132723      33  132729  132723
      33  132729  132726      34  132735  132732      33  132738  132732      33
  132738  132735      34  132744  132741      33  132747  132741      33  132747
  132744      34  132753  132750      33  132756  132750      33  132756  132753
      34  132762  132759      33  132765  132759      33  132765  132762      34
  132771  132768      33  132774  132768      33  132774  132771      34  132780
  132777      33  132783  132777      33  132783  132780      34  132789  132786
      33  132792  132786      33  132792  132789      34  132798  132795      33
  132801  132795      33  132801  132798      34  132807  132804      33  132810
  132804      33  132810  132807      34  132816  132813      33  132819  132813
      33  132819  132816      34  132825  132822      33  132828  132822      33
  132828  132825      34  132834  132831      33  132837  132831      33  132837
  132834      34  132843  132840      33  132846  132840      33  132846  132843
      34  132852  132849      33  132855  132849      33  132855  132852      34
  132861  132858      33  132864  132858      33  132864  132861      34  132870
  132867      33  132873  132867      33  132873  132870      34  132879  132876
      33  132882  132876      33  132882  132879      34  132888  132885      33
  132891  132885      33  132891  132888      34  132897  132894      33  132900
  132894      33  132900  132897      34  132906  132903      33  132909  132903
      33  132909  132906      34  132915  132912      33  132918  132912      33
  132918  132915      34  132924  132921      33  132927  132921      33  132927
  132924      34  132933  132930      33  132936  132930      33  132936  132933
      34  132942  132939      33  132945  132939      33  132945  132942      34
  132951  132948      33  132954  132948      33  132954  132951      34  132960
  132957      33  132963  132957      33  132963  132960      34  132969  132966
      33  132972  132966      33  132972  132969      34  132978  132975      33
  132981  132975      33  132981  132978      34  132987  132984      33  132990
  132984      33  132990  132987      34  132996  132993      33  132999  132993
      33  132999  132996      34  133005  133002      33  133008  133002      33
  133008  133005      34  133014  133011      33  133017  133011      33  133017
  133014      34  133023  133020      33  133026  133020      33  133026  133023
      34  133032  133029      33  133035  133029      33  133035  133032      34
  133041  133038      33  133044  133038      33  133044  133041      34  133050
  133047      33  133053  133047      33  133053  133050      34  133059  133056
      33  133062  133056      33  133062  133059      34  133068  133065      33
  133071  133065      33  133071  133068      34  133077  133074      33  133080
  133074      33  133080  133077      34  133086  133083      33  133089  133083
      33  133089  133086      34  133095  133092      33  133098  133092      33
  133098  133095      34  133104  133101      33  133107  133101      33  133107
  133104      34  133113  133110      33  133116  133110      33  133116  133113
      34  133122  133119      33  133125  133119      33  133125  133122      34
  133131  133128      33  133134  133128      33  133134  133131      34  133140
  133137      33  133143  133137      33  133143  133140      34  133149  133146
      33  133152  133146      33  133152  133149      34  133158  133155      33
  133161  133155      33  133161  133158      34  133167  133164      33  133170
  133164      33  133170  133167      34  133176  133173      33  133179  133173
      33  133179  133176      34  133185  133182      33  133188  133182      33
  133188  133185      34  133194  133191      33  133197  133191      33  133197
  133194      34  133203  133200      33  133206  133200      33  133206  133203
      34  133212  133209      33  133215  133209      33  133215  133212      34
  133221  133218      33  133224  133218      33  133224  133221      34  133230
  133227      33  133233  133227      33  133233  133230      34  133239  133236
      33  133242  133236      33  133242  133239      34  133248  133245      33
  133251  133245      33  133251  133248      34  133257  133254      33  133260
  133254      33  133260  133257      34  133266  133263      33  133269  133263
      33  133269  133266      34  133275  133272      33  133278  133272      33
  133278  133275      34  133284  133281      33  133287  133281      33  133287
  133284      34  133293  133290      33  133296  133290      33  133296  133293
      34  133302  133299      33  133305  133299      33  133305  133302      34
  133311  133308      33  133314  133308      33  133314  133311      34  133320
  133317      33  133323  133317      33  133323  133320      34  133329  133326
      33  133332  133326      33  133332  133329      34  133338  133335      33
  133341  133335      33  133341  133338      34  133347  133344      33  133350
  133344      33  133350  133347      34  133356  133353      33  133359  133353
      33  133359  133356      34  133365  133362      33  133368  133362      33
  133368  133365      34  133374  133371      33  133377  133371      33  133377
  133374      34  133383  133380      33  133386  133380      33  133386  133383
      34  133392  133389      33  133395  133389      33  133395  133392      34
  133401  133398      33  133404  133398      33  133404  133401      34  133410
  133407      33  133413  133407      33  133413  133410      34  133419  133416
      33  133422  133416      33  133422  133419      34  133428  133425      33
  133431  133425      33  133431  133428      34  133437  133434      33  133440
  133434      33  133440  133437      34  133446  133443      33  133449  133443
      33  133449  133446      34  133455  133452      33  133458  133452      33
  133458  133455      34  133464  133461      33  133467  133461      33  133467
  133464      34  133473  133470      33  133476  133470      33  133476  133473
      34  133482  133479      33  133485  133479      33  133485  133482      34
  133491  133488      33  133494  133488      33  133494  133491      34  133500
  133497      33  133503  133497      33  133503  133500      34  133509  133506
      33  133512  133506      33  133512  133509      34  133518  133515      33
  133521  133515      33  133521  133518      34  133527  133524      33  133530
  133524      33  133530  133527      34  133536  133533      33  133539  133533
      33  133539  133536      34  133545  133542      33  133548  133542      33
  133548  133545      34  133554  133551      33  133557  133551      33  133557
  133554      34  133563  133560      33  133566  133560      33  133566  133563
      34  133572  133569      33  133575  133569      33  133575  133572      34
  133581  133578      33  133584  133578      33  133584  133581      34  133590
  133587      33  133593  133587      33  133593  133590      34  133599  133596
      33  133602  133596      33  133602  133599      34  133608  133605      33
  133611  133605      33  133611  133608      34  133617  133614      33  133620
  133614      33  133620  133617      34  133626  133623      33  133629  133623
      33  133629  133626      34  133635  133632      33  133638  133632      33
  133638  133635      34  133644  133641      33  133647  133641      33  133647
  133644      34  133653  133650      33  133656  133650      33  133656  133653
      34  133662  133659      33  133665  133659      33  133665  133662      34
  133671  133668      33  133674  133668      33  133674  133671      34  133680
  133677      33  133683  133677      33  133683  133680      34  133689  133686
      33  133692  133686      33  133692  133689      34  133698  133695      33
  133701  133695      33  133701  133698      34  133707  133704      33  133710
  133704      33  133710  133707      34  133716  133713      33  133719  133713
      33  133719  133716      34  133725  133722      33  133728  133722      33
  133728  133725      34  133734  133731      33  133737  133731      33  133737
  133734      34  133743  133740      33  133746  133740      33  133746  133743
      34  133752  133749      33  133755  133749      33  133755  133752      34
  133761  133758      33  133764  133758      33  133764  133761      34  133770
  133767      33  133773  133767      33  133773  133770      34  133779  133776
      33  133782  133776      33  133782  133779      34  133788  133785      33
  133791  133785      33  133791  133788      34  133797  133794      33  133800
  133794      33  133800  133797      34  133806  133803      33  133809  133803
      33  133809  133806      34  133815  133812      33  133818  133812      33
  133818  133815      34  133824  133821      33  133827  133821      33  133827
  133824      34  133833  133830      33  133836  133830      33  133836  133833
      34  133842  133839      33  133845  133839      33  133845  133842      34
  133851  133848      33  133854  133848      33  133854  133851      34  133860
  133857      33  133863  133857      33  133863  133860      34  133869  133866
      33  133872  133866      33  133872  133869      34  133878  133875      33
  133881  133875      33  133881  133878      34  133887  133884      33  133890
  133884      33  133890  133887      34  133896  133893      33  133899  133893
      33  133899  133896      34  133905  133902      33  133908  133902      33
  133908  133905      34  133914  133911      33  133917  133911      33  133917
  133914      34  133923  133920      33  133926  133920      33  133926  133923
      34  133932  133929      33  133935  133929      33  133935  133932      34
  133941  133938      33  133944  133938      33  133944  133941      34  133950
  133947      33  133953  133947      33  133953  133950      34  133959  133956
      33  133962  133956      33  133962  133959      34  133968  133965      33
  133971  133965      33  133971  133968      34  133977  133974      33  133980
  133974      33  133980  133977      34  133986  133983      33  133989  133983
      33  133989  133986      34  133995  133992      33  133998  133992      33
  133998  133995      34  134004  134001      33  134007  134001      33  134007
  134004      34  134013  134010      33  134016  134010      33  134016  134013
      34  134022  134019      33  134025  134019      33  134025  134022      34
  134031  134028      33  134034  134028      33  134034  134031      34  134040
  134037      33  134043  134037      33  134043  134040      34  134049  134046
      33  134052  134046      33  134052  134049      34  134058  134055      33
  134061  134055      33  134061  134058      34  134067  134064      33  134070
  134064      33  134070  134067      34  134076  134073      33  134079  134073
      33  134079  134076      34  134085  134082      33  134088  134082      33
  134088  134085      34  134094  134091      33  134097  134091      33  134097
  134094      34  134103  134100      33  134106  134100      33  134106  134103
      34  134112  134109      33  134115  134109      33  134115  134112      34
  134121  134118      33  134124  134118      33  134124  134121      34  134130
  134127      33  134133  134127      33  134133  134130      34  134139  134136
      33  134142  134136      33  134142  134139      34  134148  134145      33
  134151  134145      33  134151  134148      34  134157  134154      33  134160
  134154      33  134160  134157      34  134166  134163      33  134169  134163
      33  134169  134166      34  134175  134172      33  134178  134172      33
  134178  134175      34  134184  134181      33  134187  134181      33  134187
  134184      34  134193  134190      33  134196  134190      33  134196  134193
      34  134202  134199      33  134205  134199      33  134205  134202      34
  134211  134208      33  134214  134208      33  134214  134211      34  134220
  134217      33  134223  134217      33  134223  134220      34  134229  134226
      33  134232  134226      33  134232  134229      34  134238  134235      33
  134241  134235      33  134241  134238      34  134247  134244      33  134250
  134244      33  134250  134247      34  134256  134253      33  134259  134253
      33  134259  134256      34  134265  134262      33  134268  134262      33
  134268  134265      34  134274  134271      33  134277  134271      33  134277
  134274      34  134283  134280      33  134286  134280      33  134286  134283
      34  134292  134289      33  134295  134289      33  134295  134292      34
  134301  134298      33  134304  134298      33  134304  134301      34  134310
  134307      33  134313  134307      33  134313  134310      34  134319  134316
      33  134322  134316      33  134322  134319      34  134328  134325      33
  134331  134325      33  134331  134328      34  134337  134334      33  134340
  134334      33  134340  134337      34  134346  134343      33  134349  134343
      33  134349  134346      34  134355  134352      33  134358  134352      33
  134358  134355      34  134364  134361      33  134367  134361      33  134367
  134364      34  134373  134370      33  134376  134370      33  134376  134373
      34  134382  134379      33  134385  134379      33  134385  134382      34
  134391  134388      33  134394  134388      33  134394  134391      34  134400
  134397      33  134403  134397      33  134403  134400      34  134409  134406
      33  134412  134406      33  134412  134409      34  134418  134415      33
  134421  134415      33  134421  134418      34  134427  134424      33  134430
  134424      33  134430  134427      34  134436  134433      33  134439  134433
      33  134439  134436      34  134445  134442      33  134448  134442      33
  134448  134445      34  134454  134451      33  134457  134451      33  134457
  134454      34  134463  134460      33  134466  134460      33  134466  134463
      34  134472  134469      33  134475  134469      33  134475  134472      34
  134481  134478      33  134484  134478      33  134484  134481      34  134490
  134487      33  134493  134487      33  134493  134490      34  134499  134496
      33  134502  134496      33  134502  134499      34  134508  134505      33
  134511  134505      33  134511  134508      34  134517  134514      33  134520
  134514      33  134520  134517      34  134526  134523      33  134529  134523
      33  134529  134526      34  134535  134532      33  134538  134532      33
  134538  134535      34  134544  134541      33  134547  134541      33  134547
  134544      34  134553  134550      33  134556  134550      33  134556  134553
      34  134562  134559      33  134565  134559      33  134565  134562      34
  134571  134568      33  134574  134568      33  134574  134571      34  134580
  134577      33  134583  134577      33  134583  134580      34  134589  134586
      33  134592  134586      33  134592  134589      34  134598  134595      33
  134601  134595      33  134601  134598      34  134607  134604      33  134610
  134604      33  134610  134607      34  134616  134613      33  134619  134613
      33  134619  134616      34  134625  134622      33  134628  134622      33
  134628  134625      34  134634  134631      33  134637  134631      33  134637
  134634      34  134643  134640      33  134646  134640      33  134646  134643
      34  134652  134649      33  134655  134649      33  134655  134652      34
  134661  134658      33  134664  134658      33  134664  134661      34  134670
  134667      33  134673  134667      33  134673  134670      34  134679  134676
      33  134682  134676      33  134682  134679      34  134688  134685      33
  134691  134685      33  134691  134688      34  134697  134694      33  134700
  134694      33  134700  134697      34  134706  134703      33  134709  134703
      33  134709  134706      34  134715  134712      33  134718  134712      33
  134718  134715      34  134724  134721      33  134727  134721      33  134727
  134724      34  134733  134730      33  134736  134730      33  134736  134733
      34  134742  134739      33  134745  134739      33  134745  134742      34
  134751  134748      33  134754  134748      33  134754  134751      34  134760
  134757      33  134763  134757      33  134763  134760      34  134769  134766
      33  134772  134766      33  134772  134769      34  134778  134775      33
  134781  134775      33  134781  134778      34  134787  134784      33  134790
  134784      33  134790  134787      34  134796  134793      33  134799  134793
      33  134799  134796      34  134805  134802      33  134808  134802      33
  134808  134805      34  134814  134811      33  134817  134811      33  134817
  134814      34  134823  134820      33  134826  134820      33  134826  134823
      34  134832  134829      33  134835  134829      33  134835  134832      34
  134841  134838      33  134844  134838      33  134844  134841      34  134850
  134847      33  134853  134847      33  134853  134850      34  134859  134856
      33  134862  134856      33  134862  134859      34  134868  134865      33
  134871  134865      33  134871  134868      34  134877  134874      33  134880
  134874      33  134880  134877      34  134886  134883      33  134889  134883
      33  134889  134886      34  134895  134892      33  134898  134892      33
  134898  134895      34  134904  134901      33  134907  134901      33  134907
  134904      34  134913  134910      33  134916  134910      33  134916  134913
      34  134922  134919      33  134925  134919      33  134925  134922      34
  134931  134928      33  134934  134928      33  134934  134931      34  134940
  134937      33  134943  134937      33  134943  134940      34  134949  134946
      33  134952  134946      33  134952  134949      34  134958  134955      33
  134961  134955      33  134961  134958      34  134967  134964      33  134970
  134964      33  134970  134967      34  134976  134973      33  134979  134973
      33  134979  134976      34  134985  134982      33  134988  134982      33
  134988  134985      34  134994  134991      33  134997  134991      33  134997
  134994      34  135003  135000      33  135006  135000      33  135006  135003
      34  135012  135009      33  135015  135009      33  135015  135012      34
  135021  135018      33  135024  135018      33  135024  135021      34  135030
  135027      33  135033  135027      33  135033  135030      34  135039  135036
      33  135042  135036      33  135042  135039      34  135048  135045      33
  135051  135045      33  135051  135048      34  135057  135054      33  135060
  135054      33  135060  135057      34  135066  135063      33  135069  135063
      33  135069  135066      34  135075  135072      33  135078  135072      33
  135078  135075      34  135084  135081      33  135087  135081      33  135087
  135084      34  135093  135090      33  135096  135090      33  135096  135093
      34  135102  135099      33  135105  135099      33  135105  135102      34
  135111  135108      33  135114  135108      33  135114  135111      34  135120
  135117      33  135123  135117      33  135123  135120      34  135129  135126
      33  135132  135126      33  135132  135129      34  135138  135135      33
  135141  135135      33  135141  135138      34  135147  135144      33  135150
  135144      33  135150  135147      34  135156  135153      33  135159  135153
      33  135159  135156      34  135165  135162      33  135168  135162      33
  135168  135165      34  135174  135171      33  135177  135171      33  135177
  135174      34  135183  135180      33  135186  135180      33  135186  135183
      34  135192  135189      33  135195  135189      33  135195  135192      34
  135201  135198      33  135204  135198      33  135204  135201      34  135210
  135207      33  135213  135207      33  135213  135210      34  135219  135216
      33  135222  135216      33  135222  135219      34  135228  135225      33
  135231  135225      33  135231  135228      34  135237  135234      33  135240
  135234      33  135240  135237      34  135246  135243      33  135249  135243
      33  135249  135246      34  135255  135252      33  135258  135252      33
  135258  135255      34  135264  135261      33  135267  135261      33  135267
  135264      34  135273  135270      33  135276  135270      33  135276  135273
      34  135282  135279      33  135285  135279      33  135285  135282      34
  135291  135288      33  135294  135288      33  135294  135291      34  135300
  135297      33  135303  135297      33  135303  135300      34  135309  135306
      33  135312  135306      33  135312  135309      34  135318  135315      33
  135321  135315      33  135321  135318      34  135327  135324      33  135330
  135324      33  135330  135327      34  135336  135333      33  135339  135333
      33  135339  135336      34  135345  135342      33  135348  135342      33
  135348  135345      34  135354  135351      33  135357  135351      33  135357
  135354      34  135363  135360      33  135366  135360      33  135366  135363
      34  135372  135369      33  135375  135369      33  135375  135372      34
  135381  135378      33  135384  135378      33  135384  135381      34  135390
  135387      33  135393  135387      33  135393  135390      34  135399  135396
      33  135402  135396      33  135402  135399      34  135408  135405      33
  135411  135405      33  135411  135408      34  135417  135414      33  135420
  135414      33  135420  135417      34  135426  135423      33  135429  135423
      33  135429  135426      34  135435  135432      33  135438  135432      33
  135438  135435      34  135444  135441      33  135447  135441      33  135447
  135444      34  135453  135450      33  135456  135450      33  135456  135453
      34  135462  135459      33  135465  135459      33  135465  135462      34
  135471  135468      33  135474  135468      33  135474  135471      34  135480
  135477      33  135483  135477      33  135483  135480      34  135489  135486
      33  135492  135486      33  135492  135489      34  135498  135495      33
  135501  135495      33  135501  135498      34  135507  135504      33  135510
  135504      33  135510  135507      34  135516  135513      33  135519  135513
      33  135519  135516      34  135525  135522      33  135528  135522      33
  135528  135525      34  135534  135531      33  135537  135531      33  135537
  135534      34  135543  135540      33  135546  135540      33  135546  135543
      34  135552  135549      33  135555  135549      33  135555  135552      34
  135561  135558      33  135564  135558      33  135564  135561      34  135570
  135567      33  135573  135567      33  135573  135570      34  135579  135576
      33  135582  135576      33  135582  135579      34  135588  135585      33
  135591  135585      33  135591  135588      34  135597  135594      33  135600
  135594      33  135600  135597      34  135606  135603      33  135609  135603
      33  135609  135606      34  135615  135612      33  135618  135612      33
  135618  135615      34  135624  135621      33  135627  135621      33  135627
  135624      34  135633  135630      33  135636  135630      33  135636  135633
      34  135642  135639      33  135645  135639      33  135645  135642      34
  135651  135648      33  135654  135648      33  135654  135651      34  135660
  135657      33  135663  135657      33  135663  135660      34  135669  135666
      33  135672  135666      33  135672  135669      34  135678  135675      33
  135681  135675      33  135681  135678      34  135687  135684      33  135690
  135684      33  135690  135687      34  135696  135693      33  135699  135693
      33  135699  135696      34  135705  135702      33  135708  135702      33
  135708  135705      34  135714  135711      33  135717  135711      33  135717
  135714      34  135723  135720      33  135726  135720      33  135726  135723
      34  135732  135729      33  135735  135729      33  135735  135732      34
  135741  135738      33  135744  135738      33  135744  135741      34  135750
  135747      33  135753  135747      33  135753  135750      34  135759  135756
      33  135762  135756      33  135762  135759      34  135768  135765      33
  135771  135765      33  135771  135768      34  135777  135774      33  135780
  135774      33  135780  135777      34  135786  135783      33  135789  135783
      33  135789  135786      34  135795  135792      33  135798  135792      33
  135798  135795      34  135804  135801      33  135807  135801      33  135807
  135804      34  135813  135810      33  135816  135810      33  135816  135813
      34  135822  135819      33  135825  135819      33  135825  135822      34
  135831  135828      33  135834  135828      33  135834  135831      34  135840
  135837      33  135843  135837      33  135843  135840      34  135849  135846
      33  135852  135846      33  135852  135849      34  135858  135855      33
  135861  135855      33  135861  135858      34  135867  135864      33  135870
  135864      33  135870  135867      34  135876  135873      33  135879  135873
      33  135879  135876      34  135885  135882      33  135888  135882      33
  135888  135885      34  135894  135891      33  135897  135891      33  135897
  135894      34  135903  135900      33  135906  135900      33  135906  135903
      34  135912  135909      33  135915  135909      33  135915  135912      34
  135921  135918      33  135924  135918      33  135924  135921      34  135930
  135927      33  135933  135927      33  135933  135930      34  135939  135936
      33  135942  135936      33  135942  135939      34  135948  135945      33
  135951  135945      33  135951  135948      34  135957  135954      33  135960
  135954      33  135960  135957      34  135966  135963      33  135969  135963
      33  135969  135966      34  135975  135972      33  135978  135972      33
  135978  135975      34  135984  135981      33  135987  135981      33  135987
  135984      34  135993  135990      33  135996  135990      33  135996  135993
      34  136002  135999      33  136005  135999      33  136005  136002      34
  136011  136008      33  136014  136008      33  136014  136011      34  136020
  136017      33  136023  136017      33  136023  136020      34  136029  136026
      33  136032  136026      33  136032  136029      34  136038  136035      33
  136041  136035      33  136041  136038      34  136047  136044      33  136050
  136044      33  136050  136047      34  136056  136053      33  136059  136053
      33  136059  136056      34  136065  136062      33  136068  136062      33
  136068  136065      34  136074  136071      33  136077  136071      33  136077
  136074      34  136083  136080      33  136086  136080      33  136086  136083
      34  136092  136089      33  136095  136089      33  136095  136092      34
  136101  136098      33  136104  136098      33  136104  136101      34  136110
  136107      33  136113  136107      33  136113  136110      34  136119  136116
      33  136122  136116      33  136122  136119      34  136128  136125      33
  136131  136125      33  136131  136128      34  136137  136134      33  136140
  136134      33  136140  136137      34  136146  136143      33  136149  136143
      33  136149  136146      34  136155  136152      33  136158  136152      33
  136158  136155      34  136164  136161      33  136167  136161      33  136167
  136164      34  136173  136170      33  136176  136170      33  136176  136173
      34  136182  136179      33  136185  136179      33  136185  136182      34
  136191  136188      33  136194  136188      33  136194  136191      34  136200
  136197      33  136203  136197      33  136203  136200      34  136209  136206
      33  136212  136206      33  136212  136209      34  136218  136215      33
  136221  136215      33  136221  136218      34  136227  136224      33  136230
  136224      33  136230  136227      34  136236  136233      33  136239  136233
      33  136239  136236      34  136245  136242      33  136248  136242      33
  136248  136245      34  136254  136251      33  136257  136251      33  136257
  136254      34  136263  136260      33  136266  136260      33  136266  136263
      34  136272  136269      33  136275  136269      33  136275  136272      34
  136281  136278      33  136284  136278      33  136284  136281      34  136290
  136287      33  136293  136287      33  136293  136290      34  136299  136296
      33  136302  136296      33  136302  136299      34  136308  136305      33
  136311  136305      33  136311  136308      34  136317  136314      33  136320
  136314      33  136320  136317      34  136326  136323      33  136329  136323
      33  136329  136326      34  136335  136332      33  136338  136332      33
  136338  136335      34  136344  136341      33  136347  136341      33  136347
  136344      34  136353  136350      33  136356  136350      33  136356  136353
      34  136362  136359      33  136365  136359      33  136365  136362      34
  136371  136368      33  136374  136368      33  136374  136371      34  136380
  136377      33  136383  136377      33  136383  136380      34  136389  136386
      33  136392  136386      33  136392  136389      34  136398  136395      33
  136401  136395      33  136401  136398      34  136407  136404      33  136410
  136404      33  136410  136407      34  136416  136413      33  136419  136413
      33  136419  136416      34  136425  136422      33  136428  136422      33
  136428  136425      34  136434  136431      33  136437  136431      33  136437
  136434      34  136443  136440      33  136446  136440      33  136446  136443
      34  136452  136449      33  136455  136449      33  136455  136452      34
  136461  136458      33  136464  136458      33  136464  136461      34  136470
  136467      33  136473  136467      33  136473  136470      34  136479  136476
      33  136482  136476      33  136482  136479      34  136488  136485      33
  136491  136485      33  136491  136488      34  136497  136494      33  136500
  136494      33  136500  136497      34  136506  136503      33  136509  136503
      33  136509  136506      34  136515  136512      33  136518  136512      33
  136518  136515      34  136524  136521      33  136527  136521      33  136527
  136524      34  136533  136530      33  136536  136530      33  136536  136533
      34  136542  136539      33  136545  136539      33  136545  136542      34
  136551  136548      33  136554  136548      33  136554  136551      34  136560
  136557      33  136563  136557      33  136563  136560      34  136569  136566
      33  136572  136566      33  136572  136569      34  136578  136575      33
  136581  136575      33  136581  136578      34  136587  136584      33  136590
  136584      33  136590  136587      34  136596  136593      33  136599  136593
      33  136599  136596      34  136605  136602      33  136608  136602      33
  136608  136605      34  136614  136611      33  136617  136611      33  136617
  136614      34  136623  136620      33  136626  136620      33  136626  136623
      34  136632  136629      33  136635  136629      33  136635  136632      34
  136641  136638      33  136644  136638      33  136644  136641      34  136650
  136647      33  136653  136647      33  136653  136650      34  136659  136656
      33  136662  136656      33  136662  136659      34  136668  136665      33
  136671  136665      33  136671  136668      34  136677  136674      33  136680
  136674      33  136680  136677      34  136686  136683      33  136689  136683
      33  136689  136686      34  136695  136692      33  136698  136692      33
  136698  136695      34  136704  136701      33  136707  136701      33  136707
  136704      34  136713  136710      33  136716  136710      33  136716  136713
      34  136722  136719      33  136725  136719      33  136725  136722      34
  136731  136728      33  136734  136728      33  136734  136731      34  136740
  136737      33  136743  136737      33  136743  136740      34  136749  136746
      33  136752  136746      33  136752  136749      34  136758  136755      33
  136761  136755      33  136761  136758      34  136767  136764      33  136770
  136764      33  136770  136767      34  136776  136773      33  136779  136773
      33  136779  136776      34  136785  136782      33  136788  136782      33
  136788  136785      34  136794  136791      33  136797  136791      33  136797
  136794      34  136803  136800      33  136806  136800      33  136806  136803
      34  136812  136809      33  136815  136809      33  136815  136812      34
  136821  136818      33  136824  136818      33  136824  136821      34  136830
  136827      33  136833  136827      33  136833  136830      34  136839  136836
      33  136842  136836      33  136842  136839      34  136848  136845      33
  136851  136845      33  136851  136848      34  136857  136854      33  136860
  136854      33  136860  136857      34  136866  136863      33  136869  136863
      33  136869  136866      34  136875  136872      33  136878  136872      33
  136878  136875      34  136884  136881      33  136887  136881      33  136887
  136884      34  136893  136890      33  136896  136890      33  136896  136893
      34  136902  136899      33  136905  136899      33  136905  136902      34
  136911  136908      33  136914  136908      33  136914  136911      34  136920
  136917      33  136923  136917      33  136923  136920      34  136929  136926
      33  136932  136926      33  136932  136929      34  136938  136935      33
  136941  136935      33  136941  136938      34  136947  136944      33  136950
  136944      33  136950  136947      34  136956  136953      33  136959  136953
      33  136959  136956      34  136965  136962      33  136968  136962      33
  136968  136965      34  136974  136971      33  136977  136971      33  136977
  136974      34  136983  136980      33  136986  136980      33  136986  136983
      34  136992  136989      33  136995  136989      33  136995  136992      34
  137001  136998      33  137004  136998      33  137004  137001      34  137010
  137007      33  137013  137007      33  137013  137010      34  137019  137016
      33  137022  137016      33  137022  137019      34  137028  137025      33
  137031  137025      33  137031  137028      34  137037  137034      33  137040
  137034      33  137040  137037      34  137046  137043      33  137049  137043
      33  137049  137046      34  137055  137052      33  137058  137052      33
  137058  137055      34  137064  137061      33  137067  137061      33  137067
  137064      34  137073  137070      33  137076  137070      33  137076  137073
      34  137082  137079      33  137085  137079      33  137085  137082      34
  137091  137088      33  137094  137088      33  137094  137091      34  137100
  137097      33  137103  137097      33  137103  137100      34  137109  137106
      33  137112  137106      33  137112  137109      34  137118  137115      33
  137121  137115      33  137121  137118      34  137127  137124      33  137130
  137124      33  137130  137127      34  137136  137133      33  137139  137133
      33  137139  137136      34  137145  137142      33  137148  137142      33
  137148  137145      34  137154  137151      33  137157  137151      33  137157
  137154      34  137163  137160      33  137166  137160      33  137166  137163
      34  137172  137169      33  137175  137169      33  137175  137172      34
  137181  137178      33  137184  137178      33  137184  137181      34  137190
  137187      33  137193  137187      33  137193  137190      34  137199  137196
      33  137202  137196      33  137202  137199      34  137208  137205      33
  137211  137205      33  137211  137208      34  137217  137214      33  137220
  137214      33  137220  137217      34  137226  137223      33  137229  137223
      33  137229  137226      34  137235  137232      33  137238  137232      33
  137238  137235      34  137244  137241      33  137247  137241      33  137247
  137244      34  137253  137250      33  137256  137250      33  137256  137253
      34  137262  137259      33  137265  137259      33  137265  137262      34
  137271  137268      33  137274  137268      33  137274  137271      34  137280
  137277      33  137283  137277      33  137283  137280      34  137289  137286
      33  137292  137286      33  137292  137289      34  137298  137295      33
  137301  137295      33  137301  137298      34  137307  137304      33  137310
  137304      33  137310  137307      34  137316  137313      33  137319  137313
      33  137319  137316      34  137325  137322      33  137328  137322      33
  137328  137325      34  137334  137331      33  137337  137331      33  137337
  137334      34  137343  137340      33  137346  137340      33  137346  137343
      34  137352  137349      33  137355  137349      33  137355  137352      34
  137361  137358      33  137364  137358      33  137364  137361      34  137370
  137367      33  137373  137367      33  137373  137370      34  137379  137376
      33  137382  137376      33  137382  137379      34  137388  137385      33
  137391  137385      33  137391  137388      34  137397  137394      33  137400
  137394      33  137400  137397      34  137406  137403      33  137409  137403
      33  137409  137406      34  137415  137412      33  137418  137412      33
  137418  137415      34  137424  137421      33  137427  137421      33  137427
  137424      34  137433  137430      33  137436  137430      33  137436  137433
      34  137442  137439      33  137445  137439      33  137445  137442      34
  137451  137448      33  137454  137448      33  137454  137451      34  137460
  137457      33  137463  137457      33  137463  137460      34  137469  137466
      33  137472  137466      33  137472  137469      34  137478  137475      33
  137481  137475      33  137481  137478      34  137487  137484      33  137490
  137484      33  137490  137487      34  137496  137493      33  137499  137493
      33  137499  137496      34  137505  137502      33  137508  137502      33
  137508  137505      34  137514  137511      33  137517  137511      33  137517
  137514      34  137523  137520      33  137526  137520      33  137526  137523
      34  137532  137529      33  137535  137529      33  137535  137532      34
  137541  137538      33  137544  137538      33  137544  137541      34  137550
  137547      33  137553  137547      33  137553  137550      34  137559  137556
      33  137562  137556      33  137562  137559      34  137568  137565      33
  137571  137565      33  137571  137568      34  137577  137574      33  137580
  137574      33  137580  137577      34  137586  137583      33  137589  137583
      33  137589  137586      34  137595  137592      33  137598  137592      33
  137598  137595      34  137604  137601      33  137607  137601      33  137607
  137604      34  137613  137610      33  137616  137610      33  137616  137613
      34  137622  137619      33  137625  137619      33  137625  137622      34
  137631  137628      33  137634  137628      33  137634  137631      34  137640
  137637      33  137643  137637      33  137643  137640      34  137649  137646
      33  137652  137646      33  137652  137649      34  137658  137655      33
  137661  137655      33  137661  137658      34  137667  137664      33  137670
  137664      33  137670  137667      34  137676  137673      33  137679  137673
      33  137679  137676      34  137685  137682      33  137688  137682      33
  137688  137685      34  137694  137691      33  137697  137691      33  137697
  137694      34  137703  137700      33  137706  137700      33  137706  137703
      34  137712  137709      33  137715  137709      33  137715  137712      34
  137721  137718      33  137724  137718      33  137724  137721      34  137730
  137727      33  137733  137727      33  137733  137730      34  137739  137736
      33  137742  137736      33  137742  137739      34  137748  137745      33
  137751  137745      33  137751  137748      34  137757  137754      33  137760
  137754      33  137760  137757      34  137766  137763      33  137769  137763
      33  137769  137766      34  137775  137772      33  137778  137772      33
  137778  137775      34  137784  137781      33  137787  137781      33  137787
  137784      34  137793  137790      33  137796  137790      33  137796  137793
      34  137802  137799      33  137805  137799      33  137805  137802      34
  137811  137808      33  137814  137808      33  137814  137811      34  137820
  137817      33  137823  137817      33  137823  137820      34  137829  137826
      33  137832  137826      33  137832  137829      34  137838  137835      33
  137841  137835      33  137841  137838      34  137847  137844      33  137850
  137844      33  137850  137847      34  137856  137853      33  137859  137853
      33  137859  137856      34  137865  137862      33  137868  137862      33
  137868  137865      34  137874  137871      33  137877  137871      33  137877
  137874      34  137883  137880      33  137886  137880      33  137886  137883
      34  137892  137889      33  137895  137889      33  137895  137892      34
  137901  137898      33  137904  137898      33  137904  137901      34  137910
  137907      33  137913  137907      33  137913  137910      34  137919  137916
      33  137922  137916      33  137922  137919      34  137928  137925      33
  137931  137925      33  137931  137928      34  137937  137934      33  137940
  137934      33  137940  137937      34  137946  137943      33  137949  137943
      33  137949  137946      34  137955  137952      33  137958  137952      33
  137958  137955      34  137964  137961      33  137967  137961      33  137967
  137964      34  137973  137970      33  137976  137970      33  137976  137973
      34  137982  137979      33  137985  137979      33  137985  137982      34
  137991  137988      33  137994  137988      33  137994  137991      34  138000
  137997      33  138003  137997      33  138003  138000      34  138009  138006
      33  138012  138006      33  138012  138009      34  138018  138015      33
  138021  138015      33  138021  138018      34  138027  138024      33  138030
  138024      33  138030  138027      34  138036  138033      33  138039  138033
      33  138039  138036      34  138045  138042      33  138048  138042      33
  138048  138045      34  138054  138051      33  138057  138051      33  138057
  138054      34  138063  138060      33  138066  138060      33  138066  138063
      34  138072  138069      33  138075  138069      33  138075  138072      34
  138081  138078      33  138084  138078      33  138084  138081      34  138090
  138087      33  138093  138087      33  138093  138090      34  138099  138096
      33  138102  138096      33  138102  138099      34  138108  138105      33
  138111  138105      33  138111  138108      34  138117  138114      33  138120
  138114      33  138120  138117      34  138126  138123      33  138129  138123
      33  138129  138126      34  138135  138132      33  138138  138132      33
  138138  138135      34  138144  138141      33  138147  138141      33  138147
  138144      34  138153  138150      33  138156  138150      33  138156  138153
      34  138162  138159      33  138165  138159      33  138165  138162      34
  138171  138168      33  138174  138168      33  138174  138171      34  138180
  138177      33  138183  138177      33  138183  138180      34  138189  138186
      33  138192  138186      33  138192  138189      34  138198  138195      33
  138201  138195      33  138201  138198      34  138207  138204      33  138210
  138204      33  138210  138207      34  138216  138213      33  138219  138213
      33  138219  138216      34  138225  138222      33  138228  138222      33
  138228  138225      34  138234  138231      33  138237  138231      33  138237
  138234      34  138243  138240      33  138246  138240      33  138246  138243
      34  138252  138249      33  138255  138249      33  138255  138252      34
  138261  138258      33  138264  138258      33  138264  138261      34  138270
  138267      33  138273  138267      33  138273  138270      34  138279  138276
      33  138282  138276      33  138282  138279      34  138288  138285      33
  138291  138285      33  138291  138288      34  138297  138294      33  138300
  138294      33  138300  138297      34  138306  138303      33  138309  138303
      33  138309  138306      34  138315  138312      33  138318  138312      33
  138318  138315      34  138324  138321      33  138327  138321      33  138327
  138324      34  138333  138330      33  138336  138330      33  138336  138333
      34  138342  138339      33  138345  138339      33  138345  138342      34
  138351  138348      33  138354  138348      33  138354  138351      34  138360
  138357      33  138363  138357      33  138363  138360      34  138369  138366
      33  138372  138366      33  138372  138369      34  138378  138375      33
  138381  138375      33  138381  138378      34  138387  138384      33  138390
  138384      33  138390  138387      34  138396  138393      33  138399  138393
      33  138399  138396      34  138405  138402      33  138408  138402      33
  138408  138405      34  138414  138411      33  138417  138411      33  138417
  138414      34  138423  138420      33  138426  138420      33  138426  138423
      34  138432  138429      33  138435  138429      33  138435  138432      34
  138441  138438      33  138444  138438      33  138444  138441      34  138450
  138447      33  138453  138447      33  138453  138450      34  138459  138456
      33  138462  138456      33  138462  138459      34  138468  138465      33
  138471  138465      33  138471  138468      34  138477  138474      33  138480
  138474      33  138480  138477      34  138486  138483      33  138489  138483
      33  138489  138486      34  138495  138492      33  138498  138492      33
  138498  138495      34  138504  138501      33  138507  138501      33  138507
  138504      34  138513  138510      33  138516  138510      33  138516  138513
      34  138522  138519      33  138525  138519      33  138525  138522      34
  138531  138528      33  138534  138528      33  138534  138531      34  138540
  138537      33  138543  138537      33  138543  138540      34  138549  138546
      33  138552  138546      33  138552  138549      34  138558  138555      33
  138561  138555      33  138561  138558      34  138567  138564      33  138570
  138564      33  138570  138567      34  138576  138573      33  138579  138573
      33  138579  138576      34  138585  138582      33  138588  138582      33
  138588  138585      34  138594  138591      33  138597  138591      33  138597
  138594      34  138603  138600      33  138606  138600      33  138606  138603
      34  138612  138609      33  138615  138609      33  138615  138612      34
  138621  138618      33  138624  138618      33  138624  138621      34  138630
  138627      33  138633  138627      33  138633  138630      34  138639  138636
      33  138642  138636      33  138642  138639      34  138648  138645      33
  138651  138645      33  138651  138648      34  138657  138654      33  138660
  138654      33  138660  138657      34  138666  138663      33  138669  138663
      33  138669  138666      34  138675  138672      33  138678  138672      33
  138678  138675      34  138684  138681      33  138687  138681      33  138687
  138684      34  138693  138690      33  138696  138690      33  138696  138693
      34  138702  138699      33  138705  138699      33  138705  138702      34
  138711  138708      33  138714  138708      33  138714  138711      34  138720
  138717      33  138723  138717      33  138723  138720      34  138729  138726
      33  138732  138726      33  138732  138729      34  138738  138735      33
  138741  138735      33  138741  138738      34  138747  138744      33  138750
  138744      33  138750  138747      34  138756  138753      33  138759  138753
      33  138759  138756      34  138765  138762      33  138768  138762      33
  138768  138765      34  138774  138771      33  138777  138771      33  138777
  138774      34  138783  138780      33  138786  138780      33  138786  138783
      34  138792  138789      33  138795  138789      33  138795  138792      34
  138801  138798      33  138804  138798      33  138804  138801      34  138810
  138807      33  138813  138807      33  138813  138810      34  138819  138816
      33  138822  138816      33  138822  138819      34  138828  138825      33
  138831  138825      33  138831  138828      34  138837  138834      33  138840
  138834      33  138840  138837      34  138846  138843      33  138849  138843
      33  138849  138846      34  138855  138852      33  138858  138852      33
  138858  138855      34  138864  138861      33  138867  138861      33  138867
  138864      34  138873  138870      33  138876  138870      33  138876  138873
      34  138882  138879      33  138885  138879      33  138885  138882      34
  138891  138888      33  138894  138888      33  138894  138891      34  138900
  138897      33  138903  138897      33  138903  138900      34  138909  138906
      33  138912  138906      33  138912  138909      34  138918  138915      33
  138921  138915      33  138921  138918      34  138927  138924      33  138930
  138924      33  138930  138927      34  138936  138933      33  138939  138933
      33  138939  138936      34  138945  138942      33  138948  138942      33
  138948  138945      34  138954  138951      33  138957  138951      33  138957
  138954      34  138963  138960      33  138966  138960      33  138966  138963
      34  138972  138969      33  138975  138969      33  138975  138972      34
  138981  138978      33  138984  138978      33  138984  138981      34  138990
  138987      33  138993  138987      33  138993  138990      34  138999  138996
      33  139002  138996      33  139002  138999      34  139008  139005      33
  139011  139005      33  139011  139008      34  139017  139014      33  139020
  139014      33  139020  139017      34  139026  139023      33  139029  139023
      33  139029  139026      34  139035  139032      33  139038  139032      33
  139038  139035      34  139044  139041      33  139047  139041      33  139047
  139044      34  139053  139050      33  139056  139050      33  139056  139053
      34  139062  139059      33  139065  139059      33  139065  139062      34
  139071  139068      33  139074  139068      33  139074  139071      34  139080
  139077      33  139083  139077      33  139083  139080      34  139089  139086
      33  139092  139086      33  139092  139089      34  139098  139095      33
  139101  139095      33  139101  139098      34  139107  139104      33  139110
  139104      33  139110  139107      34  139116  139113      33  139119  139113
      33  139119  139116      34  139125  139122      33  139128  139122      33
  139128  139125      34  139134  139131      33  139137  139131      33  139137
  139134      34  139143  139140      33  139146  139140      33  139146  139143
      34  139152  139149      33  139155  139149      33  139155  139152      34
  139161  139158      33  139164  139158      33  139164  139161      34  139170
  139167      33  139173  139167      33  139173  139170      34  139179  139176
      33  139182  139176      33  139182  139179      34  139188  139185      33
  139191  139185      33  139191  139188      34  139197  139194      33  139200
  139194      33  139200  139197      34  139206  139203      33  139209  139203
      33  139209  139206      34  139215  139212      33  139218  139212      33
  139218  139215      34  139224  139221      33  139227  139221      33  139227
  139224      34  139233  139230      33  139236  139230      33  139236  139233
      34  139242  139239      33  139245  139239      33  139245  139242      34
  139251  139248      33  139254  139248      33  139254  139251      34  139260
  139257      33  139263  139257      33  139263  139260      34  139269  139266
      33  139272  139266      33  139272  139269      34  139278  139275      33
  139281  139275      33  139281  139278      34  139287  139284      33  139290
  139284      33  139290  139287      34  139296  139293      33  139299  139293
      33  139299  139296      34  139305  139302      33  139308  139302      33
  139308  139305      34  139314  139311      33  139317  139311      33  139317
  139314      34  139323  139320      33  139326  139320      33  139326  139323
      34  139332  139329      33  139335  139329      33  139335  139332      34
  139341  139338      33  139344  139338      33  139344  139341      34  139350
  139347      33  139353  139347      33  139353  139350      34  139359  139356
      33  139362  139356      33  139362  139359      34  139368  139365      33
  139371  139365      33  139371  139368      34  139377  139374      33  139380
  139374      33  139380  139377      34  139386  139383      33  139389  139383
      33  139389  139386      34  139395  139392      33  139398  139392      33
  139398  139395      34  139404  139401      33  139407  139401      33  139407
  139404      34  139413  139410      33  139416  139410      33  139416  139413
      34  139422  139419      33  139425  139419      33  139425  139422      34
  139431  139428      33  139434  139428      33  139434  139431      34  139440
  139437      33  139443  139437      33  139443  139440      34  139449  139446
      33  139452  139446      33  139452  139449      34  139458  139455      33
  139461  139455      33  139461  139458      34  139467  139464      33  139470
  139464      33  139470  139467      34  139476  139473      33  139479  139473
      33  139479  139476      34  139485  139482      33  139488  139482      33
  139488  139485      34  139494  139491      33  139497  139491      33  139497
  139494      34  139503  139500      33  139506  139500      33  139506  139503
      34  139512  139509      33  139515  139509      33  139515  139512      34
  139521  139518      33  139524  139518      33  139524  139521      34  139530
  139527      33  139533  139527      33  139533  139530      34  139539  139536
      33  139542  139536      33  139542  139539      34  139548  139545      33
  139551  139545      33  139551  139548      34  139557  139554      33  139560
  139554      33  139560  139557      34  139566  139563      33  139569  139563
      33  139569  139566      34  139575  139572      33  139578  139572      33
  139578  139575      34  139584  139581      33  139587  139581      33  139587
  139584      34  139593  139590      33  139596  139590      33  139596  139593
      34  139602  139599      33  139605  139599      33  139605  139602      34
  139611  139608      33  139614  139608      33  139614  139611      34  139620
  139617      33  139623  139617      33  139623  139620      34  139629  139626
      33  139632  139626      33  139632  139629      34  139638  139635      33
  139641  139635      33  139641  139638      34  139647  139644      33  139650
  139644      33  139650  139647      34  139656  139653      33  139659  139653
      33  139659  139656      34  139665  139662      33  139668  139662      33
  139668  139665      34  139674  139671      33  139677  139671      33  139677
  139674      34  139683  139680      33  139686  139680      33  139686  139683
      34  139692  139689      33  139695  139689      33  139695  139692      34
  139701  139698      33  139704  139698      33  139704  139701      34  139710
  139707      33  139713  139707      33  139713  139710      34  139719  139716
      33  139722  139716      33  139722  139719      34  139728  139725      33
  139731  139725      33  139731  139728      34  139737  139734      33  139740
  139734      33  139740  139737      34  139746  139743      33  139749  139743
      33  139749  139746      34  139755  139752      33  139758  139752      33
  139758  139755      34  139764  139761      33  139767  139761      33  139767
  139764      34  139773  139770      33  139776  139770      33  139776  139773
      34  139782  139779      33  139785  139779      33  139785  139782      34
  139791  139788      33  139794  139788      33  139794  139791      34  139800
  139797      33  139803  139797      33  139803  139800      34  139809  139806
      33  139812  139806      33  139812  139809      34  139818  139815      33
  139821  139815      33  139821  139818      34  139827  139824      33  139830
  139824      33  139830  139827      34  139836  139833      33  139839  139833
      33  139839  139836      34  139845  139842      33  139848  139842      33
  139848  139845      34  139854  139851      33  139857  139851      33  139857
  139854      34  139863  139860      33  139866  139860      33  139866  139863
      34  139872  139869      33  139875  139869      33  139875  139872      34
  139881  139878      33  139884  139878      33  139884  139881      34  139890
  139887      33  139893  139887      33  139893  139890      34  139899  139896
      33  139902  139896      33  139902  139899      34  139908  139905      33
  139911  139905      33  139911  139908      34  139917  139914      33  139920
  139914      33  139920  139917      34  139926  139923      33  139929  139923
      33  139929  139926      34  139935  139932      33  139938  139932      33
  139938  139935      34  139944  139941      33  139947  139941      33  139947
  139944      34  139953  139950      33  139956  139950      33  139956  139953
      34  139962  139959      33  139965  139959      33  139965  139962      34
  139971  139968      33  139974  139968      33  139974  139971      34  139980
  139977      33  139983  139977      33  139983  139980      34  139989  139986
      33  139992  139986      33  139992  139989      34  139998  139995      33
  140001  139995      33  140001  139998      34  140007  140004      33  140010
  140004      33  140010  140007      34  140016  140013      33  140019  140013
      33  140019  140016      34  140025  140022      33  140028  140022      33
  140028  140025      34  140034  140031      33  140037  140031      33  140037
  140034      34  140043  140040      33  140046  140040      33  140046  140043
      34  140052  140049      33  140055  140049      33  140055  140052      34
  140061  140058      33  140064  140058      33  140064  140061      34  140070
  140067      33  140073  140067      33  140073  140070      34  140079  140076
      33  140082  140076      33  140082  140079      34  140088  140085      33
  140091  140085      33  140091  140088      34  140097  140094      33  140100
  140094      33  140100  140097      34  140106  140103      33  140109  140103
      33  140109  140106      34  140115  140112      33  140118  140112      33
  140118  140115      34  140124  140121      33  140127  140121      33  140127
  140124      34  140133  140130      33  140136  140130      33  140136  140133
      34  140142  140139      33  140145  140139      33  140145  140142      34
  140151  140148      33  140154  140148      33  140154  140151      34  140160
  140157      33  140163  140157      33  140163  140160      34  140169  140166
      33  140172  140166      33  140172  140169      34  140178  140175      33
  140181  140175      33  140181  140178      34  140187  140184      33  140190
  140184      33  140190  140187      34  140196  140193      33  140199  140193
      33  140199  140196      34  140205  140202      33  140208  140202      33
  140208  140205      34  140214  140211      33  140217  140211      33  140217
  140214      34  140223  140220      33  140226  140220      33  140226  140223
      34  140232  140229      33  140235  140229      33  140235  140232      34
  140241  140238      33  140244  140238      33  140244  140241      34  140250
  140247      33  140253  140247      33  140253  140250      34  140259  140256
      33  140262  140256      33  140262  140259      34  140268  140265      33
  140271  140265      33  140271  140268      34  140277  140274      33  140280
  140274      33  140280  140277      34  140286  140283      33  140289  140283
      33  140289  140286      34  140295  140292      33  140298  140292      33
  140298  140295      34  140304  140301      33  140307  140301      33  140307
  140304      34  140313  140310      33  140316  140310      33  140316  140313
      34  140322  140319      33  140325  140319      33  140325  140322      34
  140331  140328      33  140334  140328      33  140334  140331      34  140340
  140337      33  140343  140337      33  140343  140340      34  140349  140346
      33  140352  140346      33  140352  140349      34  140358  140355      33
  140361  140355      33  140361  140358      34  140367  140364      33  140370
  140364      33  140370  140367      34  140376  140373      33  140379  140373
      33  140379  140376      34  140385  140382      33  140388  140382      33
  140388  140385      34  140394  140391      33  140397  140391      33  140397
  140394      34  140403  140400      33  140406  140400      33  140406  140403
      34  140412  140409      33  140415  140409      33  140415  140412      34
  140421  140418      33  140424  140418      33  140424  140421      34  140430
  140427      33  140433  140427      33  140433  140430      34  140439  140436
      33  140442  140436      33  140442  140439      34  140448  140445      33
  140451  140445      33  140451  140448      34  140457  140454      33  140460
  140454      33  140460  140457      34  140466  140463      33  140469  140463
      33  140469  140466      34  140475  140472      33  140478  140472      33
  140478  140475      34  140484  140481      33  140487  140481      33  140487
  140484      34  140493  140490      33  140496  140490      33  140496  140493
      34  140502  140499      33  140505  140499      33  140505  140502      34
  140511  140508      33  140514  140508      33  140514  140511      34  140520
  140517      33  140523  140517      33  140523  140520      34  140529  140526
      33  140532  140526      33  140532  140529      34  140538  140535      33
  140541  140535      33  140541  140538      34  140547  140544      33  140550
  140544      33  140550  140547      34  140556  140553      33  140559  140553
      33  140559  140556      34  140565  140562      33  140568  140562      33
  140568  140565      34  140574  140571      33  140577  140571      33  140577
  140574      34  140583  140580      33  140586  140580      33  140586  140583
      34  140592  140589      33  140595  140589      33  140595  140592      34
  140601  140598      33  140604  140598      33  140604  140601      34  140610
  140607      33  140613  140607      33  140613  140610      34  140619  140616
      33  140622  140616      33  140622  140619      34  140628  140625      33
  140631  140625      33  140631  140628      34  140637  140634      33  140640
  140634      33  140640  140637      34  140646  140643      33  140649  140643
      33  140649  140646      34  140655  140652      33  140658  140652      33
  140658  140655      34  140664  140661      33  140667  140661      33  140667
  140664      34  140673  140670      33  140676  140670      33  140676  140673
      34  140682  140679      33  140685  140679      33  140685  140682      34
  140691  140688      33  140694  140688      33  140694  140691      34  140700
  140697      33  140703  140697      33  140703  140700      34  140709  140706
      33  140712  140706      33  140712  140709      34  140718  140715      33
  140721  140715      33  140721  140718      34  140727  140724      33  140730
  140724      33  140730  140727      34  140736  140733      33  140739  140733
      33  140739  140736      34  140745  140742      33  140748  140742      33
  140748  140745      34  140754  140751      33  140757  140751      33  140757
  140754      34  140763  140760      33  140766  140760      33  140766  140763
      34  140772  140769      33  140775  140769      33  140775  140772      34
  140781  140778      33  140784  140778      33  140784  140781      34  140790
  140787      33  140793  140787      33  140793  140790      34  140799  140796
      33  140802  140796      33  140802  140799      34  140808  140805      33
  140811  140805      33  140811  140808      34  140817  140814      33  140820
  140814      33  140820  140817      34  140826  140823      33  140829  140823
      33  140829  140826      34  140835  140832      33  140838  140832      33
  140838  140835      34  140844  140841      33  140847  140841      33  140847
  140844      34  140853  140850      33  140856  140850      33  140856  140853
      34  140862  140859      33  140865  140859      33  140865  140862      34
  140871  140868      33  140874  140868      33  140874  140871      34  140880
  140877      33  140883  140877      33  140883  140880      34  140889  140886
      33  140892  140886      33  140892  140889      34  140898  140895      33
  140901  140895      33  140901  140898      34  140907  140904      33  140910
  140904      33  140910  140907      34  140916  140913      33  140919  140913
      33  140919  140916      34  140925  140922      33  140928  140922      33
  140928  140925      34  140934  140931      33  140937  140931      33  140937
  140934      34  140943  140940      33  140946  140940      33  140946  140943
      34  140952  140949      33  140955  140949      33  140955  140952      34
  140961  140958      33  140964  140958      33  140964  140961      34  140970
  140967      33  140973  140967      33  140973  140970      34  140979  140976
      33  140982  140976      33  140982  140979      34  140988  140985      33
  140991  140985      33  140991  140988      34  140997  140994      33  141000
  140994      33  141000  140997      34  141006  141003      33  141009  141003
      33  141009  141006      34  141015  141012      33  141018  141012      33
  141018  141015      34  141024  141021      33  141027  141021      33  141027
  141024      34  141033  141030      33  141036  141030      33  141036  141033
      34  141042  141039      33  141045  141039      33  141045  141042      34
  141051  141048      33  141054  141048      33  141054  141051      34  141060
  141057      33  141063  141057      33  141063  141060      34  141069  141066
      33  141072  141066      33  141072  141069      34  141078  141075      33
  141081  141075      33  141081  141078      34  141087  141084      33  141090
  141084      33  141090  141087      34  141096  141093      33  141099  141093
      33  141099  141096      34  141105  141102      33  141108  141102      33
  141108  141105      34  141114  141111      33  141117  141111      33  141117
  141114      34  141123  141120      33  141126  141120      33  141126  141123
      34  141132  141129      33  141135  141129      33  141135  141132      34
  141141  141138      33  141144  141138      33  141144  141141      34  141150
  141147      33  141153  141147      33  141153  141150      34  141159  141156
      33  141162  141156      33  141162  141159      34  141168  141165      33
  141171  141165      33  141171  141168      34  141177  141174      33  141180
  141174      33  141180  141177      34  141186  141183      33  141189  141183
      33  141189  141186      34  141195  141192      33  141198  141192      33
  141198  141195      34  141204  141201      33  141207  141201      33  141207
  141204      34  141213  141210      33  141216  141210      33  141216  141213
      34  141222  141219      33  141225  141219      33  141225  141222      34
  141231  141228      33  141234  141228      33  141234  141231      34  141240
  141237      33  141243  141237      33  141243  141240      34  141249  141246
      33  141252  141246      33  141252  141249      34  141258  141255      33
  141261  141255      33  141261  141258      34  141267  141264      33  141270
  141264      33  141270  141267      34  141276  141273      33  141279  141273
      33  141279  141276      34  141285  141282      33  141288  141282      33
  141288  141285      34  141294  141291      33  141297  141291      33  141297
  141294      34  141303  141300      33  141306  141300      33  141306  141303
      34  141312  141309      33  141315  141309      33  141315  141312      34
  141321  141318      33  141324  141318      33  141324  141321      34  141330
  141327      33  141333  141327      33  141333  141330      34  141339  141336
      33  141342  141336      33  141342  141339      34  141348  141345      33
  141351  141345      33  141351  141348      34  141357  141354      33  141360
  141354      33  141360  141357      34  141366  141363      33  141369  141363
      33  141369  141366      34  141375  141372      33  141378  141372      33
  141378  141375      34  141384  141381      33  141387  141381      33  141387
  141384      34  141393  141390      33  141396  141390      33  141396  141393
      34  141402  141399      33  141405  141399      33  141405  141402      34
  141411  141408      33  141414  141408      33  141414  141411      34  141420
  141417      33  141423  141417      33  141423  141420      34  141429  141426
      33  141432  141426      33  141432  141429      34  141438  141435      33
  141441  141435      33  141441  141438      34  141447  141444      33  141450
  141444      33  141450  141447      34  141456  141453      33  141459  141453
      33  141459  141456      34  141465  141462      33  141468  141462      33
  141468  141465      34  141474  141471      33  141477  141471      33  141477
  141474      34  141483  141480      33  141486  141480      33  141486  141483
      34  141492  141489      33  141495  141489      33  141495  141492      34
  141501  141498      33  141504  141498      33  141504  141501      34  141510
  141507      33  141513  141507      33  141513  141510      34  141519  141516
      33  141522  141516      33  141522  141519      34  141528  141525      33
  141531  141525      33  141531  141528      34  141537  141534      33  141540
  141534      33  141540  141537      34  141546  141543      33  141549  141543
      33  141549  141546      34  141555  141552      33  141558  141552      33
  141558  141555      34  141564  141561      33  141567  141561      33  141567
  141564      34  141573  141570      33  141576  141570      33  141576  141573
      34  141582  141579      33  141585  141579      33  141585  141582      34
  141591  141588      33  141594  141588      33  141594  141591      34  141600
  141597      33  141603  141597      33  141603  141600      34  141609  141606
      33  141612  141606      33  141612  141609      34  141618  141615      33
  141621  141615      33  141621  141618      34  141627  141624      33  141630
  141624      33  141630  141627      34  141636  141633      33  141639  141633
      33  141639  141636      34  141645  141642      33  141648  141642      33
  141648  141645      34  141654  141651      33  141657  141651      33  141657
  141654      34  141663  141660      33  141666  141660      33  141666  141663
      34  141672  141669      33  141675  141669      33  141675  141672      34
  141681  141678      33  141684  141678      33  141684  141681      34  141690
  141687      33  141693  141687      33  141693  141690      34  141699  141696
      33  141702  141696      33  141702  141699      34  141708  141705      33
  141711  141705      33  141711  141708      34  141717  141714      33  141720
  141714      33  141720  141717      34  141726  141723      33  141729  141723
      33  141729  141726      34  141735  141732      33  141738  141732      33
  141738  141735      34  141744  141741      33  141747  141741      33  141747
  141744      34  141753  141750      33  141756  141750      33  141756  141753
      34  141762  141759      33  141765  141759      33  141765  141762      34
  141771  141768      33  141774  141768      33  141774  141771      34  141780
  141777      33  141783  141777      33  141783  141780      34  141789  141786
      33  141792  141786      33  141792  141789      34  141798  141795      33
  141801  141795      33  141801  141798      34  141807  141804      33  141810
  141804      33  141810  141807      34  141816  141813      33  141819  141813
      33  141819  141816      34  141825  141822      33  141828  141822      33
  141828  141825      34  141834  141831      33  141837  141831      33  141837
  141834      34  141843  141840      33  141846  141840      33  141846  141843
      34  141852  141849      33  141855  141849      33  141855  141852      34
  141861  141858      33  141864  141858      33  141864  141861      34  141870
  141867      33  141873  141867      33  141873  141870      34  141879  141876
      33  141882  141876      33  141882  141879      34  141888  141885      33
  141891  141885      33  141891  141888      34  141897  141894      33  141900
  141894      33  141900  141897      34  141906  141903      33  141909  141903
      33  141909  141906      34  141915  141912      33  141918  141912      33
  141918  141915      34  141924  141921      33  141927  141921      33  141927
  141924      34  141933  141930      33  141936  141930      33  141936  141933
      34  141942  141939      33  141945  141939      33  141945  141942      34
  141951  141948      33  141954  141948      33  141954  141951      34  141960
  141957      33  141963  141957      33  141963  141960      34  141969  141966
      33  141972  141966      33  141972  141969      34  141978  141975      33
  141981  141975      33  141981  141978      34  141987  141984      33  141990
  141984      33  141990  141987      34  141996  141993      33  141999  141993
      33  141999  141996      34  142005  142002      33  142008  142002      33
  142008  142005      34  142014  142011      33  142017  142011      33  142017
  142014      34  142023  142020      33  142026  142020      33  142026  142023
      34  142032  142029      33  142035  142029      33  142035  142032      34
  142041  142038      33  142044  142038      33  142044  142041      34  142050
  142047      33  142053  142047      33  142053  142050      34  142059  142056
      33  142062  142056      33  142062  142059      34  142068  142065      33
  142071  142065      33  142071  142068      34  142077  142074      33  142080
  142074      33  142080  142077      34  142086  142083      33  142089  142083
      33  142089  142086      34  142095  142092      33  142098  142092      33
  142098  142095      34  142104  142101      33  142107  142101      33  142107
  142104      34  142113  142110      33  142116  142110      33  142116  142113
      34  142122  142119      33  142125  142119      33  142125  142122      34
  142131  142128      33  142134  142128      33  142134  142131      34  142140
  142137      33  142143  142137      33  142143  142140      34  142149  142146
      33  142152  142146      33  142152  142149      34  142158  142155      33
  142161  142155      33  142161  142158      34  142167  142164      33  142170
  142164      33  142170  142167      34  142176  142173      33  142179  142173
      33  142179  142176      34  142185  142182      33  142188  142182      33
  142188  142185      34  142194  142191      33  142197  142191      33  142197
  142194      34  142203  142200      33  142206  142200      33  142206  142203
      34  142212  142209      33  142215  142209      33  142215  142212      34
  142221  142218      33  142224  142218      33  142224  142221      34  142230
  142227      33  142233  142227      33  142233  142230      34  142239  142236
      33  142242  142236      33  142242  142239      34  142248  142245      33
  142251  142245      33  142251  142248      34  142257  142254      33  142260
  142254      33  142260  142257      34  142266  142263      33  142269  142263
      33  142269  142266      34  142275  142272      33  142278  142272      33
  142278  142275      34  142284  142281      33  142287  142281      33  142287
  142284      34  142293  142290      33  142296  142290      33  142296  142293
      34  142302  142299      33  142305  142299      33  142305  142302      34
  142311  142308      33  142314  142308      33  142314  142311      34  142320
  142317      33  142323  142317      33  142323  142320      34  142329  142326
      33  142332  142326      33  142332  142329      34  142338  142335      33
  142341  142335      33  142341  142338      34  142347  142344      33  142350
  142344      33  142350  142347      34  142356  142353      33  142359  142353
      33  142359  142356      34  142365  142362      33  142368  142362      33
  142368  142365      34  142374  142371      33  142377  142371      33  142377
  142374      34  142383  142380      33  142386  142380      33  142386  142383
      34  142392  142389      33  142395  142389      33  142395  142392      34
  142401  142398      33  142404  142398      33  142404  142401      34  142410
  142407      33  142413  142407      33  142413  142410      34  142419  142416
      33  142422  142416      33  142422  142419      34  142428  142425      33
  142431  142425      33  142431  142428      34  142437  142434      33  142440
  142434      33  142440  142437      34  142446  142443      33  142449  142443
      33  142449  142446      34  142455  142452      33  142458  142452      33
  142458  142455      34  142464  142461      33  142467  142461      33  142467
  142464      34  142473  142470      33  142476  142470      33  142476  142473
      34  142482  142479      33  142485  142479      33  142485  142482      34
  142491  142488      33  142494  142488      33  142494  142491      34  142500
  142497      33  142503  142497      33  142503  142500      34  142509  142506
      33  142512  142506      33  142512  142509      34  142518  142515      33
  142521  142515      33  142521  142518      34  142527  142524      33  142530
  142524      33  142530  142527      34  142536  142533      33  142539  142533
      33  142539  142536      34  142545  142542      33  142548  142542      33
  142548  142545      34  142554  142551      33  142557  142551      33  142557
  142554      34  142563  142560      33  142566  142560      33  142566  142563
      34  142572  142569      33  142575  142569      33  142575  142572      34
  142581  142578      33  142584  142578      33  142584  142581      34  142590
  142587      33  142593  142587      33  142593  142590      34  142599  142596
      33  142602  142596      33  142602  142599      34  142608  142605      33
  142611  142605      33  142611  142608      34  142617  142614      33  142620
  142614      33  142620  142617      34  142626  142623      33  142629  142623
      33  142629  142626      34  142635  142632      33  142638  142632      33
  142638  142635      34  142644  142641      33  142647  142641      33  142647
  142644      34  142653  142650      33  142656  142650      33  142656  142653
      34  142662  142659      33  142665  142659      33  142665  142662      34
  142671  142668      33  142674  142668      33  142674  142671      34  142680
  142677      33  142683  142677      33  142683  142680      34  142689  142686
      33  142692  142686      33  142692  142689      34  142698  142695      33
  142701  142695      33  142701  142698      34  142707  142704      33  142710
  142704      33  142710  142707      34  142716  142713      33  142719  142713
      33  142719  142716      34  142725  142722      33  142728  142722      33
  142728  142725      34  142734  142731      33  142737  142731      33  142737
  142734      34  142743  142740      33  142746  142740      33  142746  142743
      34  142752  142749      33  142755  142749      33  142755  142752      34
  142761  142758      33  142764  142758      33  142764  142761      34  142770
  142767      33  142773  142767      33  142773  142770      34  142779  142776
      33  142782  142776      33  142782  142779      34  142788  142785      33
  142791  142785      33  142791  142788      34  142797  142794      33  142800
  142794      33  142800  142797      34  142806  142803      33  142809  142803
      33  142809  142806      34  142815  142812      33  142818  142812      33
  142818  142815      34  142824  142821      33  142827  142821      33  142827
  142824      34  142833  142830      33  142836  142830      33  142836  142833
      34  142842  142839      33  142845  142839      33  142845  142842      34
  142851  142848      33  142854  142848      33  142854  142851      34  142860
  142857      33  142863  142857      33  142863  142860      34  142869  142866
      33  142872  142866      33  142872  142869      34  142878  142875      33
  142881  142875      33  142881  142878      34  142887  142884      33  142890
  142884      33  142890  142887      34  142896  142893      33  142899  142893
      33  142899  142896      34  142905  142902      33  142908  142902      33
  142908  142905      34  142914  142911      33  142917  142911      33  142917
  142914      34  142923  142920      33  142926  142920      33  142926  142923
      34  142932  142929      33  142935  142929      33  142935  142932      34
  142941  142938      33  142944  142938      33  142944  142941      34  142950
  142947      33  142953  142947      33  142953  142950      34  142959  142956
      33  142962  142956      33  142962  142959      34  142968  142965      33
  142971  142965      33  142971  142968      34  142977  142974      33  142980
  142974      33  142980  142977      34  142986  142983      33  142989  142983
      33  142989  142986      34  142995  142992      33  142998  142992      33
  142998  142995      34  143004  143001      33  143007  143001      33  143007
  143004      34  143013  143010      33  143016  143010      33  143016  143013
      34  143022  143019      33  143025  143019      33  143025  143022      34
  143031  143028      33  143034  143028      33  143034  143031      34  143040
  143037      33  143043  143037      33  143043  143040      34  143049  143046
      33  143052  143046      33  143052  143049      34  143058  143055      33
  143061  143055      33  143061  143058      34  143067  143064      33  143070
  143064      33  143070  143067      34  143076  143073      33  143079  143073
      33  143079  143076      34  143085  143082      33  143088  143082      33
  143088  143085      34  143094  143091      33  143097  143091      33  143097
  143094      34  143103  143100      33  143106  143100      33  143106  143103
      34  143112  143109      33  143115  143109      33  143115  143112      34
  143121  143118      33  143124  143118      33  143124  143121      34  143130
  143127      33  143133  143127      33  143133  143130      34  143139  143136
      33  143142  143136      33  143142  143139      34  143148  143145      33
  143151  143145      33  143151  143148      34  143157  143154      33  143160
  143154      33  143160  143157      34  143166  143163      33  143169  143163
      33  143169  143166      34  143175  143172      33  143178  143172      33
  143178  143175      34  143184  143181      33  143187  143181      33  143187
  143184      34  143193  143190      33  143196  143190      33  143196  143193
      34  143202  143199      33  143205  143199      33  143205  143202      34
  143211  143208      33  143214  143208      33  143214  143211      34  143220
  143217      33  143223  143217      33  143223  143220      34  143229  143226
      33  143232  143226      33  143232  143229      34  143238  143235      33
  143241  143235      33  143241  143238      34  143247  143244      33  143250
  143244      33  143250  143247      34  143256  143253      33  143259  143253
      33  143259  143256      34  143265  143262      33  143268  143262      33
  143268  143265      34  143274  143271      33  143277  143271      33  143277
  143274      34  143283  143280      33  143286  143280      33  143286  143283
      34  143292  143289      33  143295  143289      33  143295  143292      34
  143301  143298      33  143304  143298      33  143304  143301      34  143310
  143307      33  143313  143307      33  143313  143310      34  143319  143316
      33  143322  143316      33  143322  143319      34  143328  143325      33
  143331  143325      33  143331  143328      34  143337  143334      33  143340
  143334      33  143340  143337      34  143346  143343      33  143349  143343
      33  143349  143346      34  143355  143352      33  143358  143352      33
  143358  143355      34  143364  143361      33  143367  143361      33  143367
  143364      34  143373  143370      33  143376  143370      33  143376  143373
      34  143382  143379      33  143385  143379      33  143385  143382      34
  143391  143388      33  143394  143388      33  143394  143391      34  143400
  143397      33  143403  143397      33  143403  143400      34  143409  143406
      33  143412  143406      33  143412  143409      34  143418  143415      33
  143421  143415      33  143421  143418      34  143427  143424      33  143430
  143424      33  143430  143427      34  143436  143433      33  143439  143433
      33  143439  143436      34  143445  143442      33  143448  143442      33
  143448  143445      34  143454  143451      33  143457  143451      33  143457
  143454      34  143463  143460      33  143466  143460      33  143466  143463
      34  143472  143469      33  143475  143469      33  143475  143472      34
  143481  143478      33  143484  143478      33  143484  143481      34  143490
  143487      33  143493  143487      33  143493  143490      34  143499  143496
      33  143502  143496      33  143502  143499      34  143508  143505      33
  143511  143505      33  143511  143508      34  143517  143514      33  143520
  143514      33  143520  143517      34  143526  143523      33  143529  143523
      33  143529  143526      34  143535  143532      33  143538  143532      33
  143538  143535      34  143544  143541      33  143547  143541      33  143547
  143544      34  143553  143550      33  143556  143550      33  143556  143553
      34  143562  143559      33  143565  143559      33  143565  143562      34
  143571  143568      33  143574  143568      33  143574  143571      34  143580
  143577      33  143583  143577      33  143583  143580      34  143589  143586
      33  143592  143586      33  143592  143589      34  143598  143595      33
  143601  143595      33  143601  143598      34  143607  143604      33  143610
  143604      33  143610  143607      34  143616  143613      33  143619  143613
      33  143619  143616      34  143625  143622      33  143628  143622      33
  143628  143625      34  143634  143631      33  143637  143631      33  143637
  143634      34  143643  143640      33  143646  143640      33  143646  143643
      34  143652  143649      33  143655  143649      33  143655  143652      34
  143661  143658      33  143664  143658      33  143664  143661      34  143670
  143667      33  143673  143667      33  143673  143670      34  143679  143676
      33  143682  143676      33  143682  143679      34  143688  143685      33
  143691  143685      33  143691  143688      34  143697  143694      33  143700
  143694      33  143700  143697      34  143706  143703      33  143709  143703
      33  143709  143706      34  143715  143712      33  143718  143712      33
  143718  143715      34  143724  143721      33  143727  143721      33  143727
  143724      34  143733  143730      33  143736  143730      33  143736  143733
      34  143742  143739      33  143745  143739      33  143745  143742      34
  143751  143748      33  143754  143748      33  143754  143751      34  143760
  143757      33  143763  143757      33  143763  143760      34  143769  143766
      33  143772  143766      33  143772  143769      34  143778  143775      33
  143781  143775      33  143781  143778      34  143787  143784      33  143790
  143784      33  143790  143787      34  143796  143793      33  143799  143793
      33  143799  143796      34  143805  143802      33  143808  143802      33
  143808  143805      34  143814  143811      33  143817  143811      33  143817
  143814      34  143823  143820      33  143826  143820      33  143826  143823
      34  143832  143829      33  143835  143829      33  143835  143832      34
  143841  143838      33  143844  143838      33  143844  143841      34  143850
  143847      33  143853  143847      33  143853  143850      34  143859  143856
      33  143862  143856      33  143862  143859      34  143868  143865      33
  143871  143865      33  143871  143868      34  143877  143874      33  143880
  143874      33  143880  143877      34  143886  143883      33  143889  143883
      33  143889  143886      34  143895  143892      33  143898  143892      33
  143898  143895      34  143904  143901      33  143907  143901      33  143907
  143904      34  143913  143910      33  143916  143910      33  143916  143913
      34  143922  143919      33  143925  143919      33  143925  143922      34
  143931  143928      33  143934  143928      33  143934  143931      34  143940
  143937      33  143943  143937      33  143943  143940      34  143949  143946
      33  143952  143946      33  143952  143949      34  143958  143955      33
  143961  143955      33  143961  143958      34  143967  143964      33  143970
  143964      33  143970  143967      34  143976  143973      33  143979  143973
      33  143979  143976      34  143985  143982      33  143988  143982      33
  143988  143985      34  143994  143991      33  143997  143991      33  143997
  143994      34  144003  144000      33  144006  144000      33  144006  144003
      34  144012  144009      33  144015  144009      33  144015  144012      34
  144021  144018      33  144024  144018      33  144024  144021      34  144030
  144027      33  144033  144027      33  144033  144030      34  144039  144036
      33  144042  144036      33  144042  144039      34  144048  144045      33
  144051  144045      33  144051  144048      34  144057  144054      33  144060
  144054      33  144060  144057      34  144066  144063      33  144069  144063
      33  144069  144066      34  144075  144072      33  144078  144072      33
  144078  144075      34  144084  144081      33  144087  144081      33  144087
  144084      34  144093  144090      33  144096  144090      33  144096  144093
      34  144102  144099      33  144105  144099      33  144105  144102      34
  144111  144108      33  144114  144108      33  144114  144111      34  144120
  144117      33  144123  144117      33  144123  144120      34  144129  144126
      33  144132  144126      33  144132  144129      34  144138  144135      33
  144141  144135      33  144141  144138      34  144147  144144      33  144150
  144144      33  144150  144147      34  144156  144153      33  144159  144153
      33  144159  144156      34  144165  144162      33  144168  144162      33
  144168  144165      34  144174  144171      33  144177  144171      33  144177
  144174      34  144183  144180      33  144186  144180      33  144186  144183
      34  144192  144189      33  144195  144189      33  144195  144192      34
  144201  144198      33  144204  144198      33  144204  144201      34  144210
  144207      33  144213  144207      33  144213  144210      34  144219  144216
      33  144222  144216      33  144222  144219      34  144228  144225      33
  144231  144225      33  144231  144228      34  144237  144234      33  144240
  144234      33  144240  144237      34  144246  144243      33  144249  144243
      33  144249  144246      34  144255  144252      33  144258  144252      33
  144258  144255      34  144264  144261      33  144267  144261      33  144267
  144264      34  144273  144270      33  144276  144270      33  144276  144273
      34  144282  144279      33  144285  144279      33  144285  144282      34
  144291  144288      33  144294  144288      33  144294  144291      34  144300
  144297      33  144303  144297      33  144303  144300      34  144309  144306
      33  144312  144306      33  144312  144309      34  144318  144315      33
  144321  144315      33  144321  144318      34  144327  144324      33  144330
  144324      33  144330  144327      34  144336  144333      33  144339  144333
      33  144339  144336      34  144345  144342      33  144348  144342      33
  144348  144345      34  144354  144351      33  144357  144351      33  144357
  144354      34  144363  144360      33  144366  144360      33  144366  144363
      34  144372  144369      33  144375  144369      33  144375  144372      34
  144381  144378      33  144384  144378      33  144384  144381      34  144390
  144387      33  144393  144387      33  144393  144390      34  144399  144396
      33  144402  144396      33  144402  144399      34  144408  144405      33
  144411  144405      33  144411  144408      34  144417  144414      33  144420
  144414      33  144420  144417      34  144426  144423      33  144429  144423
      33  144429  144426      34  144435  144432      33  144438  144432      33
  144438  144435      34  144444  144441      33  144447  144441      33  144447
  144444      34  144453  144450      33  144456  144450      33  144456  144453
      34  144462  144459      33  144465  144459      33  144465  144462      34
  144471  144468      33  144474  144468      33  144474  144471      34  144480
  144477      33  144483  144477      33  144483  144480      34  144489  144486
      33  144492  144486      33  144492  144489      34  144498  144495      33
  144501  144495      33  144501  144498      34  144507  144504      33  144510
  144504      33  144510  144507      34  144516  144513      33  144519  144513
      33  144519  144516      34  144525  144522      33  144528  144522      33
  144528  144525      34  144534  144531      33  144537  144531      33  144537
  144534      34  144543  144540      33  144546  144540      33  144546  144543
      34  144552  144549      33  144555  144549      33  144555  144552      34
  144561  144558      33  144564  144558      33  144564  144561      34  144570
  144567      33  144573  144567      33  144573  144570      34  144579  144576
      33  144582  144576      33  144582  144579      34  144588  144585      33
  144591  144585      33  144591  144588      34  144597  144594      33  144600
  144594      33  144600  144597      34  144606  144603      33  144609  144603
      33  144609  144606      34  144615  144612      33  144618  144612      33
  144618  144615      34  144624  144621      33  144627  144621      33  144627
  144624      34  144633  144630      33  144636  144630      33  144636  144633
      34  144642  144639      33  144645  144639      33  144645  144642      34
  144651  144648      33  144654  144648      33  144654  144651      34  144660
  144657      33  144663  144657      33  144663  144660      34  144669  144666
      33  144672  144666      33  144672  144669      34  144678  144675      33
  144681  144675      33  144681  144678      34  144687  144684      33  144690
  144684      33  144690  144687      34  144696  144693      33  144699  144693
      33  144699  144696      34  144705  144702      33  144708  144702      33
  144708  144705      34  144714  144711      33  144717  144711      33  144717
  144714      34  144723  144720      33  144726  144720      33  144726  144723
      34  144732  144729      33  144735  144729      33  144735  144732      34
  144741  144738      33  144744  144738      33  144744  144741      34  144750
  144747      33  144753  144747      33  144753  144750      34  144759  144756
      33  144762  144756      33  144762  144759      34  144768  144765      33
  144771  144765      33  144771  144768      34  144777  144774      33  144780
  144774      33  144780  144777      34  144786  144783      33  144789  144783
      33  144789  144786      34  144795  144792      33  144798  144792      33
  144798  144795      34  144804  144801      33  144807  144801      33  144807
  144804      34  144813  144810      33  144816  144810      33  144816  144813
      34  144822  144819      33  144825  144819      33  144825  144822      34
  144831  144828      33  144834  144828      33  144834  144831      34  144840
  144837      33  144843  144837      33  144843  144840      34  144849  144846
      33  144852  144846      33  144852  144849      34  144858  144855      33
  144861  144855      33  144861  144858      34  144867  144864      33  144870
  144864      33  144870  144867      34  144876  144873      33  144879  144873
      33  144879  144876      34  144885  144882      33  144888  144882      33
  144888  144885      34  144894  144891      33  144897  144891      33  144897
  144894      34  144903  144900      33  144906  144900      33  144906  144903
      34  144912  144909      33  144915  144909      33  144915  144912      34
  144921  144918      33  144924  144918      33  144924  144921      34  144930
  144927      33  144933  144927      33  144933  144930      34  144939  144936
      33  144942  144936      33  144942  144939      34  144948  144945      33
  144951  144945      33  144951  144948      34  144957  144954      33  144960
  144954      33  144960  144957      34  144966  144963      33  144969  144963
      33  144969  144966      34  144975  144972      33  144978  144972      33
  144978  144975      34  144984  144981      33  144987  144981      33  144987
  144984      34  144993  144990      33  144996  144990      33  144996  144993
      34  145002  144999      33  145005  144999      33  145005  145002      34
  145011  145008      33  145014  145008      33  145014  145011      34  145020
  145017      33  145023  145017      33  145023  145020      34  145029  145026
      33  145032  145026      33  145032  145029      34  145038  145035      33
  145041  145035      33  145041  145038      34  145047  145044      33  145050
  145044      33  145050  145047      34  145056  145053      33  145059  145053
      33  145059  145056      34  145065  145062      33  145068  145062      33
  145068  145065      34  145074  145071      33  145077  145071      33  145077
  145074      34  145083  145080      33  145086  145080      33  145086  145083
      34  145092  145089      33  145095  145089      33  145095  145092      34
  145101  145098      33  145104  145098      33  145104  145101      34  145110
  145107      33  145113  145107      33  145113  145110      34  145119  145116
      33  145122  145116      33  145122  145119      34  145128  145125      33
  145131  145125      33  145131  145128      34  145137  145134      33  145140
  145134      33  145140  145137      34  145146  145143      33  145149  145143
      33  145149  145146      34  145155  145152      33  145158  145152      33
  145158  145155      34  145164  145161      33  145167  145161      33  145167
  145164      34  145173  145170      33  145176  145170      33  145176  145173
      34  145182  145179      33  145185  145179      33  145185  145182      34
  145191  145188      33  145194  145188      33  145194  145191      34  145200
  145197      33  145203  145197      33  145203  145200      34  145209  145206
      33  145212  145206      33  145212  145209      34  145218  145215      33
  145221  145215      33  145221  145218      34  145227  145224      33  145230
  145224      33  145230  145227      34  145236  145233      33  145239  145233
      33  145239  145236      34  145245  145242      33  145248  145242      33
  145248  145245      34  145254  145251      33  145257  145251      33  145257
  145254      34  145263  145260      33  145266  145260      33  145266  145263
      34  145272  145269      33  145275  145269      33  145275  145272      34
  145281  145278      33  145284  145278      33  145284  145281      34  145290
  145287      33  145293  145287      33  145293  145290      34  145299  145296
      33  145302  145296      33  145302  145299      34  145308  145305      33
  145311  145305      33  145311  145308      34  145317  145314      33  145320
  145314      33  145320  145317      34  145326  145323      33  145329  145323
      33  145329  145326      34  145335  145332      33  145338  145332      33
  145338  145335      34  145344  145341      33  145347  145341      33  145347
  145344      34  145353  145350      33  145356  145350      33  145356  145353
      34  145362  145359      33  145365  145359      33  145365  145362      34
  145371  145368      33  145374  145368      33  145374  145371      34  145380
  145377      33  145383  145377      33  145383  145380      34  145389  145386
      33  145392  145386      33  145392  145389      34  145398  145395      33
  145401  145395      33  145401  145398      34  145407  145404      33  145410
  145404      33  145410  145407      34  145416  145413      33  145419  145413
      33  145419  145416      34  145425  145422      33  145428  145422      33
  145428  145425      34  145434  145431      33  145437  145431      33  145437
  145434      34  145443  145440      33  145446  145440      33  145446  145443
      34  145452  145449      33  145455  145449      33  145455  145452      34
  145461  145458      33  145464  145458      33  145464  145461      34  145470
  145467      33  145473  145467      33  145473  145470      34  145479  145476
      33  145482  145476      33  145482  145479      34  145488  145485      33
  145491  145485      33  145491  145488      34  145497  145494      33  145500
  145494      33  145500  145497      34  145506  145503      33  145509  145503
      33  145509  145506      34  145515  145512      33  145518  145512      33
  145518  145515      34  145524  145521      33  145527  145521      33  145527
  145524      34  145533  145530      33  145536  145530      33  145536  145533
      34  145542  145539      33  145545  145539      33  145545  145542      34
  145551  145548      33  145554  145548      33  145554  145551      34  145560
  145557      33  145563  145557      33  145563  145560      34  145569  145566
      33  145572  145566      33  145572  145569      34  145578  145575      33
  145581  145575      33  145581  145578      34  145587  145584      33  145590
  145584      33  145590  145587      34  145596  145593      33  145599  145593
      33  145599  145596      34  145605  145602      33  145608  145602      33
  145608  145605      34  145614  145611      33  145617  145611      33  145617
  145614      34  145623  145620      33  145626  145620      33  145626  145623
      34  145632  145629      33  145635  145629      33  145635  145632      34
  145641  145638      33  145644  145638      33  145644  145641      34  145650
  145647      33  145653  145647      33  145653  145650      34  145659  145656
      33  145662  145656      33  145662  145659      34  145668  145665      33
  145671  145665      33  145671  145668      34  145677  145674      33  145680
  145674      33  145680  145677      34  145686  145683      33  145689  145683
      33  145689  145686      34  145695  145692      33  145698  145692      33
  145698  145695      34  145704  145701      33  145707  145701      33  145707
  145704      34  145713  145710      33  145716  145710      33  145716  145713
      34  145722  145719      33  145725  145719      33  145725  145722      34
  145731  145728      33  145734  145728      33  145734  145731      34  145740
  145737      33  145743  145737      33  145743  145740      34  145749  145746
      33  145752  145746      33  145752  145749      34  145758  145755      33
  145761  145755      33  145761  145758      34  145767  145764      33  145770
  145764      33  145770  145767      34  145776  145773      33  145779  145773
      33  145779  145776      34  145785  145782      33  145788  145782      33
  145788  145785      34  145794  145791      33  145797  145791      33  145797
  145794      34  145803  145800      33  145806  145800      33  145806  145803
      34  145812  145809      33  145815  145809      33  145815  145812      34
  145821  145818      33  145824  145818      33  145824  145821      34  145830
  145827      33  145833  145827      33  145833  145830      34  145839  145836
      33  145842  145836      33  145842  145839      34  145848  145845      33
  145851  145845      33  145851  145848      34  145857  145854      33  145860
  145854      33  145860  145857      34  145866  145863      33  145869  145863
      33  145869  145866      34  145875  145872      33  145878  145872      33
  145878  145875      34  145884  145881      33  145887  145881      33  145887
  145884      34  145893  145890      33  145896  145890      33  145896  145893
      34  145902  145899      33  145905  145899      33  145905  145902      34
  145911  145908      33  145914  145908      33  145914  145911      34  145920
  145917      33  145923  145917      33  145923  145920      34  145929  145926
      33  145932  145926      33  145932  145929      34  145938  145935      33
  145941  145935      33  145941  145938      34  145947  145944      33  145950
  145944      33  145950  145947      34  145956  145953      33  145959  145953
      33  145959  145956      34  145965  145962      33  145968  145962      33
  145968  145965      34  145974  145971      33  145977  145971      33  145977
  145974      34  145983  145980      33  145986  145980      33  145986  145983
      34  145992  145989      33  145995  145989      33  145995  145992      34
  146001  145998      33  146004  145998      33  146004  146001      34  146010
  146007      33  146013  146007      33  146013  146010      34  146019  146016
      33  146022  146016      33  146022  146019      34  146028  146025      33
  146031  146025      33  146031  146028      34  146037  146034      33  146040
  146034      33  146040  146037      34  146046  146043      33  146049  146043
      33  146049  146046      34  146055  146052      33  146058  146052      33
  146058  146055      34  146064  146061      33  146067  146061      33  146067
  146064      34  146073  146070      33  146076  146070      33  146076  146073
      34  146082  146079      33  146085  146079      33  146085  146082      34
  146091  146088      33  146094  146088      33  146094  146091      34  146100
  146097      33  146103  146097      33  146103  146100      34  146109  146106
      33  146112  146106      33  146112  146109      34  146118  146115      33
  146121  146115      33  146121  146118      34  146127  146124      33  146130
  146124      33  146130  146127      34  146136  146133      33  146139  146133
      33  146139  146136      34  146145  146142      33  146148  146142      33
  146148  146145      34  146154  146151      33  146157  146151      33  146157
  146154      34  146163  146160      33  146166  146160      33  146166  146163
      34  146172  146169      33  146175  146169      33  146175  146172      34
  146181  146178      33  146184  146178      33  146184  146181      34  146190
  146187      33  146193  146187      33  146193  146190      34  146199  146196
      33  146202  146196      33  146202  146199      34  146208  146205      33
  146211  146205      33  146211  146208      34  146217  146214      33  146220
  146214      33  146220  146217      34  146226  146223      33  146229  146223
      33  146229  146226      34  146235  146232      33  146238  146232      33
  146238  146235      34  146244  146241      33  146247  146241      33  146247
  146244      34  146253  146250      33  146256  146250      33  146256  146253
      34  146262  146259      33  146265  146259      33  146265  146262      34
  146271  146268      33  146274  146268      33  146274  146271      34  146280
  146277      33  146283  146277      33  146283  146280      34  146289  146286
      33  146292  146286      33  146292  146289      34  146298  146295      33
  146301  146295      33  146301  146298      34  146307  146304      33  146310
  146304      33  146310  146307      34  146316  146313      33  146319  146313
      33  146319  146316      34  146325  146322      33  146328  146322      33
  146328  146325      34  146334  146331      33  146337  146331      33  146337
  146334      34  146343  146340      33  146346  146340      33  146346  146343
      34  146352  146349      33  146355  146349      33  146355  146352      34
  146361  146358      33  146364  146358      33  146364  146361      34  146370
  146367      33  146373  146367      33  146373  146370      34  146379  146376
      33  146382  146376      33  146382  146379      34  146388  146385      33
  146391  146385      33  146391  146388      34  146397  146394      33  146400
  146394      33  146400  146397      34  146406  146403      33  146409  146403
      33  146409  146406      34  146415  146412      33  146418  146412      33
  146418  146415      34  146424  146421      33  146427  146421      33  146427
  146424      34  146433  146430      33  146436  146430      33  146436  146433
      34  146442  146439      33  146445  146439      33  146445  146442      34
  146451  146448      33  146454  146448      33  146454  146451      34  146460
  146457      33  146463  146457      33  146463  146460      34  146469  146466
      33  146472  146466      33  146472  146469      34  146478  146475      33
  146481  146475      33  146481  146478      34  146487  146484      33  146490
  146484      33  146490  146487      34  146496  146493      33  146499  146493
      33  146499  146496      34  146505  146502      33  146508  146502      33
  146508  146505      34  146514  146511      33  146517  146511      33  146517
  146514      34  146523  146520      33  146526  146520      33  146526  146523
      34  146532  146529      33  146535  146529      33  146535  146532      34
  146541  146538      33  146544  146538      33  146544  146541      34  146550
  146547      33  146553  146547      33  146553  146550      34  146559  146556
      33  146562  146556      33  146562  146559      34  146568  146565      33
  146571  146565      33  146571  146568      34  146577  146574      33  146580
  146574      33  146580  146577      34  146586  146583      33  146589  146583
      33  146589  146586      34  146595  146592      33  146598  146592      33
  146598  146595      34  146604  146601      33  146607  146601      33  146607
  146604      34  146613  146610      33  146616  146610      33  146616  146613
      34  146622  146619      33  146625  146619      33  146625  146622      34
  146631  146628      33  146634  146628      33  146634  146631      34  146640
  146637      33  146643  146637      33  146643  146640      34  146649  146646
      33  146652  146646      33  146652  146649      34  146658  146655      33
  146661  146655      33  146661  146658      34  146667  146664      33  146670
  146664      33  146670  146667      34  146676  146673      33  146679  146673
      33  146679  146676      34  146685  146682      33  146688  146682      33
  146688  146685      34  146694  146691      33  146697  146691      33  146697
  146694      34  146703  146700      33  146706  146700      33  146706  146703
      34  146712  146709      33  146715  146709      33  146715  146712      34
  146721  146718      33  146724  146718      33  146724  146721      34  146730
  146727      33  146733  146727      33  146733  146730      34  146739  146736
      33  146742  146736      33  146742  146739      34  146748  146745      33
  146751  146745      33  146751  146748      34  146757  146754      33  146760
  146754      33  146760  146757      34  146766  146763      33  146769  146763
      33  146769  146766      34  146775  146772      33  146778  146772      33
  146778  146775      34  146784  146781      33  146787  146781      33  146787
  146784      34  146793  146790      33  146796  146790      33  146796  146793
      34  146802  146799      33  146805  146799      33  146805  146802      34
  146811  146808      33  146814  146808      33  146814  146811      34  146820
  146817      33  146823  146817      33  146823  146820      34  146829  146826
      33  146832  146826      33  146832  146829      34  146838  146835      33
  146841  146835      33  146841  146838      34  146847  146844      33  146850
  146844      33  146850  146847      34  146856  146853      33  146859  146853
      33  146859  146856      34  146865  146862      33  146868  146862      33
  146868  146865      34  146874  146871      33  146877  146871      33  146877
  146874      34  146883  146880      33  146886  146880      33  146886  146883
      34  146892  146889      33  146895  146889      33  146895  146892      34
  146901  146898      33  146904  146898      33  146904  146901      34  146910
  146907      33  146913  146907      33  146913  146910      34  146919  146916
      33  146922  146916      33  146922  146919      34  146928  146925      33
  146931  146925      33  146931  146928      34  146937  146934      33  146940
  146934      33  146940  146937      34  146946  146943      33  146949  146943
      33  146949  146946      34  146955  146952      33  146958  146952      33
  146958  146955      34  146964  146961      33  146967  146961      33  146967
  146964      34  146973  146970      33  146976  146970      33  146976  146973
      34  146982  146979      33  146985  146979      33  146985  146982      34
  146991  146988      33  146994  146988      33  146994  146991      34  147000
  146997      33  147003  146997      33  147003  147000      34  147009  147006
      33  147012  147006      33  147012  147009      34  147018  147015      33
  147021  147015      33  147021  147018      34  147027  147024      33  147030
  147024      33  147030  147027      34  147036  147033      33  147039  147033
      33  147039  147036      34  147045  147042      33  147048  147042      33
  147048  147045      34  147054  147051      33  147057  147051      33  147057
  147054      34  147063  147060      33  147066  147060      33  147066  147063
      34  147072  147069      33  147075  147069      33  147075  147072      34
  147081  147078      33  147084  147078      33  147084  147081      34  147090
  147087      33  147093  147087      33  147093  147090      34  147099  147096
      33  147102  147096      33  147102  147099      34  147108  147105      33
  147111  147105      33  147111  147108      34  147117  147114      33  147120
  147114      33  147120  147117      34  147126  147123      33  147129  147123
      33  147129  147126      34  147135  147132      33  147138  147132      33
  147138  147135      34  147144  147141      33  147147  147141      33  147147
  147144      34  147153  147150      33  147156  147150      33  147156  147153
      34  147162  147159      33  147165  147159      33  147165  147162      34
  147171  147168      33  147174  147168      33  147174  147171      34  147180
  147177      33  147183  147177      33  147183  147180      34  147189  147186
      33  147192  147186      33  147192  147189      34  147198  147195      33
  147201  147195      33  147201  147198      34  147207  147204      33  147210
  147204      33  147210  147207      34  147216  147213      33  147219  147213
      33  147219  147216      34  147225  147222      33  147228  147222      33
  147228  147225      34  147234  147231      33  147237  147231      33  147237
  147234      34  147243  147240      33  147246  147240      33  147246  147243
      34  147252  147249      33  147255  147249      33  147255  147252      34
  147261  147258      33  147264  147258      33  147264  147261      34  147270
  147267      33  147273  147267      33  147273  147270      34  147279  147276
      33  147282  147276      33  147282  147279      34  147288  147285      33
  147291  147285      33  147291  147288      34  147297  147294      33  147300
  147294      33  147300  147297      34  147306  147303      33  147309  147303
      33  147309  147306      34  147315  147312      33  147318  147312      33
  147318  147315      34  147324  147321      33  147327  147321      33  147327
  147324      34  147333  147330      33  147336  147330      33  147336  147333
      34  147342  147339      33  147345  147339      33  147345  147342      34
  147351  147348      33  147354  147348      33  147354  147351      34  147360
  147357      33  147363  147357      33  147363  147360      34  147369  147366
      33  147372  147366      33  147372  147369      34  147378  147375      33
  147381  147375      33  147381  147378      34  147387  147384      33  147390
  147384      33  147390  147387      34  147396  147393      33  147399  147393
      33  147399  147396      34  147405  147402      33  147408  147402      33
  147408  147405      34  147414  147411      33  147417  147411      33  147417
  147414      34  147423  147420      33  147426  147420      33  147426  147423
      34  147432  147429      33  147435  147429      33  147435  147432      34
  147441  147438      33  147444  147438      33  147444  147441      34  147450
  147447      33  147453  147447      33  147453  147450      34  147459  147456
      33  147462  147456      33  147462  147459      34  147468  147465      33
  147471  147465      33  147471  147468      34  147477  147474      33  147480
  147474      33  147480  147477      34  147486  147483      33  147489  147483
      33  147489  147486      34  147495  147492      33  147498  147492      33
  147498  147495      34  147504  147501      33  147507  147501      33  147507
  147504      34  147513  147510      33  147516  147510      33  147516  147513
      34  147522  147519      33  147525  147519      33  147525  147522      34
  147531  147528      33  147534  147528      33  147534  147531      34  147540
  147537      33  147543  147537      33  147543  147540      34  147549  147546
      33  147552  147546      33  147552  147549      34  147558  147555      33
  147561  147555      33  147561  147558      34  147567  147564      33  147570
  147564      33  147570  147567      34  147576  147573      33  147579  147573
      33  147579  147576      34  147585  147582      33  147588  147582      33
  147588  147585      34  147594  147591      33  147597  147591      33  147597
  147594      34  147603  147600      33  147606  147600      33  147606  147603
      34  147612  147609      33  147615  147609      33  147615  147612      34
  147621  147618      33  147624  147618      33  147624  147621      34  147630
  147627      33  147633  147627      33  147633  147630      34  147639  147636
      33  147642  147636      33  147642  147639      34  147648  147645      33
  147651  147645      33  147651  147648      34  147657  147654      33  147660
  147654      33  147660  147657      34  147666  147663      33  147669  147663
      33  147669  147666      34  147675  147672      33  147678  147672      33
  147678  147675      34  147684  147681      33  147687  147681      33  147687
  147684      34  147693  147690      33  147696  147690      33  147696  147693
      34  147702  147699      33  147705  147699      33  147705  147702      34
  147711  147708      33  147714  147708      33  147714  147711      34  147720
  147717      33  147723  147717      33  147723  147720      34  147729  147726
      33  147732  147726      33  147732  147729      34  147738  147735      33
  147741  147735      33  147741  147738      34  147747  147744      33  147750
  147744      33  147750  147747      34  147756  147753      33  147759  147753
      33  147759  147756      34  147765  147762      33  147768  147762      33
  147768  147765      34  147774  147771      33  147777  147771      33  147777
  147774      34  147783  147780      33  147786  147780      33  147786  147783
      34  147792  147789      33  147795  147789      33  147795  147792      34
  147801  147798      33  147804  147798      33  147804  147801      34  147810
  147807      33  147813  147807      33  147813  147810      34  147819  147816
      33  147822  147816      33  147822  147819      34  147828  147825      33
  147831  147825      33  147831  147828      34  147837  147834      33  147840
  147834      33  147840  147837      34  147846  147843      33  147849  147843
      33  147849  147846      34  147855  147852      33  147858  147852      33
  147858  147855      34  147864  147861      33  147867  147861      33  147867
  147864      34  147873  147870      33  147876  147870      33  147876  147873
      34  147882  147879      33  147885  147879      33  147885  147882      34
  147891  147888      33  147894  147888      33  147894  147891      34  147900
  147897      33  147903  147897      33  147903  147900      34  147909  147906
      33  147912  147906      33  147912  147909      34  147918  147915      33
  147921  147915      33  147921  147918      34  147927  147924      33  147930
  147924      33  147930  147927      34  147936  147933      33  147939  147933
      33  147939  147936      34  147945  147942      33  147948  147942      33
  147948  147945      34  147954  147951      33  147957  147951      33  147957
  147954      34  147963  147960      33  147966  147960      33  147966  147963
      34  147972  147969      33  147975  147969      33  147975  147972      34
  147981  147978      33  147984  147978      33  147984  147981      34  147990
  147987      33  147993  147987      33  147993  147990      34  147999  147996
      33  148002  147996      33  148002  147999      34  148008  148005      33
  148011  148005      33  148011  148008      34  148017  148014      33  148020
  148014      33  148020  148017      34  148026  148023      33  148029  148023
      33  148029  148026      34  148035  148032      33  148038  148032      33
  148038  148035      34  148044  148041      33  148047  148041      33  148047
  148044      34  148053  148050      33  148056  148050      33  148056  148053
      34  148062  148059      33  148065  148059      33  148065  148062      34
  148071  148068      33  148074  148068      33  148074  148071      34  148080
  148077      33  148083  148077      33  148083  148080      34  148089  148086
      33  148092  148086      33  148092  148089      34  148098  148095      33
  148101  148095      33  148101  148098      34  148107  148104      33  148110
  148104      33  148110  148107      34  148116  148113      33  148119  148113
      33  148119  148116      34  148125  148122      33  148128  148122      33
  148128  148125      34  148134  148131      33  148137  148131      33  148137
  148134      34  148143  148140      33  148146  148140      33  148146  148143
      34  148152  148149      33  148155  148149      33  148155  148152      34
  148161  148158      33  148164  148158      33  148164  148161      34  148170
  148167      33  148173  148167      33  148173  148170      34  148179  148176
      33  148182  148176      33  148182  148179      34  148188  148185      33
  148191  148185      33  148191  148188      34  148197  148194      33  148200
  148194      33  148200  148197      34  148206  148203      33  148209  148203
      33  148209  148206      34  148215  148212      33  148218  148212      33
  148218  148215      34  148224  148221      33  148227  148221      33  148227
  148224      34  148233  148230      33  148236  148230      33  148236  148233
      34  148242  148239      33  148245  148239      33  148245  148242      34
  148251  148248      33  148254  148248      33  148254  148251      34  148260
  148257      33  148263  148257      33  148263  148260      34  148269  148266
      33  148272  148266      33  148272  148269      34  148278  148275      33
  148281  148275      33  148281  148278      34  148287  148284      33  148290
  148284      33  148290  148287      34  148296  148293      33  148299  148293
      33  148299  148296      34  148305  148302      33  148308  148302      33
  148308  148305      34  148314  148311      33  148317  148311      33  148317
  148314      34  148323  148320      33  148326  148320      33  148326  148323
      34  148332  148329      33  148335  148329      33  148335  148332      34
  148341  148338      33  148344  148338      33  148344  148341      34  148350
  148347      33  148353  148347      33  148353  148350      34  148359  148356
      33  148362  148356      33  148362  148359      34  148368  148365      33
  148371  148365      33  148371  148368      34  148377  148374      33  148380
  148374      33  148380  148377      34  148386  148383      33  148389  148383
      33  148389  148386      34  148395  148392      33  148398  148392      33
  148398  148395      34  148404  148401      33  148407  148401      33  148407
  148404      34  148413  148410      33  148416  148410      33  148416  148413
      34  148422  148419      33  148425  148419      33  148425  148422      34
  148431  148428      33  148434  148428      33  148434  148431      34  148440
  148437      33  148443  148437      33  148443  148440      34  148449  148446
      33  148452  148446      33  148452  148449      34  148458  148455      33
  148461  148455      33  148461  148458      34  148467  148464      33  148470
  148464      33  148470  148467      34  148476  148473      33  148479  148473
      33  148479  148476      34  148485  148482      33  148488  148482      33
  148488  148485      34  148494  148491      33  148497  148491      33  148497
  148494      34  148503  148500      33  148506  148500      33  148506  148503
      34  148512  148509      33  148515  148509      33  148515  148512      34
  148521  148518      33  148524  148518      33  148524  148521      34  148530
  148527      33  148533  148527      33  148533  148530      34  148539  148536
      33  148542  148536      33  148542  148539      34  148548  148545      33
  148551  148545      33  148551  148548      34  148557  148554      33  148560
  148554      33  148560  148557      34  148566  148563      33  148569  148563
      33  148569  148566      34  148575  148572      33  148578  148572      33
  148578  148575      34  148584  148581      33  148587  148581      33  148587
  148584      34  148593  148590      33  148596  148590      33  148596  148593
      34  148602  148599      33  148605  148599      33  148605  148602      34
  148611  148608      33  148614  148608      33  148614  148611      34  148620
  148617      33  148623  148617      33  148623  148620      34  148629  148626
      33  148632  148626      33  148632  148629      34  148638  148635      33
  148641  148635      33  148641  148638      34  148647  148644      33  148650
  148644      33  148650  148647      34  148656  148653      33  148659  148653
      33  148659  148656      34  148665  148662      33  148668  148662      33
  148668  148665      34  148674  148671      33  148677  148671      33  148677
  148674      34  148683  148680      33  148686  148680      33  148686  148683
      34  148692  148689      33  148695  148689      33  148695  148692      34
  148701  148698      33  148704  148698      33  148704  148701      34  148710
  148707      33  148713  148707      33  148713  148710      34  148719  148716
      33  148722  148716      33  148722  148719      34  148728  148725      33
  148731  148725      33  148731  148728      34  148737  148734      33  148740
  148734      33  148740  148737      34  148746  148743      33  148749  148743
      33  148749  148746      34  148755  148752      33  148758  148752      33
  148758  148755      34  148764  148761      33  148767  148761      33  148767
  148764      34  148773  148770      33  148776  148770      33  148776  148773
      34  148782  148779      33  148785  148779      33  148785  148782      34
  148791  148788      33  148794  148788      33  148794  148791      34  148800
  148797      33  148803  148797      33  148803  148800      34  148809  148806
      33  148812  148806      33  148812  148809      34  148818  148815      33
  148821  148815      33  148821  148818      34  148827  148824      33  148830
  148824      33  148830  148827      34  148836  148833      33  148839  148833
      33  148839  148836      34  148845  148842      33  148848  148842      33
  148848  148845      34  148854  148851      33  148857  148851      33  148857
  148854      34  148863  148860      33  148866  148860      33  148866  148863
      34  148872  148869      33  148875  148869      33  148875  148872      34
  148881  148878      33  148884  148878      33  148884  148881      34  148890
  148887      33  148893  148887      33  148893  148890      34  148899  148896
      33  148902  148896      33  148902  148899      34  148908  148905      33
  148911  148905      33  148911  148908      34  148917  148914      33  148920
  148914      33  148920  148917      34  148926  148923      33  148929  148923
      33  148929  148926      34  148935  148932      33  148938  148932      33
  148938  148935      34  148944  148941      33  148947  148941      33  148947
  148944      34  148953  148950      33  148956  148950      33  148956  148953
      34  148962  148959      33  148965  148959      33  148965  148962      34
  148971  148968      33  148974  148968      33  148974  148971      34  148980
  148977      33  148983  148977      33  148983  148980      34  148989  148986
      33  148992  148986      33  148992  148989      34  148998  148995      33
  149001  148995      33  149001  148998      34  149007  149004      33  149010
  149004      33  149010  149007      34  149016  149013      33  149019  149013
      33  149019  149016      34  149025  149022      33  149028  149022      33
  149028  149025      34  149034  149031      33  149037  149031      33  149037
  149034      34  149043  149040      33  149046  149040      33  149046  149043
      34  149052  149049      33  149055  149049      33  149055  149052      34
  149061  149058      33  149064  149058      33  149064  149061      34  149070
  149067      33  149073  149067      33  149073  149070      34  149079  149076
      33  149082  149076      33  149082  149079      34  149088  149085      33
  149091  149085      33  149091  149088      34  149097  149094      33  149100
  149094      33  149100  149097      34  149106  149103      33  149109  149103
      33  149109  149106      34  149115  149112      33  149118  149112      33
  149118  149115      34  149124  149121      33  149127  149121      33  149127
  149124      34  149133  149130      33  149136  149130      33  149136  149133
      34  149142  149139      33  149145  149139      33  149145  149142      34
  149151  149148      33  149154  149148      33  149154  149151      34  149160
  149157      33  149163  149157      33  149163  149160      34  149169  149166
      33  149172  149166      33  149172  149169      34  149178  149175      33
  149181  149175      33  149181  149178      34  149187  149184      33  149190
  149184      33  149190  149187      34  149196  149193      33  149199  149193
      33  149199  149196      34  149205  149202      33  149208  149202      33
  149208  149205      34  149214  149211      33  149217  149211      33  149217
  149214      34  149223  149220      33  149226  149220      33  149226  149223
      34  149232  149229      33  149235  149229      33  149235  149232      34
  149241  149238      33  149244  149238      33  149244  149241      34  149250
  149247      33  149253  149247      33  149253  149250      34  149259  149256
      33  149262  149256      33  149262  149259      34  149268  149265      33
  149271  149265      33  149271  149268      34  149277  149274      33  149280
  149274      33  149280  149277      34  149286  149283      33  149289  149283
      33  149289  149286      34  149295  149292      33  149298  149292      33
  149298  149295      34  149304  149301      33  149307  149301      33  149307
  149304      34  149313  149310      33  149316  149310      33  149316  149313
      34  149322  149319      33  149325  149319      33  149325  149322      34
  149331  149328      33  149334  149328      33  149334  149331      34  149340
  149337      33  149343  149337      33  149343  149340      34  149349  149346
      33  149352  149346      33  149352  149349      34  149358  149355      33
  149361  149355      33  149361  149358      34  149367  149364      33  149370
  149364      33  149370  149367      34  149376  149373      33  149379  149373
      33  149379  149376      34  149385  149382      33  149388  149382      33
  149388  149385      34  149394  149391      33  149397  149391      33  149397
  149394      34  149403  149400      33  149406  149400      33  149406  149403
      34  149412  149409      33  149415  149409      33  149415  149412      34
  149421  149418      33  149424  149418      33  149424  149421      34  149430
  149427      33  149433  149427      33  149433  149430      34  149439  149436
      33  149442  149436      33  149442  149439      34  149448  149445      33
  149451  149445      33  149451  149448      34  149457  149454      33  149460
  149454      33  149460  149457      34  149466  149463      33  149469  149463
      33  149469  149466      34  149475  149472      33  149478  149472      33
  149478  149475      34  149484  149481      33  149487  149481      33  149487
  149484      34  149493  149490      33  149496  149490      33  149496  149493
      34  149502  149499      33  149505  149499      33  149505  149502      34
  149511  149508      33  149514  149508      33  149514  149511      34  149520
  149517      33  149523  149517      33  149523  149520      34  149529  149526
      33  149532  149526      33  149532  149529      34  149538  149535      33
  149541  149535      33  149541  149538      34  149547  149544      33  149550
  149544      33  149550  149547      34  149556  149553      33  149559  149553
      33  149559  149556      34  149565  149562      33  149568  149562      33
  149568  149565      34  149574  149571      33  149577  149571      33  149577
  149574      34  149583  149580      33  149586  149580      33  149586  149583
      34  149592  149589      33  149595  149589      33  149595  149592      34
  149601  149598      33  149604  149598      33  149604  149601      34  149610
  149607      33  149613  149607      33  149613  149610      34  149619  149616
      33  149622  149616      33  149622  149619      34  149628  149625      33
  149631  149625      33  149631  149628      34  149637  149634      33  149640
  149634      33  149640  149637      34  149646  149643      33  149649  149643
      33  149649  149646      34  149655  149652      33  149658  149652      33
  149658  149655      34  149664  149661      33  149667  149661      33  149667
  149664      34  149673  149670      33  149676  149670      33  149676  149673
      34  149682  149679      33  149685  149679      33  149685  149682      34
  149691  149688      33  149694  149688      33  149694  149691      34  149700
  149697      33  149703  149697      33  149703  149700      34  149709  149706
      33  149712  149706      33  149712  149709      34  149718  149715      33
  149721  149715      33  149721  149718      34  149727  149724      33  149730
  149724      33  149730  149727      34  149736  149733      33  149739  149733
      33  149739  149736      34  149745  149742      33  149748  149742      33
  149748  149745      34  149754  149751      33  149757  149751      33  149757
  149754      34  149763  149760      33  149766  149760      33  149766  149763
      34  149772  149769      33  149775  149769      33  149775  149772      34
  149781  149778      33  149784  149778      33  149784  149781      34  149790
  149787      33  149793  149787      33  149793  149790      34  149799  149796
      33  149802  149796      33  149802  149799      34  149808  149805      33
  149811  149805      33  149811  149808      34  149817  149814      33  149820
  149814      33  149820  149817      34  149826  149823      33  149829  149823
      33  149829  149826      34  149835  149832      33  149838  149832      33
  149838  149835      34  149844  149841      33  149847  149841      33  149847
  149844      34  149853  149850      33  149856  149850      33  149856  149853
      34  149862  149859      33  149865  149859      33  149865  149862      34
  149871  149868      33  149874  149868      33  149874  149871      34  149880
  149877      33  149883  149877      33  149883  149880      34  149889  149886
      33  149892  149886      33  149892  149889      34  149898  149895      33
  149901  149895      33  149901  149898      34  149907  149904      33  149910
  149904      33  149910  149907      34  149916  149913      33  149919  149913
      33  149919  149916      34  149925  149922      33  149928  149922      33
  149928  149925      34  149934  149931      33  149937  149931      33  149937
  149934      34  149943  149940      33  149946  149940      33  149946  149943
      34  149952  149949      33  149955  149949      33  149955  149952      34
  149961  149958      33  149964  149958      33  149964  149961      34  149970
  149967      33  149973  149967      33  149973  149970      34  149979  149976
      33  149982  149976      33  149982  149979      34  149988  149985      33
  149991  149985      33  149991  149988      34  149997  149994      33  150000
  149994      33  150000  149997      34  150006  150003      33  150009  150003
      33  150009  150006      34  150015  150012      33  150018  150012      33
  150018  150015      34  150024  150021      33  150027  150021      33  150027
  150024      34  150033  150030      33  150036  150030      33  150036  150033
      34  150042  150039      33  150045  150039      33  150045  150042      34
  150051  150048      33  150054  150048      33  150054  150051      34  150060
  150057      33  150063  150057      33  150063  150060      34  150069  150066
      33  150072  150066      33  150072  150069      34  150078  150075      33
  150081  150075      33  150081  150078      34  150087  150084      33  150090
  150084      33  150090  150087      34  150096  150093      33  150099  150093
      33  150099  150096      34  150105  150102      33  150108  150102      33
  150108  150105      34  150114  150111      33  150117  150111      33  150117
  150114      34  150123  150120      33  150126  150120      33  150126  150123
      34  150132  150129      33  150135  150129      33  150135  150132      34
  150141  150138      33  150144  150138      33  150144  150141      34  150150
  150147      33  150153  150147      33  150153  150150      34  150159  150156
      33  150162  150156      33  150162  150159      34  150168  150165      33
  150171  150165      33  150171  150168      34  150177  150174      33  150180
  150174      33  150180  150177      34  150186  150183      33  150189  150183
      33  150189  150186      34  150195  150192      33  150198  150192      33
  150198  150195      34  150204  150201      33  150207  150201      33  150207
  150204      34  150213  150210      33  150216  150210      33  150216  150213
      34  150222  150219      33  150225  150219      33  150225  150222      34
  150231  150228      33  150234  150228      33  150234  150231      34  150240
  150237      33  150243  150237      33  150243  150240      34  150249  150246
      33  150252  150246      33  150252  150249      34  150258  150255      33
  150261  150255      33  150261  150258      34  150267  150264      33  150270
  150264      33  150270  150267      34  150276  150273      33  150279  150273
      33  150279  150276      34  150285  150282      33  150288  150282      33
  150288  150285      34  150294  150291      33  150297  150291      33  150297
  150294      34  150303  150300      33  150306  150300      33  150306  150303
      34  150312  150309      33  150315  150309      33  150315  150312      34
  150321  150318      33  150324  150318      33  150324  150321      34  150330
  150327      33  150333  150327      33  150333  150330      34  150339  150336
      33  150342  150336      33  150342  150339      34  150348  150345      33
  150351  150345      33  150351  150348      34  150357  150354      33  150360
  150354      33  150360  150357      34  150366  150363      33  150369  150363
      33  150369  150366      34  150375  150372      33  150378  150372      33
  150378  150375      34  150384  150381      33  150387  150381      33  150387
  150384      34  150393  150390      33  150396  150390      33  150396  150393
      34  150402  150399      33  150405  150399      33  150405  150402      34
  150411  150408      33  150414  150408      33  150414  150411      34  150420
  150417      33  150423  150417      33  150423  150420      34  150429  150426
      33  150432  150426      33  150432  150429      34  150438  150435      33
  150441  150435      33  150441  150438      34  150447  150444      33  150450
  150444      33  150450  150447      34  150456  150453      33  150459  150453
      33  150459  150456      34  150465  150462      33  150468  150462      33
  150468  150465      34  150474  150471      33  150477  150471      33  150477
  150474      34  150483  150480      33  150486  150480      33  150486  150483
      34  150492  150489      33  150495  150489      33  150495  150492      34
  150501  150498      33  150504  150498      33  150504  150501      34  150510
  150507      33  150513  150507      33  150513  150510      34  150519  150516
      33  150522  150516      33  150522  150519      34  150528  150525      33
  150531  150525      33  150531  150528      34  150537  150534      33  150540
  150534      33  150540  150537      34  150546  150543      33  150549  150543
      33  150549  150546      34  150555  150552      33  150558  150552      33
  150558  150555      34  150564  150561      33  150567  150561      33  150567
  150564      34  150573  150570      33  150576  150570      33  150576  150573
      34  150582  150579      33  150585  150579      33  150585  150582      34
  150591  150588      33  150594  150588      33  150594  150591      34  150600
  150597      33  150603  150597      33  150603  150600      34  150609  150606
      33  150612  150606      33  150612  150609      34  150618  150615      33
  150621  150615      33  150621  150618      34  150627  150624      33  150630
  150624      33  150630  150627      34  150636  150633      33  150639  150633
      33  150639  150636      34  150645  150642      33  150648  150642      33
  150648  150645      34  150654  150651      33  150657  150651      33  150657
  150654      34  150663  150660      33  150666  150660      33  150666  150663
      34  150672  150669      33  150675  150669      33  150675  150672      34
  150681  150678      33  150684  150678      33  150684  150681      34  150690
  150687      33  150693  150687      33  150693  150690      34  150699  150696
      33  150702  150696      33  150702  150699      34  150708  150705      33
  150711  150705      33  150711  150708      34  150717  150714      33  150720
  150714      33  150720  150717      34  150726  150723      33  150729  150723
      33  150729  150726      34  150735  150732      33  150738  150732      33
  150738  150735      34  150744  150741      33  150747  150741      33  150747
  150744      34  150753  150750      33  150756  150750      33  150756  150753
      34  150762  150759      33  150765  150759      33  150765  150762      34
  150771  150768      33  150774  150768      33  150774  150771      34  150780
  150777      33  150783  150777      33  150783  150780      34  150789  150786
      33  150792  150786      33  150792  150789      34  150798  150795      33
  150801  150795      33  150801  150798      34  150807  150804      33  150810
  150804      33  150810  150807      34  150816  150813      33  150819  150813
      33  150819  150816      34  150825  150822      33  150828  150822      33
  150828  150825      34  150834  150831      33  150837  150831      33  150837
  150834      34  150843  150840      33  150846  150840      33  150846  150843
      34  150852  150849      33  150855  150849      33  150855  150852      34
  150861  150858      33  150864  150858      33  150864  150861      34  150870
  150867      33  150873  150867      33  150873  150870      34  150879  150876
      33  150882  150876      33  150882  150879      34  150888  150885      33
  150891  150885      33  150891  150888      34  150897  150894      33  150900
  150894      33  150900  150897      34  150906  150903      33  150909  150903
      33  150909  150906      34  150915  150912      33  150918  150912      33
  150918  150915      34  150924  150921      33  150927  150921      33  150927
  150924      34  150933  150930      33  150936  150930      33  150936  150933
      34  150942  150939      33  150945  150939      33  150945  150942      34
  150951  150948      33  150954  150948      33  150954  150951      34  150960
  150957      33  150963  150957      33  150963  150960      34  150969  150966
      33  150972  150966      33  150972  150969      34  150978  150975      33
  150981  150975      33  150981  150978      34  150987  150984      33  150990
  150984      33  150990  150987      34  150996  150993      33  150999  150993
      33  150999  150996      34  151005  151002      33  151008  151002      33
  151008  151005      34  151014  151011      33  151017  151011      33  151017
  151014      34  151023  151020      33  151026  151020      33  151026  151023
      34  151032  151029      33  151035  151029      33  151035  151032      34
  151041  151038      33  151044  151038      33  151044  151041      34  151050
  151047      33  151053  151047      33  151053  151050      34  151059  151056
      33  151062  151056      33  151062  151059      34  151068  151065      33
  151071  151065      33  151071  151068      34  151077  151074      33  151080
  151074      33  151080  151077      34  151086  151083      33  151089  151083
      33  151089  151086      34  151095  151092      33  151098  151092      33
  151098  151095      34  151104  151101      33  151107  151101      33  151107
  151104      34  151113  151110      33  151116  151110      33  151116  151113
      34  151122  151119      33  151125  151119      33  151125  151122      34
  151131  151128      33  151134  151128      33  151134  151131      34  151140
  151137      33  151143  151137      33  151143  151140      34  151149  151146
      33  151152  151146      33  151152  151149      34  151158  151155      33
  151161  151155      33  151161  151158      34  151167  151164      33  151170
  151164      33  151170  151167      34  151176  151173      33  151179  151173
      33  151179  151176      34  151185  151182      33  151188  151182      33
  151188  151185      34  151194  151191      33  151197  151191      33  151197
  151194      34  151203  151200      33  151206  151200      33  151206  151203
      34  151212  151209      33  151215  151209      33  151215  151212      34
  151221  151218      33  151224  151218      33  151224  151221      34  151230
  151227      33  151233  151227      33  151233  151230      34  151239  151236
      33  151242  151236      33  151242  151239      34  151248  151245      33
  151251  151245      33  151251  151248      34  151257  151254      33  151260
  151254      33  151260  151257      34  151266  151263      33  151269  151263
      33  151269  151266      34  151275  151272      33  151278  151272      33
  151278  151275      34  151284  151281      33  151287  151281      33  151287
  151284      34  151293  151290      33  151296  151290      33  151296  151293
      34  151302  151299      33  151305  151299      33  151305  151302      34
  151311  151308      33  151314  151308      33  151314  151311      34  151320
  151317      33  151323  151317      33  151323  151320      34  151329  151326
      33  151332  151326      33  151332  151329      34  151338  151335      33
  151341  151335      33  151341  151338      34  151347  151344      33  151350
  151344      33  151350  151347      34  151356  151353      33  151359  151353
      33  151359  151356      34  151365  151362      33  151368  151362      33
  151368  151365      34  151374  151371      33  151377  151371      33  151377
  151374      34  151383  151380      33  151386  151380      33  151386  151383
      34  151392  151389      33  151395  151389      33  151395  151392      34
  151401  151398      33  151404  151398      33  151404  151401      34  151410
  151407      33  151413  151407      33  151413  151410      34  151419  151416
      33  151422  151416      33  151422  151419      34  151428  151425      33
  151431  151425      33  151431  151428      34  151437  151434      33  151440
  151434      33  151440  151437      34  151446  151443      33  151449  151443
      33  151449  151446      34  151455  151452      33  151458  151452      33
  151458  151455      34  151464  151461      33  151467  151461      33  151467
  151464      34  151473  151470      33  151476  151470      33  151476  151473
      34  151482  151479      33  151485  151479      33  151485  151482      34
  151491  151488      33  151494  151488      33  151494  151491      34  151500
  151497      33  151503  151497      33  151503  151500      34  151509  151506
      33  151512  151506      33  151512  151509      34  151518  151515      33
  151521  151515      33  151521  151518      34  151527  151524      33  151530
  151524      33  151530  151527      34  151536  151533      33  151539  151533
      33  151539  151536      34  151545  151542      33  151548  151542      33
  151548  151545      34  151554  151551      33  151557  151551      33  151557
  151554      34  151563  151560      33  151566  151560      33  151566  151563
      34  151572  151569      33  151575  151569      33  151575  151572      34
  151581  151578      33  151584  151578      33  151584  151581      34  151590
  151587      33  151593  151587      33  151593  151590      34  151599  151596
      33  151602  151596      33  151602  151599      34  151608  151605      33
  151611  151605      33  151611  151608      34  151617  151614      33  151620
  151614      33  151620  151617      34  151626  151623      33  151629  151623
      33  151629  151626      34  151635  151632      33  151638  151632      33
  151638  151635      34  151644  151641      33  151647  151641      33  151647
  151644      34  151653  151650      33  151656  151650      33  151656  151653
      34  151662  151659      33  151665  151659      33  151665  151662      34
  151671  151668      33  151674  151668      33  151674  151671      34  151680
  151677      33  151683  151677      33  151683  151680      34  151689  151686
      33  151692  151686      33  151692  151689      34  151698  151695      33
  151701  151695      33  151701  151698      34  151707  151704      33  151710
  151704      33  151710  151707      34  151716  151713      33  151719  151713
      33  151719  151716      34  151725  151722      33  151728  151722      33
  151728  151725      34  151734  151731      33  151737  151731      33  151737
  151734      34  151743  151740      33  151746  151740      33  151746  151743
      34  151752  151749      33  151755  151749      33  151755  151752      34
  151761  151758      33  151764  151758      33  151764  151761      34  151770
  151767      33  151773  151767      33  151773  151770      34  151779  151776
      33  151782  151776      33  151782  151779      34  151788  151785      33
  151791  151785      33  151791  151788      34  151797  151794      33  151800
  151794      33  151800  151797      34  151806  151803      33  151809  151803
      33  151809  151806      34  151815  151812      33  151818  151812      33
  151818  151815      34  151824  151821      33  151827  151821      33  151827
  151824      34  151833  151830      33  151836  151830      33  151836  151833
      34  151842  151839      33  151845  151839      33  151845  151842      34
  151851  151848      33  151854  151848      33  151854  151851      34  151860
  151857      33  151863  151857      33  151863  151860      34  151869  151866
      33  151872  151866      33  151872  151869      34  151878  151875      33
  151881  151875      33  151881  151878      34  151887  151884      33  151890
  151884      33  151890  151887      34  151896  151893      33  151899  151893
      33  151899  151896      34  151905  151902      33  151908  151902      33
  151908  151905      34  151914  151911      33  151917  151911      33  151917
  151914      34  151923  151920      33  151926  151920      33  151926  151923
      34  151932  151929      33  151935  151929      33  151935  151932      34
  151941  151938      33  151944  151938      33  151944  151941      34  151950
  151947      33  151953  151947      33  151953  151950      34  151959  151956
      33  151962  151956      33  151962  151959      34  151968  151965      33
  151971  151965      33  151971  151968      34  151977  151974      33  151980
  151974      33  151980  151977      34  151986  151983      33  151989  151983
      33  151989  151986      34  151995  151992      33  151998  151992      33
  151998  151995      34  152004  152001      33  152007  152001      33  152007
  152004      34  152013  152010      33  152016  152010      33  152016  152013
      34  152022  152019      33  152025  152019      33  152025  152022      34
  152031  152028      33  152034  152028      33  152034  152031      34  152040
  152037      33  152043  152037      33  152043  152040      34  152049  152046
      33  152052  152046      33  152052  152049      34  152058  152055      33
  152061  152055      33  152061  152058      34  152067  152064      33  152070
  152064      33  152070  152067      34  152076  152073      33  152079  152073
      33  152079  152076      34  152085  152082      33  152088  152082      33
  152088  152085      34  152094  152091      33  152097  152091      33  152097
  152094      34  152103  152100      33  152106  152100      33  152106  152103
      34  152112  152109      33  152115  152109      33  152115  152112      34
  152121  152118      33  152124  152118      33  152124  152121      34  152130
  152127      33  152133  152127      33  152133  152130      34  152139  152136
      33  152142  152136      33  152142  152139      34  152148  152145      33
  152151  152145      33  152151  152148      34  152157  152154      33  152160
  152154      33  152160  152157      34  152166  152163      33  152169  152163
      33  152169  152166      34  152175  152172      33  152178  152172      33
  152178  152175      34  152184  152181      33  152187  152181      33  152187
  152184      34  152193  152190      33  152196  152190      33  152196  152193
      34  152202  152199      33  152205  152199      33  152205  152202      34
  152211  152208      33  152214  152208      33  152214  152211      34  152220
  152217      33  152223  152217      33  152223  152220      34  152229  152226
      33  152232  152226      33  152232  152229      34  152238  152235      33
  152241  152235      33  152241  152238      34  152247  152244      33  152250
  152244      33  152250  152247      34  152256  152253      33  152259  152253
      33  152259  152256      34  152265  152262      33  152268  152262      33
  152268  152265      34  152274  152271      33  152277  152271      33  152277
  152274      34  152283  152280      33  152286  152280      33  152286  152283
      34  152292  152289      33  152295  152289      33  152295  152292      34
  152301  152298      33  152304  152298      33  152304  152301      34  152310
  152307      33  152313  152307      33  152313  152310      34  152319  152316
      33  152322  152316      33  152322  152319      34  152328  152325      33
  152331  152325      33  152331  152328      34  152337  152334      33  152340
  152334      33  152340  152337      34  152346  152343      33  152349  152343
      33  152349  152346      34  152355  152352      33  152358  152352      33
  152358  152355      34  152364  152361      33  152367  152361      33  152367
  152364      34  152373  152370      33  152376  152370      33  152376  152373
      34  152382  152379      33  152385  152379      33  152385  152382      34
  152391  152388      33  152394  152388      33  152394  152391      34  152400
  152397      33  152403  152397      33  152403  152400      34  152409  152406
      33  152412  152406      33  152412  152409      34  152418  152415      33
  152421  152415      33  152421  152418      34  152427  152424      33  152430
  152424      33  152430  152427      34  152436  152433      33  152439  152433
      33  152439  152436      34  152445  152442      33  152448  152442      33
  152448  152445      34  152454  152451      33  152457  152451      33  152457
  152454      34  152463  152460      33  152466  152460      33  152466  152463
      34  152472  152469      33  152475  152469      33  152475  152472      34
  152481  152478      33  152484  152478      33  152484  152481      34  152490
  152487      33  152493  152487      33  152493  152490      34  152499  152496
      33  152502  152496      33  152502  152499      34  152508  152505      33
  152511  152505      33  152511  152508      34  152517  152514      33  152520
  152514      33  152520  152517      34  152526  152523      33  152529  152523
      33  152529  152526      34  152535  152532      33  152538  152532      33
  152538  152535      34  152544  152541      33  152547  152541      33  152547
  152544      34  152553  152550      33  152556  152550      33  152556  152553
      34  152562  152559      33  152565  152559      33  152565  152562      34
  152571  152568      33  152574  152568      33  152574  152571      34  152580
  152577      33  152583  152577      33  152583  152580      34  152589  152586
      33  152592  152586      33  152592  152589      34  152598  152595      33
  152601  152595      33  152601  152598      34  152607  152604      33  152610
  152604      33  152610  152607      34  152616  152613      33  152619  152613
      33  152619  152616      34  152625  152622      33  152628  152622      33
  152628  152625      34  152634  152631      33  152637  152631      33  152637
  152634      34  152643  152640      33  152646  152640      33  152646  152643
      34  152652  152649      33  152655  152649      33  152655  152652      34
  152661  152658      33  152664  152658      33  152664  152661      34  152670
  152667      33  152673  152667      33  152673  152670      34  152679  152676
      33  152682  152676      33  152682  152679      34  152688  152685      33
  152691  152685      33  152691  152688      34  152697  152694      33  152700
  152694      33  152700  152697      34  152706  152703      33  152709  152703
      33  152709  152706      34  152715  152712      33  152718  152712      33
  152718  152715      34  152724  152721      33  152727  152721      33  152727
  152724      34  152733  152730      33  152736  152730      33  152736  152733
      34  152742  152739      33  152745  152739      33  152745  152742      34
  152751  152748      33  152754  152748      33  152754  152751      34  152760
  152757      33  152763  152757      33  152763  152760      34  152769  152766
      33  152772  152766      33  152772  152769      34  152778  152775      33
  152781  152775      33  152781  152778      34  152787  152784      33  152790
  152784      33  152790  152787      34  152796  152793      33  152799  152793
      33  152799  152796      34  152805  152802      33  152808  152802      33
  152808  152805      34  152814  152811      33  152817  152811      33  152817
  152814      34  152823  152820      33  152826  152820      33  152826  152823
      34  152832  152829      33  152835  152829      33  152835  152832      34
  152841  152838      33  152844  152838      33  152844  152841      34  152850
  152847      33  152853  152847      33  152853  152850      34  152859  152856
      33  152862  152856      33  152862  152859      34  152868  152865      33
  152871  152865      33  152871  152868      34  152877  152874      33  152880
  152874      33  152880  152877      34  152886  152883      33  152889  152883
      33  152889  152886      34  152895  152892      33  152898  152892      33
  152898  152895      34  152904  152901      33  152907  152901      33  152907
  152904      34  152913  152910      33  152916  152910      33  152916  152913
      34  152922  152919      33  152925  152919      33  152925  152922      34
  152931  152928      33  152934  152928      33  152934  152931      34  152940
  152937      33  152943  152937      33  152943  152940      34  152949  152946
      33  152952  152946      33  152952  152949      34  152958  152955      33
  152961  152955      33  152961  152958      34  152967  152964      33  152970
  152964      33  152970  152967      34  152976  152973      33  152979  152973
      33  152979  152976      34  152985  152982      33  152988  152982      33
  152988  152985      34  152994  152991      33  152997  152991      33  152997
  152994      34  153003  153000      33  153006  153000      33  153006  153003
      34  153012  153009      33  153015  153009      33  153015  153012      34
  153021  153018      33  153024  153018      33  153024  153021      34  153030
  153027      33  153033  153027      33  153033  153030      34  153039  153036
      33  153042  153036      33  153042  153039      34  153048  153045      33
  153051  153045      33  153051  153048      34  153057  153054      33  153060
  153054      33  153060  153057      34  153066  153063      33  153069  153063
      33  153069  153066      34  153075  153072      33  153078  153072      33
  153078  153075      34  153084  153081      33  153087  153081      33  153087
  153084      34  153093  153090      33  153096  153090      33  153096  153093
      34  153102  153099      33  153105  153099      33  153105  153102      34
  153111  153108      33  153114  153108      33  153114  153111      34  153120
  153117      33  153123  153117      33  153123  153120      34  153129  153126
      33  153132  153126      33  153132  153129      34  153138  153135      33
  153141  153135      33  153141  153138      34  153147  153144      33  153150
  153144      33  153150  153147      34  153156  153153      33  153159  153153
      33  153159  153156      34  153165  153162      33  153168  153162      33
  153168  153165      34  153174  153171      33  153177  153171      33  153177
  153174      34  153183  153180      33  153186  153180      33  153186  153183
      34  153192  153189      33  153195  153189      33  153195  153192      34
  153201  153198      33  153204  153198      33  153204  153201      34  153210
  153207      33  153213  153207      33  153213  153210      34  153219  153216
      33  153222  153216      33  153222  153219      34  153228  153225      33
  153231  153225      33  153231  153228      34  153237  153234      33  153240
  153234      33  153240  153237      34  153246  153243      33  153249  153243
      33  153249  153246      34  153255  153252      33  153258  153252      33
  153258  153255      34  153264  153261      33  153267  153261      33  153267
  153264      34  153273  153270      33  153276  153270      33  153276  153273
      34  153282  153279      33  153285  153279      33  153285  153282      34
  153291  153288      33  153294  153288      33  153294  153291      34  153300
  153297      33  153303  153297      33  153303  153300      34  153309  153306
      33  153312  153306      33  153312  153309      34  153318  153315      33
  153321  153315      33  153321  153318      34  153327  153324      33  153330
  153324      33  153330  153327      34  153336  153333      33  153339  153333
      33  153339  153336      34  153345  153342      33  153348  153342      33
  153348  153345      34  153354  153351      33  153357  153351      33  153357
  153354      34  153363  153360      33  153366  153360      33  153366  153363
      34  153372  153369      33  153375  153369      33  153375  153372      34
  153381  153378      33  153384  153378      33  153384  153381      34  153390
  153387      33  153393  153387      33  153393  153390      34  153399  153396
      33  153402  153396      33  153402  153399      34  153408  153405      33
  153411  153405      33  153411  153408      34  153417  153414      33  153420
  153414      33  153420  153417      34  153426  153423      33  153429  153423
      33  153429  153426      34  153435  153432      33  153438  153432      33
  153438  153435      34  153444  153441      33  153447  153441      33  153447
  153444      34  153453  153450      33  153456  153450      33  153456  153453
      34  153462  153459      33  153465  153459      33  153465  153462      34
  153471  153468      33  153474  153468      33  153474  153471      34  153480
  153477      33  153483  153477      33  153483  153480      34  153489  153486
      33  153492  153486      33  153492  153489      34  153498  153495      33
  153501  153495      33  153501  153498      34  153507  153504      33  153510
  153504      33  153510  153507      34  153516  153513      33  153519  153513
      33  153519  153516      34  153525  153522      33  153528  153522      33
  153528  153525      34  153534  153531      33  153537  153531      33  153537
  153534      34  153543  153540      33  153546  153540      33  153546  153543
      34  153552  153549      33  153555  153549      33  153555  153552      34
  153561  153558      33  153564  153558      33  153564  153561      34  153570
  153567      33  153573  153567      33  153573  153570      34  153579  153576
      33  153582  153576      33  153582  153579      34  153588  153585      33
  153591  153585      33  153591  153588      34  153597  153594      33  153600
  153594      33  153600  153597      34  153606  153603      33  153609  153603
      33  153609  153606      34  153615  153612      33  153618  153612      33
  153618  153615      34  153624  153621      33  153627  153621      33  153627
  153624      34  153633  153630      33  153636  153630      33  153636  153633
      34  153642  153639      33  153645  153639      33  153645  153642      34
  153651  153648      33  153654  153648      33  153654  153651      34  153660
  153657      33  153663  153657      33  153663  153660      34  153669  153666
      33  153672  153666      33  153672  153669      34  153678  153675      33
  153681  153675      33  153681  153678      34  153687  153684      33  153690
  153684      33  153690  153687      34  153696  153693      33  153699  153693
      33  153699  153696      34  153705  153702      33  153708  153702      33
  153708  153705      34  153714  153711      33  153717  153711      33  153717
  153714      34  153723  153720      33  153726  153720      33  153726  153723
      34  153732  153729      33  153735  153729      33  153735  153732      34
  153741  153738      33  153744  153738      33  153744  153741      34  153750
  153747      33  153753  153747      33  153753  153750      34  153759  153756
      33  153762  153756      33  153762  153759      34  153768  153765      33
  153771  153765      33  153771  153768      34  153777  153774      33  153780
  153774      33  153780  153777      34  153786  153783      33  153789  153783
      33  153789  153786      34  153795  153792      33  153798  153792      33
  153798  153795      34  153804  153801      33  153807  153801      33  153807
  153804      34  153813  153810      33  153816  153810      33  153816  153813
      34  153822  153819      33  153825  153819      33  153825  153822      34
  153831  153828      33  153834  153828      33  153834  153831      34  153840
  153837      33  153843  153837      33  153843  153840      34  153849  153846
      33  153852  153846      33  153852  153849      34  153858  153855      33
  153861  153855      33  153861  153858      34  153867  153864      33  153870
  153864      33  153870  153867      34  153876  153873      33  153879  153873
      33  153879  153876      34  153885  153882      33  153888  153882      33
  153888  153885      34  153894  153891      33  153897  153891      33  153897
  153894      34  153903  153900      33  153906  153900      33  153906  153903
      34  153912  153909      33  153915  153909      33  153915  153912      34
  153921  153918      33  153924  153918      33  153924  153921      34  153930
  153927      33  153933  153927      33  153933  153930      34  153939  153936
      33  153942  153936      33  153942  153939      34  153948  153945      33
  153951  153945      33  153951  153948      34  153957  153954      33  153960
  153954      33  153960  153957      34  153966  153963      33  153969  153963
      33  153969  153966      34  153975  153972      33  153978  153972      33
  153978  153975      34  153984  153981      33  153987  153981      33  153987
  153984      34  153993  153990      33  153996  153990      33  153996  153993
      34  154002  153999      33  154005  153999      33  154005  154002      34
  154011  154008      33  154014  154008      33  154014  154011      34  154020
  154017      33  154023  154017      33  154023  154020      34  154029  154026
      33  154032  154026      33  154032  154029      34  154038  154035      33
  154041  154035      33  154041  154038      34  154047  154044      33  154050
  154044      33  154050  154047      34  154056  154053      33  154059  154053
      33  154059  154056      34  154065  154062      33  154068  154062      33
  154068  154065      34  154074  154071      33  154077  154071      33  154077
  154074      34  154083  154080      33  154086  154080      33  154086  154083
      34  154092  154089      33  154095  154089      33  154095  154092      34
  154101  154098      33  154104  154098      33  154104  154101      34  154110
  154107      33  154113  154107      33  154113  154110      34  154119  154116
      33  154122  154116      33  154122  154119      34  154128  154125      33
  154131  154125      33  154131  154128      34  154137  154134      33  154140
  154134      33  154140  154137      34  154146  154143      33  154149  154143
      33  154149  154146      34  154155  154152      33  154158  154152      33
  154158  154155      34  154164  154161      33  154167  154161      33  154167
  154164      34  154173  154170      33  154176  154170      33  154176  154173
      34  154182  154179      33  154185  154179      33  154185  154182      34
  154191  154188      33  154194  154188      33  154194  154191      34  154200
  154197      33  154203  154197      33  154203  154200      34  154209  154206
      33  154212  154206      33  154212  154209      34  154218  154215      33
  154221  154215      33  154221  154218      34  154227  154224      33  154230
  154224      33  154230  154227      34  154236  154233      33  154239  154233
      33  154239  154236      34  154245  154242      33  154248  154242      33
  154248  154245      34  154254  154251      33  154257  154251      33  154257
  154254      34  154263  154260      33  154266  154260      33  154266  154263
      34  154272  154269      33  154275  154269      33  154275  154272      34
  154281  154278      33  154284  154278      33  154284  154281      34  154290
  154287      33  154293  154287      33  154293  154290      34  154299  154296
      33  154302  154296      33  154302  154299      34  154308  154305      33
  154311  154305      33  154311  154308      34  154317  154314      33  154320
  154314      33  154320  154317      34  154326  154323      33  154329  154323
      33  154329  154326      34  154335  154332      33  154338  154332      33
  154338  154335      34  154344  154341      33  154347  154341      33  154347
  154344      34  154353  154350      33  154356  154350      33  154356  154353
      34  154362  154359      33  154365  154359      33  154365  154362      34
  154371  154368      33  154374  154368      33  154374  154371      34  154380
  154377      33  154383  154377      33  154383  154380      34  154389  154386
      33  154392  154386      33  154392  154389      34  154398  154395      33
  154401  154395      33  154401  154398      34  154407  154404      33  154410
  154404      33  154410  154407      34  154416  154413      33  154419  154413
      33  154419  154416      34  154425  154422      33  154428  154422      33
  154428  154425      34  154434  154431      33  154437  154431      33  154437
  154434      34  154443  154440      33  154446  154440      33  154446  154443
      34  154452  154449      33  154455  154449      33  154455  154452      34
  154461  154458      33  154464  154458      33  154464  154461      34  154470
  154467      33  154473  154467      33  154473  154470      34  154479  154476
      33  154482  154476      33  154482  154479      34  154488  154485      33
  154491  154485      33  154491  154488      34  154497  154494      33  154500
  154494      33  154500  154497      34  154506  154503      33  154509  154503
      33  154509  154506      34  154515  154512      33  154518  154512      33
  154518  154515      34  154524  154521      33  154527  154521      33  154527
  154524      34  154533  154530      33  154536  154530      33  154536  154533
      34  154542  154539      33  154545  154539      33  154545  154542      34
  154551  154548      33  154554  154548      33  154554  154551      34  154560
  154557      33  154563  154557      33  154563  154560      34  154569  154566
      33  154572  154566      33  154572  154569      34  154578  154575      33
  154581  154575      33  154581  154578      34  154587  154584      33  154590
  154584      33  154590  154587      34  154596  154593      33  154599  154593
      33  154599  154596      34  154605  154602      33  154608  154602      33
  154608  154605      34  154614  154611      33  154617  154611      33  154617
  154614      34  154623  154620      33  154626  154620      33  154626  154623
      34  154632  154629      33  154635  154629      33  154635  154632      34
  154641  154638      33  154644  154638      33  154644  154641      34  154650
  154647      33  154653  154647      33  154653  154650      34  154659  154656
      33  154662  154656      33  154662  154659      34  154668  154665      33
  154671  154665      33  154671  154668      34  154677  154674      33  154680
  154674      33  154680  154677      34  154686  154683      33  154689  154683
      33  154689  154686      34  154695  154692      33  154698  154692      33
  154698  154695      34  154704  154701      33  154707  154701      33  154707
  154704      34  154713  154710      33  154716  154710      33  154716  154713
      34  154722  154719      33  154725  154719      33  154725  154722      34
  154731  154728      33  154734  154728      33  154734  154731      34  154740
  154737      33  154743  154737      33  154743  154740      34  154749  154746
      33  154752  154746      33  154752  154749      34  154758  154755      33
  154761  154755      33  154761  154758      34  154767  154764      33  154770
  154764      33  154770  154767      34  154776  154773      33  154779  154773
      33  154779  154776      34  154785  154782      33  154788  154782      33
  154788  154785      34  154794  154791      33  154797  154791      33  154797
  154794      34  154803  154800      33  154806  154800      33  154806  154803
      34  154812  154809      33  154815  154809      33  154815  154812      34
  154821  154818      33  154824  154818      33  154824  154821      34  154830
  154827      33  154833  154827      33  154833  154830      34  154839  154836
      33  154842  154836      33  154842  154839      34  154848  154845      33
  154851  154845      33  154851  154848      34  154857  154854      33  154860
  154854      33  154860  154857      34  154866  154863      33  154869  154863
      33  154869  154866      34  154875  154872      33  154878  154872      33
  154878  154875      34  154884  154881      33  154887  154881      33  154887
  154884      34  154893  154890      33  154896  154890      33  154896  154893
      34  154902  154899      33  154905  154899      33  154905  154902      34
  154911  154908      33  154914  154908      33  154914  154911      34  154920
  154917      33  154923  154917      33  154923  154920      34  154929  154926
      33  154932  154926      33  154932  154929      34  154938  154935      33
  154941  154935      33  154941  154938      34  154947  154944      33  154950
  154944      33  154950  154947      34  154956  154953      33  154959  154953
      33  154959  154956      34  154965  154962      33  154968  154962      33
  154968  154965      34  154974  154971      33  154977  154971      33  154977
  154974      34  154983  154980      33  154986  154980      33  154986  154983
      34  154992  154989      33  154995  154989      33  154995  154992      34
  155001  154998      33  155004  154998      33  155004  155001      34  155010
  155007      33  155013  155007      33  155013  155010      34  155019  155016
      33  155022  155016      33  155022  155019      34  155028  155025      33
  155031  155025      33  155031  155028      34  155037  155034      33  155040
  155034      33  155040  155037      34  155046  155043      33  155049  155043
      33  155049  155046      34  155055  155052      33  155058  155052      33
  155058  155055      34  155064  155061      33  155067  155061      33  155067
  155064      34  155073  155070      33  155076  155070      33  155076  155073
      34  155082  155079      33  155085  155079      33  155085  155082      34
  155091  155088      33  155094  155088      33  155094  155091      34  155100
  155097      33  155103  155097      33  155103  155100      34  155109  155106
      33  155112  155106      33  155112  155109      34  155118  155115      33
  155121  155115      33  155121  155118      34  155127  155124      33  155130
  155124      33  155130  155127      34  155136  155133      33  155139  155133
      33  155139  155136      34  155145  155142      33  155148  155142      33
  155148  155145      34  155154  155151      33  155157  155151      33  155157
  155154      34  155163  155160      33  155166  155160      33  155166  155163
      34  155172  155169      33  155175  155169      33  155175  155172      34
  155181  155178      33  155184  155178      33  155184  155181      34  155190
  155187      33  155193  155187      33  155193  155190      34  155199  155196
      33  155202  155196      33  155202  155199      34  155208  155205      33
  155211  155205      33  155211  155208      34  155217  155214      33  155220
  155214      33  155220  155217      34  155226  155223      33  155229  155223
      33  155229  155226      34  155235  155232      33  155238  155232      33
  155238  155235      34  155244  155241      33  155247  155241      33  155247
  155244      34  155253  155250      33  155256  155250      33  155256  155253
      34  155262  155259      33  155265  155259      33  155265  155262      34
  155271  155268      33  155274  155268      33  155274  155271      34  155280
  155277      33  155283  155277      33  155283  155280      34  155289  155286
      33  155292  155286      33  155292  155289      34  155298  155295      33
  155301  155295      33  155301  155298      34  155307  155304      33  155310
  155304      33  155310  155307      34  155316  155313      33  155319  155313
      33  155319  155316      34  155325  155322      33  155328  155322      33
  155328  155325      34  155334  155331      33  155337  155331      33  155337
  155334      34  155343  155340      33  155346  155340      33  155346  155343
      34  155352  155349      33  155355  155349      33  155355  155352      34
  155361  155358      33  155364  155358      33  155364  155361      34  155370
  155367      33  155373  155367      33  155373  155370      34  155379  155376
      33  155382  155376      33  155382  155379      34  155388  155385      33
  155391  155385      33  155391  155388      34  155397  155394      33  155400
  155394      33  155400  155397      34  155406  155403      33  155409  155403
      33  155409  155406      34  155415  155412      33  155418  155412      33
  155418  155415      34  155424  155421      33  155427  155421      33  155427
  155424      34  155433  155430      33  155436  155430      33  155436  155433
      34  155442  155439      33  155445  155439      33  155445  155442      34
  155451  155448      33  155454  155448      33  155454  155451      34  155460
  155457      33  155463  155457      33  155463  155460      34  155469  155466
      33  155472  155466      33  155472  155469      34  155478  155475      33
  155481  155475      33  155481  155478      34  155487  155484      33  155490
  155484      33  155490  155487      34  155496  155493      33  155499  155493
      33  155499  155496      34  155505  155502      33  155508  155502      33
  155508  155505      34  155514  155511      33  155517  155511      33  155517
  155514      34  155523  155520      33  155526  155520      33  155526  155523
      34  155532  155529      33  155535  155529      33  155535  155532      34
  155541  155538      33  155544  155538      33  155544  155541      34  155550
  155547      33  155553  155547      33  155553  155550      34  155559  155556
      33  155562  155556      33  155562  155559      34  155568  155565      33
  155571  155565      33  155571  155568      34  155577  155574      33  155580
  155574      33  155580  155577      34  155586  155583      33  155589  155583
      33  155589  155586      34  155595  155592      33  155598  155592      33
  155598  155595      34  155604  155601      33  155607  155601      33  155607
  155604      34  155613  155610      33  155616  155610      33  155616  155613
      34  155622  155619      33  155625  155619      33  155625  155622      34
  155631  155628      33  155634  155628      33  155634  155631      34  155640
  155637      33  155643  155637      33  155643  155640      34  155649  155646
      33  155652  155646      33  155652  155649      34  155658  155655      33
  155661  155655      33  155661  155658      34  155667  155664      33  155670
  155664      33  155670  155667      34  155676  155673      33  155679  155673
      33  155679  155676      34  155685  155682      33  155688  155682      33
  155688  155685      34  155694  155691      33  155697  155691      33  155697
  155694      34  155703  155700      33  155706  155700      33  155706  155703
      34  155712  155709      33  155715  155709      33  155715  155712      34
  155721  155718      33  155724  155718      33  155724  155721      34  155730
  155727      33  155733  155727      33  155733  155730      34  155739  155736
      33  155742  155736      33  155742  155739      34  155748  155745      33
  155751  155745      33  155751  155748      34  155757  155754      33  155760
  155754      33  155760  155757      34  155766  155763      33  155769  155763
      33  155769  155766      34  155775  155772      33  155778  155772      33
  155778  155775      34  155784  155781      33  155787  155781      33  155787
  155784      34  155793  155790      33  155796  155790      33  155796  155793
      34  155802  155799      33  155805  155799      33  155805  155802      34
  155811  155808      33  155814  155808      33  155814  155811      34  155820
  155817      33  155823  155817      33  155823  155820      34  155829  155826
      33  155832  155826      33  155832  155829      34  155838  155835      33
  155841  155835      33  155841  155838      34  155847  155844      33  155850
  155844      33  155850  155847      34  155856  155853      33  155859  155853
      33  155859  155856      34  155865  155862      33  155868  155862      33
  155868  155865      34  155874  155871      33  155877  155871      33  155877
  155874      34  155883  155880      33  155886  155880      33  155886  155883
      34  155892  155889      33  155895  155889      33  155895  155892      34
  155901  155898      33  155904  155898      33  155904  155901      34  155910
  155907      33  155913  155907      33  155913  155910      34  155919  155916
      33  155922  155916      33  155922  155919      34  155928  155925      33
  155931  155925      33  155931  155928      34  155937  155934      33  155940
  155934      33  155940  155937      34  155946  155943      33  155949  155943
      33  155949  155946      34  155955  155952      33  155958  155952      33
  155958  155955      34  155964  155961      33  155967  155961      33  155967
  155964      34  155973  155970      33  155976  155970      33  155976  155973
      34  155982  155979      33  155985  155979      33  155985  155982      34
  155991  155988      33  155994  155988      33  155994  155991      34  156000
  155997      33  156003  155997      33  156003  156000      34  156009  156006
      33  156012  156006      33  156012  156009      34  156018  156015      33
  156021  156015      33  156021  156018      34  156027  156024      33  156030
  156024      33  156030  156027      34  156036  156033      33  156039  156033
      33  156039  156036      34  156045  156042      33  156048  156042      33
  156048  156045      34  156054  156051      33  156057  156051      33  156057
  156054      34  156063  156060      33  156066  156060      33  156066  156063
      34  156072  156069      33  156075  156069      33  156075  156072      34
  156081  156078      33  156084  156078      33  156084  156081      34  156090
  156087      33  156093  156087      33  156093  156090      34  156099  156096
      33  156102  156096      33  156102  156099      34  156108  156105      33
  156111  156105      33  156111  156108      34  156117  156114      33  156120
  156114      33  156120  156117      34  156126  156123      33  156129  156123
      33  156129  156126      34  156135  156132      33  156138  156132      33
  156138  156135      34  156144  156141      33  156147  156141      33  156147
  156144      34  156153  156150      33  156156  156150      33  156156  156153
      34  156162  156159      33  156165  156159      33  156165  156162      34
  156171  156168      33  156174  156168      33  156174  156171      34  156180
  156177      33  156183  156177      33  156183  156180      34  156189  156186
      33  156192  156186      33  156192  156189      34  156198  156195      33
  156201  156195      33  156201  156198      34  156207  156204      33  156210
  156204      33  156210  156207      34  156216  156213      33  156219  156213
      33  156219  156216      34  156225  156222      33  156228  156222      33
  156228  156225      34  156234  156231      33  156237  156231      33  156237
  156234      34  156243  156240      33  156246  156240      33  156246  156243
      34  156252  156249      33  156255  156249      33  156255  156252      34
  156261  156258      33  156264  156258      33  156264  156261      34  156270
  156267      33  156273  156267      33  156273  156270      34  156279  156276
      33  156282  156276      33  156282  156279      34  156288  156285      33
  156291  156285      33  156291  156288      34  156297  156294      33  156300
  156294      33  156300  156297      34  156306  156303      33  156309  156303
      33  156309  156306      34  156315  156312      33  156318  156312      33
  156318  156315      34  156324  156321      33  156327  156321      33  156327
  156324      34  156333  156330      33  156336  156330      33  156336  156333
      34  156342  156339      33  156345  156339      33  156345  156342      34
  156351  156348      33  156354  156348      33  156354  156351      34  156360
  156357      33  156363  156357      33  156363  156360      34  156369  156366
      33  156372  156366      33  156372  156369      34  156378  156375      33
  156381  156375      33  156381  156378      34  156387  156384      33  156390
  156384      33  156390  156387      34  156396  156393      33  156399  156393
      33  156399  156396      34  156405  156402      33  156408  156402      33
  156408  156405      34  156414  156411      33  156417  156411      33  156417
  156414      34  156423  156420      33  156426  156420      33  156426  156423
      34  156432  156429      33  156435  156429      33  156435  156432      34
  156441  156438      33  156444  156438      33  156444  156441      34  156450
  156447      33  156453  156447      33  156453  156450      34  156459  156456
      33  156462  156456      33  156462  156459      34  156468  156465      33
  156471  156465      33  156471  156468      34  156477  156474      33  156480
  156474      33  156480  156477      34  156486  156483      33  156489  156483
      33  156489  156486      34  156495  156492      33  156498  156492      33
  156498  156495      34  156504  156501      33  156507  156501      33  156507
  156504      34  156513  156510      33  156516  156510      33  156516  156513
      34  156522  156519      33  156525  156519      33  156525  156522      34
  156531  156528      33  156534  156528      33  156534  156531      34  156540
  156537      33  156543  156537      33  156543  156540      34  156549  156546
      33  156552  156546      33  156552  156549      34  156558  156555      33
  156561  156555      33  156561  156558      34  156567  156564      33  156570
  156564      33  156570  156567      34  156576  156573      33  156579  156573
      33  156579  156576      34  156585  156582      33  156588  156582      33
  156588  156585      34  156594  156591      33  156597  156591      33  156597
  156594      34  156603  156600      33  156606  156600      33  156606  156603
      34  156612  156609      33  156615  156609      33  156615  156612      34
  156621  156618      33  156624  156618      33  156624  156621      34  156630
  156627      33  156633  156627      33  156633  156630      34  156639  156636
      33  156642  156636      33  156642  156639      34  156648  156645      33
  156651  156645      33  156651  156648      34  156657  156654      33  156660
  156654      33  156660  156657      34  156666  156663      33  156669  156663
      33  156669  156666      34  156675  156672      33  156678  156672      33
  156678  156675      34  156684  156681      33  156687  156681      33  156687
  156684      34  156693  156690      33  156696  156690      33  156696  156693
      34  156702  156699      33  156705  156699      33  156705  156702      34
  156711  156708      33  156714  156708      33  156714  156711      34  156720
  156717      33  156723  156717      33  156723  156720      34  156729  156726
      33  156732  156726      33  156732  156729      34  156738  156735      33
  156741  156735      33  156741  156738      34  156747  156744      33  156750
  156744      33  156750  156747      34  156756  156753      33  156759  156753
      33  156759  156756      34  156765  156762      33  156768  156762      33
  156768  156765      34  156774  156771      33  156777  156771      33  156777
  156774      34  156783  156780      33  156786  156780      33  156786  156783
      34  156792  156789      33  156795  156789      33  156795  156792      34
  156801  156798      33  156804  156798      33  156804  156801      34  156810
  156807      33  156813  156807      33  156813  156810      34  156819  156816
      33  156822  156816      33  156822  156819      34  156828  156825      33
  156831  156825      33  156831  156828      34  156837  156834      33  156840
  156834      33  156840  156837      34  156846  156843      33  156849  156843
      33  156849  156846      34  156855  156852      33  156858  156852      33
  156858  156855      34  156864  156861      33  156867  156861      33  156867
  156864      34  156873  156870      33  156876  156870      33  156876  156873
      34  156882  156879      33  156885  156879      33  156885  156882      34
  156891  156888      33  156894  156888      33  156894  156891      34  156900
  156897      33  156903  156897      33  156903  156900      34  156909  156906
      33  156912  156906      33  156912  156909      34  156918  156915      33
  156921  156915      33  156921  156918      34  156927  156924      33  156930
  156924      33  156930  156927      34  156936  156933      33  156939  156933
      33  156939  156936      34  156945  156942      33  156948  156942      33
  156948  156945      34  156954  156951      33  156957  156951      33  156957
  156954      34  156963  156960      33  156966  156960      33  156966  156963
      34  156972  156969      33  156975  156969      33  156975  156972      34
  156981  156978      33  156984  156978      33  156984  156981      34  156990
  156987      33  156993  156987      33  156993  156990      34  156999  156996
      33  157002  156996      33  157002  156999      34  157008  157005      33
  157011  157005      33  157011  157008      34  157017  157014      33  157020
  157014      33  157020  157017      34  157026  157023      33  157029  157023
      33  157029  157026      34  157035  157032      33  157038  157032      33
  157038  157035      34  157044  157041      33  157047  157041      33  157047
  157044      34  157053  157050      33  157056  157050      33  157056  157053
      34  157062  157059      33  157065  157059      33  157065  157062      34
  157071  157068      33  157074  157068      33  157074  157071      34  157080
  157077      33  157083  157077      33  157083  157080      34  157089  157086
      33  157092  157086      33  157092  157089      34  157098  157095      33
  157101  157095      33  157101  157098      34  157107  157104      33  157110
  157104      33  157110  157107      34  157116  157113      33  157119  157113
      33  157119  157116      34  157125  157122      33  157128  157122      33
  157128  157125      34  157134  157131      33  157137  157131      33  157137
  157134      34  157143  157140      33  157146  157140      33  157146  157143
      34  157152  157149      33  157155  157149      33  157155  157152      34
  157161  157158      33  157164  157158      33  157164  157161      34  157170
  157167      33  157173  157167      33  157173  157170      34  157179  157176
      33  157182  157176      33  157182  157179      34  157188  157185      33
  157191  157185      33  157191  157188      34  157197  157194      33  157200
  157194      33  157200  157197      34  157206  157203      33  157209  157203
      33  157209  157206      34  157215  157212      33  157218  157212      33
  157218  157215      34  157224  157221      33  157227  157221      33  157227
  157224      34  157233  157230      33  157236  157230      33  157236  157233
      34  157242  157239      33  157245  157239      33  157245  157242      34
  157251  157248      33  157254  157248      33  157254  157251      34  157260
  157257      33  157263  157257      33  157263  157260      34  157269  157266
      33  157272  157266      33  157272  157269      34  157278  157275      33
  157281  157275      33  157281  157278      34  157287  157284      33  157290
  157284      33  157290  157287      34  157296  157293      33  157299  157293
      33  157299  157296      34  157305  157302      33  157308  157302      33
  157308  157305      34  157314  157311      33  157317  157311      33  157317
  157314      34  157323  157320      33  157326  157320      33  157326  157323
      34  157332  157329      33  157335  157329      33  157335  157332      34
  157341  157338      33  157344  157338      33  157344  157341      34  157350
  157347      33  157353  157347      33  157353  157350      34  157359  157356
      33  157362  157356      33  157362  157359      34  157368  157365      33
  157371  157365      33  157371  157368      34  157377  157374      33  157380
  157374      33  157380  157377      34  157386  157383      33  157389  157383
      33  157389  157386      34  157395  157392      33  157398  157392      33
  157398  157395      34  157404  157401      33  157407  157401      33  157407
  157404      34  157413  157410      33  157416  157410      33  157416  157413
      34  157422  157419      33  157425  157419      33  157425  157422      34
  157431  157428      33  157434  157428      33  157434  157431      34  157440
  157437      33  157443  157437      33  157443  157440      34  157449  157446
      33  157452  157446      33  157452  157449      34  157458  157455      33
  157461  157455      33  157461  157458      34  157467  157464      33  157470
  157464      33  157470  157467      34  157476  157473      33  157479  157473
      33  157479  157476      34  157485  157482      33  157488  157482      33
  157488  157485      34  157494  157491      33  157497  157491      33  157497
  157494      34  157503  157500      33  157506  157500      33  157506  157503
      34  157512  157509      33  157515  157509      33  157515  157512      34
  157521  157518      33  157524  157518      33  157524  157521      34  157530
  157527      33  157533  157527      33  157533  157530      34  157539  157536
      33  157542  157536      33  157542  157539      34  157548  157545      33
  157551  157545      33  157551  157548      34  157557  157554      33  157560
  157554      33  157560  157557      34  157566  157563      33  157569  157563
      33  157569  157566      34  157575  157572      33  157578  157572      33
  157578  157575      34  157584  157581      33  157587  157581      33  157587
  157584      34  157593  157590      33  157596  157590      33  157596  157593
      34  157602  157599      33  157605  157599      33  157605  157602      34
  157611  157608      33  157614  157608      33  157614  157611      34  157620
  157617      33  157623  157617      33  157623  157620      34  157629  157626
      33  157632  157626      33  157632  157629      34  157638  157635      33
  157641  157635      33  157641  157638      34  157647  157644      33  157650
  157644      33  157650  157647      34  157656  157653      33  157659  157653
      33  157659  157656      34  157665  157662      33  157668  157662      33
  157668  157665      34  157674  157671      33  157677  157671      33  157677
  157674      34  157683  157680      33  157686  157680      33  157686  157683
      34  157692  157689      33  157695  157689      33  157695  157692      34
  157701  157698      33  157704  157698      33  157704  157701      34  157710
  157707      33  157713  157707      33  157713  157710      34  157719  157716
      33  157722  157716      33  157722  157719      34  157728  157725      33
  157731  157725      33  157731  157728      34  157737  157734      33  157740
  157734      33  157740  157737      34  157746  157743      33  157749  157743
      33  157749  157746      34  157755  157752      33  157758  157752      33
  157758  157755      34  157764  157761      33  157767  157761      33  157767
  157764      34  157773  157770      33  157776  157770      33  157776  157773
      34  157782  157779      33  157785  157779      33  157785  157782      34
  157791  157788      33  157794  157788      33  157794  157791      34  157800
  157797      33  157803  157797      33  157803  157800      34  157809  157806
      33  157812  157806      33  157812  157809      34  157818  157815      33
  157821  157815      33  157821  157818      34  157827  157824      33  157830
  157824      33  157830  157827      34  157836  157833      33  157839  157833
      33  157839  157836      34  157845  157842      33  157848  157842      33
  157848  157845      34  157854  157851      33  157857  157851      33  157857
  157854      34  157863  157860      33  157866  157860      33  157866  157863
      34  157872  157869      33  157875  157869      33  157875  157872      34
  157881  157878      33  157884  157878      33  157884  157881      34  157890
  157887      33  157893  157887      33  157893  157890      34  157899  157896
      33  157902  157896      33  157902  157899      34  157908  157905      33
  157911  157905      33  157911  157908      34  157917  157914      33  157920
  157914      33  157920  157917      34  157926  157923      33  157929  157923
      33  157929  157926      34  157935  157932      33  157938  157932      33
  157938  157935      34  157944  157941      33  157947  157941      33  157947
  157944      34  157953  157950      33  157956  157950      33  157956  157953
      34  157962  157959      33  157965  157959      33  157965  157962      34
  157971  157968      33  157974  157968      33  157974  157971      34  157980
  157977      33  157983  157977      33  157983  157980      34  157989  157986
      33  157992  157986      33  157992  157989      34  157998  157995      33
  158001  157995      33  158001  157998      34  158007  158004      33  158010
  158004      33  158010  158007      34  158016  158013      33  158019  158013
      33  158019  158016      34  158025  158022      33  158028  158022      33
  158028  158025      34  158034  158031      33  158037  158031      33  158037
  158034      34  158043  158040      33  158046  158040      33  158046  158043
      34  158052  158049      33  158055  158049      33  158055  158052      34
  158061  158058      33  158064  158058      33  158064  158061      34  158070
  158067      33  158073  158067      33  158073  158070      34  158079  158076
      33  158082  158076      33  158082  158079      34  158088  158085      33
  158091  158085      33  158091  158088      34  158097  158094      33  158100
  158094      33  158100  158097      34  158106  158103      33  158109  158103
      33  158109  158106      34  158115  158112      33  158118  158112      33
  158118  158115      34  158124  158121      33  158127  158121      33  158127
  158124      34  158133  158130      33  158136  158130      33  158136  158133
      34  158142  158139      33  158145  158139      33  158145  158142      34
  158151  158148      33  158154  158148      33  158154  158151      34  158160
  158157      33  158163  158157      33  158163  158160      34  158169  158166
      33  158172  158166      33  158172  158169      34  158178  158175      33
  158181  158175      33  158181  158178      34  158187  158184      33  158190
  158184      33  158190  158187      34  158196  158193      33  158199  158193
      33  158199  158196      34  158205  158202      33  158208  158202      33
  158208  158205      34  158214  158211      33  158217  158211      33  158217
  158214      34  158223  158220      33  158226  158220      33  158226  158223
      34  158232  158229      33  158235  158229      33  158235  158232      34
  158241  158238      33  158244  158238      33  158244  158241      34  158250
  158247      33  158253  158247      33  158253  158250      34  158259  158256
      33  158262  158256      33  158262  158259      34  158268  158265      33
  158271  158265      33  158271  158268      34  158277  158274      33  158280
  158274      33  158280  158277      34  158286  158283      33  158289  158283
      33  158289  158286      34  158295  158292      33  158298  158292      33
  158298  158295      34  158304  158301      33  158307  158301      33  158307
  158304      34  158313  158310      33  158316  158310      33  158316  158313
      34  158322  158319      33  158325  158319      33  158325  158322      34
  158331  158328      33  158334  158328      33  158334  158331      34  158340
  158337      33  158343  158337      33  158343  158340      34  158349  158346
      33  158352  158346      33  158352  158349      34  158358  158355      33
  158361  158355      33  158361  158358      34  158367  158364      33  158370
  158364      33  158370  158367      34  158376  158373      33  158379  158373
      33  158379  158376      34  158385  158382      33  158388  158382      33
  158388  158385      34  158394  158391      33  158397  158391      33  158397
  158394      34  158403  158400      33  158406  158400      33  158406  158403
      34  158412  158409      33  158415  158409      33  158415  158412      34
  158421  158418      33  158424  158418      33  158424  158421      34  158430
  158427      33  158433  158427      33  158433  158430      34  158439  158436
      33  158442  158436      33  158442  158439      34  158448  158445      33
  158451  158445      33  158451  158448      34  158457  158454      33  158460
  158454      33  158460  158457      34  158466  158463      33  158469  158463
      33  158469  158466      34  158475  158472      33  158478  158472      33
  158478  158475      34  158484  158481      33  158487  158481      33  158487
  158484      34  158493  158490      33  158496  158490      33  158496  158493
      34  158502  158499      33  158505  158499      33  158505  158502      34
  158511  158508      33  158514  158508      33  158514  158511      34  158520
  158517      33  158523  158517      33  158523  158520      34  158529  158526
      33  158532  158526      33  158532  158529      34  158538  158535      33
  158541  158535      33  158541  158538      34  158547  158544      33  158550
  158544      33  158550  158547      34  158556  158553      33  158559  158553
      33  158559  158556      34  158565  158562      33  158568  158562      33
  158568  158565      34  158574  158571      33  158577  158571      33  158577
  158574      34  158583  158580      33  158586  158580      33  158586  158583
      34  158592  158589      33  158595  158589      33  158595  158592      34
  158601  158598      33  158604  158598      33  158604  158601      34  158610
  158607      33  158613  158607      33  158613  158610      34  158619  158616
      33  158622  158616      33  158622  158619      34  158628  158625      33
  158631  158625      33  158631  158628      34  158637  158634      33  158640
  158634      33  158640  158637      34  158646  158643      33  158649  158643
      33  158649  158646      34  158655  158652      33  158658  158652      33
  158658  158655      34  158664  158661      33  158667  158661      33  158667
  158664      34  158673  158670      33  158676  158670      33  158676  158673
      34  158682  158679      33  158685  158679      33  158685  158682      34
  158691  158688      33  158694  158688      33  158694  158691      34  158700
  158697      33  158703  158697      33  158703  158700      34  158709  158706
      33  158712  158706      33  158712  158709      34  158718  158715      33
  158721  158715      33  158721  158718      34  158727  158724      33  158730
  158724      33  158730  158727      34  158736  158733      33  158739  158733
      33  158739  158736      34  158745  158742      33  158748  158742      33
  158748  158745      34  158754  158751      33  158757  158751      33  158757
  158754      34  158763  158760      33  158766  158760      33  158766  158763
      34  158772  158769      33  158775  158769      33  158775  158772      34
  158781  158778      33  158784  158778      33  158784  158781      34  158790
  158787      33  158793  158787      33  158793  158790      34  158799  158796
      33  158802  158796      33  158802  158799      34  158808  158805      33
  158811  158805      33  158811  158808      34  158817  158814      33  158820
  158814      33  158820  158817      34  158826  158823      33  158829  158823
      33  158829  158826      34  158835  158832      33  158838  158832      33
  158838  158835      34  158844  158841      33  158847  158841      33  158847
  158844      34  158853  158850      33  158856  158850      33  158856  158853
      34  158862  158859      33  158865  158859      33  158865  158862      34
  158871  158868      33  158874  158868      33  158874  158871      34  158880
  158877      33  158883  158877      33  158883  158880      34  158889  158886
      33  158892  158886      33  158892  158889      34  158898  158895      33
  158901  158895      33  158901  158898      34  158907  158904      33  158910
  158904      33  158910  158907      34  158916  158913      33  158919  158913
      33  158919  158916      34  158925  158922      33  158928  158922      33
  158928  158925      34  158934  158931      33  158937  158931      33  158937
  158934      34  158943  158940      33  158946  158940      33  158946  158943
      34  158952  158949      33  158955  158949      33  158955  158952      34
  158961  158958      33  158964  158958      33  158964  158961      34  158970
  158967      33  158973  158967      33  158973  158970      34  158979  158976
      33  158982  158976      33  158982  158979      34  158988  158985      33
  158991  158985      33  158991  158988      34  158997  158994      33  159000
  158994      33  159000  158997      34  159006  159003      33  159009  159003
      33  159009  159006      34  159015  159012      33  159018  159012      33
  159018  159015      34  159024  159021      33  159027  159021      33  159027
  159024      34  159033  159030      33  159036  159030      33  159036  159033
      34  159042  159039      33  159045  159039      33  159045  159042      34
  159051  159048      33  159054  159048      33  159054  159051      34  159060
  159057      33  159063  159057      33  159063  159060      34  159069  159066
      33  159072  159066      33  159072  159069      34  159078  159075      33
  159081  159075      33  159081  159078      34  159087  159084      33  159090
  159084      33  159090  159087      34  159096  159093      33  159099  159093
      33  159099  159096      34  159105  159102      33  159108  159102      33
  159108  159105      34  159114  159111      33  159117  159111      33  159117
  159114      34  159123  159120      33  159126  159120      33  159126  159123
      34  159132  159129      33  159135  159129      33  159135  159132      34
  159141  159138      33  159144  159138      33  159144  159141      34  159150
  159147      33  159153  159147      33  159153  159150      34  159159  159156
      33  159162  159156      33  159162  159159      34  159168  159165      33
  159171  159165      33  159171  159168      34  159177  159174      33  159180
  159174      33  159180  159177      34  159186  159183      33  159189  159183
      33  159189  159186      34  159195  159192      33  159198  159192      33
  159198  159195      34  159204  159201      33  159207  159201      33  159207
  159204      34  159213  159210      33  159216  159210      33  159216  159213
      34  159222  159219      33  159225  159219      33  159225  159222      34
  159231  159228      33  159234  159228      33  159234  159231      34  159240
  159237      33  159243  159237      33  159243  159240      34  159249  159246
      33  159252  159246      33  159252  159249      34  159258  159255      33
  159261  159255      33  159261  159258      34  159267  159264      33  159270
  159264      33  159270  159267      34  159276  159273      33  159279  159273
      33  159279  159276      34  159285  159282      33  159288  159282      33
  159288  159285      34  159294  159291      33  159297  159291      33  159297
  159294      34  159303  159300      33  159306  159300      33  159306  159303
      34  159312  159309      33  159315  159309      33  159315  159312      34
  159321  159318      33  159324  159318      33  159324  159321      34  159330
  159327      33  159333  159327      33  159333  159330      34  159339  159336
      33  159342  159336      33  159342  159339      34  159348  159345      33
  159351  159345      33  159351  159348      34  159357  159354      33  159360
  159354      33  159360  159357      34  159366  159363      33  159369  159363
      33  159369  159366      34  159375  159372      33  159378  159372      33
  159378  159375      34  159384  159381      33  159387  159381      33  159387
  159384      34  159393  159390      33  159396  159390      33  159396  159393
      34  159402  159399      33  159405  159399      33  159405  159402      34
  159411  159408      33  159414  159408      33  159414  159411      34  159420
  159417      33  159423  159417      33  159423  159420      34  159429  159426
      33  159432  159426      33  159432  159429      34  159438  159435      33
  159441  159435      33  159441  159438      34  159447  159444      33  159450
  159444      33  159450  159447      34  159456  159453      33  159459  159453
      33  159459  159456      34  159465  159462      33  159468  159462      33
  159468  159465      34  159474  159471      33  159477  159471      33  159477
  159474      34  159483  159480      33  159486  159480      33  159486  159483
      34  159492  159489      33  159495  159489      33  159495  159492      34
  159501  159498      33  159504  159498      33  159504  159501      34  159510
  159507      33  159513  159507      33  159513  159510      34  159519  159516
      33  159522  159516      33  159522  159519      34  159528  159525      33
  159531  159525      33  159531  159528      34  159537  159534      33  159540
  159534      33  159540  159537      34  159546  159543      33  159549  159543
      33  159549  159546      34  159555  159552      33  159558  159552      33
  159558  159555      34  159564  159561      33  159567  159561      33  159567
  159564      34  159573  159570      33  159576  159570      33  159576  159573
      34  159582  159579      33  159585  159579      33  159585  159582      34
  159591  159588      33  159594  159588      33  159594  159591      34  159600
  159597      33  159603  159597      33  159603  159600      34  159609  159606
      33  159612  159606      33  159612  159609      34  159618  159615      33
  159621  159615      33  159621  159618      34  159627  159624      33  159630
  159624      33  159630  159627      34  159636  159633      33  159639  159633
      33  159639  159636      34  159645  159642      33  159648  159642      33
  159648  159645      34  159654  159651      33  159657  159651      33  159657
  159654      34  159663  159660      33  159666  159660      33  159666  159663
      34  159672  159669      33  159675  159669      33  159675  159672      34
  159681  159678      33  159684  159678      33  159684  159681      34  159690
  159687      33  159693  159687      33  159693  159690      34  159699  159696
      33  159702  159696      33  159702  159699      34  159708  159705      33
  159711  159705      33  159711  159708      34  159717  159714      33  159720
  159714      33  159720  159717      34  159726  159723      33  159729  159723
      33  159729  159726      34  159735  159732      33  159738  159732      33
  159738  159735      34  159744  159741      33  159747  159741      33  159747
  159744      34  159753  159750      33  159756  159750      33  159756  159753
      34  159762  159759      33  159765  159759      33  159765  159762      34
  159771  159768      33  159774  159768      33  159774  159771      34  159780
  159777      33  159783  159777      33  159783  159780      34  159789  159786
      33  159792  159786      33  159792  159789      34  159798  159795      33
  159801  159795      33  159801  159798      34  159807  159804      33  159810
  159804      33  159810  159807      34  159816  159813      33  159819  159813
      33  159819  159816      34  159825  159822      33  159828  159822      33
  159828  159825      34  159834  159831      33  159837  159831      33  159837
  159834      34  159843  159840      33  159846  159840      33  159846  159843
      34  159852  159849      33  159855  159849      33  159855  159852      34
  159861  159858      33  159864  159858      33  159864  159861      34  159870
  159867      33  159873  159867      33  159873  159870      34  159879  159876
      33  159882  159876      33  159882  159879      34  159888  159885      33
  159891  159885      33  159891  159888      34  159897  159894      33  159900
  159894      33  159900  159897      34  159906  159903      33  159909  159903
      33  159909  159906      34  159915  159912      33  159918  159912      33
  159918  159915      34  159924  159921      33  159927  159921      33  159927
  159924      34  159933  159930      33  159936  159930      33  159936  159933
      34  159942  159939      33  159945  159939      33  159945  159942      34
  159951  159948      33  159954  159948      33  159954  159951      34  159960
  159957      33  159963  159957      33  159963  159960      34  159969  159966
      33  159972  159966      33  159972  159969      34  159978  159975      33
  159981  159975      33  159981  159978      34  159987  159984      33  159990
  159984      33  159990  159987      34  159996  159993      33  159999  159993
      33  159999  159996      34  160005  160002      33  160008  160002      33
  160008  160005      34  160014  160011      33  160017  160011      33  160017
  160014      34  160023  160020      33  160026  160020      33  160026  160023
      34  160032  160029      33  160035  160029      33  160035  160032      34
  160041  160038      33  160044  160038      33  160044  160041      34  160050
  160047      33  160053  160047      33  160053  160050      34  160059  160056
      33  160062  160056      33  160062  160059      34  160068  160065      33
  160071  160065      33  160071  160068      34  160077  160074      33  160080
  160074      33  160080  160077      34  160086  160083      33  160089  160083
      33  160089  160086      34  160095  160092      33  160098  160092      33
  160098  160095      34  160104  160101      33  160107  160101      33  160107
  160104      34  160113  160110      33  160116  160110      33  160116  160113
      34  160122  160119      33  160125  160119      33  160125  160122      34
  160131  160128      33  160134  160128      33  160134  160131      34  160140
  160137      33  160143  160137      33  160143  160140      34  160149  160146
      33  160152  160146      33  160152  160149      34  160158  160155      33
  160161  160155      33  160161  160158      34  160167  160164      33  160170
  160164      33  160170  160167      34  160176  160173      33  160179  160173
      33  160179  160176      34  160185  160182      33  160188  160182      33
  160188  160185      34  160194  160191      33  160197  160191      33  160197
  160194      34  160203  160200      33  160206  160200      33  160206  160203
      34  160212  160209      33  160215  160209      33  160215  160212      34
  160221  160218      33  160224  160218      33  160224  160221      34  160230
  160227      33  160233  160227      33  160233  160230      34  160239  160236
      33  160242  160236      33  160242  160239      34  160248  160245      33
  160251  160245      33  160251  160248      34  160257  160254      33  160260
  160254      33  160260  160257      34  160266  160263      33  160269  160263
      33  160269  160266      34  160275  160272      33  160278  160272      33
  160278  160275      34  160284  160281      33  160287  160281      33  160287
  160284      34  160293  160290      33  160296  160290      33  160296  160293
      34  160302  160299      33  160305  160299      33  160305  160302      34
  160311  160308      33  160314  160308      33  160314  160311      34  160320
  160317      33  160323  160317      33  160323  160320      34  160329  160326
      33  160332  160326      33  160332  160329      34  160338  160335      33
  160341  160335      33  160341  160338      34  160347  160344      33  160350
  160344      33  160350  160347      34  160356  160353      33  160359  160353
      33  160359  160356      34  160365  160362      33  160368  160362      33
  160368  160365      34  160374  160371      33  160377  160371      33  160377
  160374      34  160383  160380      33  160386  160380      33  160386  160383
      34  160392  160389      33  160395  160389      33  160395  160392      34
  160401  160398      33  160404  160398      33  160404  160401      34  160410
  160407      33  160413  160407      33  160413  160410      34  160419  160416
      33  160422  160416      33  160422  160419      34  160428  160425      33
  160431  160425      33  160431  160428      34  160437  160434      33  160440
  160434      33  160440  160437      34  160446  160443      33  160449  160443
      33  160449  160446      34  160455  160452      33  160458  160452      33
  160458  160455      34  160464  160461      33  160467  160461      33  160467
  160464      34  160473  160470      33  160476  160470      33  160476  160473
      34  160482  160479      33  160485  160479      33  160485  160482      34
  160491  160488      33  160494  160488      33  160494  160491      34  160500
  160497      33  160503  160497      33  160503  160500      34  160509  160506
      33  160512  160506      33  160512  160509      34  160518  160515      33
  160521  160515      33  160521  160518      34  160527  160524      33  160530
  160524      33  160530  160527      34  160536  160533      33  160539  160533
      33  160539  160536      34  160545  160542      33  160548  160542      33
  160548  160545      34  160554  160551      33  160557  160551      33  160557
  160554      34  160563  160560      33  160566  160560      33  160566  160563
      34  160572  160569      33  160575  160569      33  160575  160572      34
%FLAG BONDS_WITHOUT_HYDROGEN                                                    
%FORMAT(10I8)                                                                   
      12      15       1      12      18       2       3      12       4      63
      66       1      63      69       2      48      51       1      48      54
       2      39      48       4      30      39       6      24      30       8
      24      63       9      18      24      10      93      96       1      93
      99       2      90     282      11      81      90      13      75      81
       8      75      93       9      69      75      10     123     126       1
     123     129       2     120     912      11     111     120      13     105
     111       8     105     123       9      99     105      10     165     168
       1     165     171       2     141     147       6     141     159      15
     135     141       8     135     165       9     129     135      10     198
     201       1     198     204       2     183     192      15     177     183
       8     177     198       9     171     177      10     255     258       1
     255     261       2     234     243       6     216     222       6     216
     234       6     210     216       8     210     255       9     204     210
      10     285     288       1     285     291       2     273     282      13
     267     273       8     267     285       9     261     267      10     318
     321       1     318     324       2     303     312      15     297     303
       8     297     318       9     291     297      10     375     378       1
     375     381       2     345     351       6     345     363       6     336
     345       6     330     336       8     330     375       9     324     330
      10     438     441       1     438     444       2     426     432      17
     417     420      18     417     426      19     411     417      19     405
     411      17     402     405      17     402     432      17     393     402
      20     387     393       8     387     438       9     381     387      10
     489     492       1     489     495       2     474     477       1     474
     480       2     465     474       4     456     465       6     450     456
       8     450     489       9     444     450      10     546     549       1
     546     552       2     516     522       6     516     534       6     507
     516       6     501     507       8     501     546       9     495     501
      10     594     597       1     594     609       2     582     585      18
     582     588      18     573     582       4     564     573       6     558
     564       8     558     594       9     552     558      10     645     648
       1     645     651       2     630     633       1     630     636       2
     621     630       4     615     621       8     615     645       9     609
     615      10     708     711       1     708     714       2     696     702
      17     687     690      18     687     696      19     681     687      19
     675     681      17     672     675      17     672     702      17     663
     672      20     657     663       8     657     708       9     651     657
      10     738     741       1     738     744       2     735    1467      11
     726     735      13     720     726       8     720     738       9     714
     720      10     744     750      21     774     777       1     774     780
       2     765     774       4     828     831       1     828     834       2
     816     822      24     810     816      26     804     810      26     801
     804      27     801     822      28     792     801      29     786     792
       8     786     828       9     780     786      10     885     888       1
     885     891       2     855     861       6     855     873       6     846
     855       6     840     846       8     840     885       9     834     840
      10     915     918       1     915     921       2     903     912      13
     897     903       8     897     915       9     891     897      10     936
     939       1     936     942       2     927     936       9     921     927
      10     969     972       1     969     975       2     954     963      15
     948     954       8     948     969       9     942     948      10    1023
    1026       1    1023    1029       2    1011    1017      24    1005    1011
      26     999    1005      26     996     999      27     996    1017      28
     987     996      29     981     987       8     981    1023       9     975
     981      10    1080    1083       1    1080    1086       2    1050    1056
       6    1050    1068       6    1041    1050       6    1035    1041       8
    1035    1080       9    1029    1035      10    1128    1131       1    1128
    1134       2    1098    1104       6    1098    1116       6    1092    1098
       8    1092    1128       9    1086    1092      10    1176    1179       1
    1176    1191       2    1164    1167      18    1164    1170      18    1155
    1164       4    1146    1155       6    1140    1146       8    1140    1176
       9    1134    1140      10    1215    1218       1    1215    1221       2
    1197    1203       8    1197    1215       9    1191    1197      10    1272
    1275       1    1272    1278       2    1242    1248       6    1242    1260
       6    1233    1242       6    1227    1233       8    1227    1272       9
    1221    1227      10    1335    1338       1    1335    1341       2    1323
    1329      17    1314    1317      18    1314    1323      19    1308    1314
      19    1302    1308      17    1299    1302      17    1299    1329      17
    1290    1299      20    1284    1290       8    1284    1335       9    1278
    1284      10    1392    1395       1    1392    1398       2    1362    1368
       6    1362    1380       6    1353    1362       6    1347    1353       8
    1347    1392       9    1341    1347      10    1440    1443       1    1440
    1446       2    1410    1416       6    1410    1428       6    1404    1410
       8    1404    1440       9    1398    1404      10    1470    1473       1
    1470    1476       2    1458    1467      13    1452    1458       8    1452
    1470       9    1446    1452      10    1491    1494       1    1491    1497
       2    1482    1491       9    1476    1482      10    1539    1542       1
    1539    1554       2    1527    1530      18    1527    1533      18    1518
    1527       4    1509    1518       6    1503    1509       8    1503    1539
       9    1497    1503      10    1620    1623       1    1620    1626       2
    1599    1602      31    1599    1611      31    1593    1599      31    1584
    1593      32    1575    1584       6    1566    1575       6    1560    1566
       8    1560    1620       9    1554    1560      10    1641    1644       1
    1641    1647       2    1632    1641       9    1626    1632      10    1701
    1704       1    1701    1707       2    1689    1695      17    1683    1689
      17    1677    1683      17    1671    1677      17    1668    1671      17
    1668    1695      17    1659    1668      20    1653    1659       8    1653
    1701       9    1647    1653      10    1761    1764       1    1761    1767
       2    1749    1755      17    1743    1749      17    1737    1743      17
    1731    1737      17    1728    1731      17    1728    1755      17    1719
    1728      20    1713    1719       8    1713    1761       9    1707    1713
      10    1824    1827       1    1824    1830       2    1812    1818      17
    1803    1806      18    1803    1812      19    1797    1803      19    1791
    1797      17    1788    1791      17    1788    1818      17    1779    1788
      20    1773    1779       8    1773    1824       9    1767    1773      10
    1866    1869       1    1866    1872       2    1842    1848       6    1842
    1860      15    1836    1842       8    1836    1866       9    1830    1836
      10    1872    1878      21    1902    1905       1    1902    1908       2
    1893    1902       4    1953    1956       1    1953    1959       2    1938
    1941       1    1938    1944       2    1929    1938       4    1920    1929
       6    1914    1920       8    1914    1953       9    1908    1914      10
    1983    1986       1    1983    1989       2    1980    2172      11    1971
    1980      13    1965    1971       8    1965    1983       9    1959    1965
      10    2013    2016       1    2013    2019       2    2010    2802      11
    2001    2010      13    1995    2001       8    1995    2013       9    1989
    1995      10    2055    2058       1    2055    2061       2    2031    2037
       6    2031    2049      15    2025    2031       8    2025    2055       9
    2019    2025      10    2088    2091       1    2088    2094       2    2073
    2082      15    2067    2073       8    2067    2088       9    2061    2067
      10    2145    2148       1    2145    2151       2    2124    2133       6
    2106    2112       6    2106    2124       6    2100    2106       8    2100
    2145       9    2094    2100      10    2175    2178       1    2175    2181
       2    2163    2172      13    2157    2163       8    2157    2175       9
    2151    2157      10    2208    2211       1    2208    2214       2    2193
    2202      15    2187    2193       8    2187    2208       9    2181    2187
      10    2265    2268       1    2265    2271       2    2235    2241       6
    2235    2253       6    2226    2235       6    2220    2226       8    2220
    2265       9    2214    2220      10    2328    2331       1    2328    2334
       2    2316    2322      17    2307    2310      18    2307    2316      19
    2301    2307      19    2295    2301      17    2292    2295      17    2292
    2322      17    2283    2292      20    2277    2283       8    2277    2328
       9    2271    2277      10    2379    2382       1    2379    2385       2
    2364    2367       1    2364    2370       2    2355    2364       4    2346
    2355       6    2340    2346       8    2340    2379       9    2334    2340
      10    2436    2439       1    2436    2442       2    2406    2412       6
    2406    2424       6    2397    2406       6    2391    2397       8    2391
    2436       9    2385    2391      10    2484    2487       1    2484    2499
       2    2472    2475      18    2472    2478      18    2463    2472       4
    2454    2463       6    2448    2454       8    2448    2484       9    2442
    2448      10    2535    2538       1    2535    2541       2    2520    2523
       1    2520    2526       2    2511    2520       4    2505    2511       8
    2505    2535       9    2499    2505      10    2598    2601       1    2598
    2604       2    2586    2592      17    2577    2580      18    2577    2586
      19    2571    2577      19    2565    2571      17    2562    2565      17
    2562    2592      17    2553    2562      20    2547    2553       8    2547
    2598       9    2541    2547      10    2628    2631       1    2628    2634
       2    2625    3357      11    2616    2625      13    2610    2616       8
    2610    2628       9    2604    2610      10    2634    2640      21    2664
    2667       1    2664    2670       2    2655    2664       4    2718    2721
       1    2718    2724       2    2706    2712      24    2700    2706      26
    2694    2700      26    2691    2694      27    2691    2712      28    2682
    2691      29    2676    2682       8    2676    2718       9    2670    2676
      10    2775    2778       1    2775    2781       2    2745    2751       6
    2745    2763       6    2736    2745       6    2730    2736       8    2730
    2775       9    2724    2730      10    2805    2808       1    2805    2811
       2    2793    2802      13    2787    2793       8    2787    2805       9
    2781    2787      10    2826    2829       1    2826    2832       2    2817
    2826       9    2811    2817      10    2859    2862       1    2859    2865
       2    2844    2853      15    2838    2844       8    2838    2859       9
    2832    2838      10    2913    2916       1    2913    2919       2    2901
    2907      24    2895    2901      26    2889    2895      26    2886    2889
      27    2886    2907      28    2877    2886      29    2871    2877       8
    2871    2913       9    2865    2871      10    2970    2973       1    2970
    2976       2    2940    2946       6    2940    2958       6    2931    2940
       6    2925    2931       8    2925    2970       9    2919    2925      10
    3018    3021       1    3018    3024       2    2988    2994       6    2988
    3006       6    2982    2988       8    2982    3018       9    2976    2982
      10    3066    3069       1    3066    3081       2    3054    3057      18
    3054    3060      18    3045    3054       4    3036    3045       6    3030
    3036       8    3030    3066       9    3024    3030      10    3105    3108
       1    3105    3111       2    3087    3093       8    3087    3105       9
    3081    3087      10    3162    3165       1    3162    3168       2    3132
    3138       6    3132    3150       6    3123    3132       6    3117    3123
       8    3117    3162       9    3111    3117      10    3225    3228       1
    3225    3231       2    3213    3219      17    3204    3207      18    3204
    3213      19    3198    3204      19    3192    3198      17    3189    3192
      17    3189    3219      17    3180    3189      20    3174    3180       8
    3174    3225       9    3168    3174      10    3282    3285       1    3282
    3288       2    3252    3258       6    3252    3270       6    3243    3252
       6    3237    3243       8    3237    3282       9    3231    3237      10
    3330    3333       1    3330    3336       2    3300    3306       6    3300
    3318       6    3294    3300       8    3294    3330       9    3288    3294
      10    3360    3363       1    3360    3366       2    3348    3357      13
    3342    3348       8    3342    3360       9    3336    3342      10    3381
    3384       1    3381    3387       2    3372    3381       9    3366    3372
      10    3429    3432       1    3429    3444       2    3417    3420      18
    3417    3423      18    3408    3417       4    3399    3408       6    3393
    3399       8    3393    3429       9    3387    3393      10    3510    3513
       1    3510    3516       2    3489    3492      31    3489    3501      31
    3483    3489      31    3474    3483      32    3465    3474       6    3456
    3465       6    3450    3456       8    3450    3510       9    3444    3450
      10    3531    3534       1    3531    3537       2    3522    3531       9
    3516    3522      10    3591    3594       1    3591    3597       2    3579
    3585      17    3573    3579      17    3567    3573      17    3561    3567
      17    3558    3561      17    3558    3585      17    3549    3558      20
    3543    3549       8    3543    3591       9    3537    3543      10    3651
    3654       1    3651    3657       2    3639    3645      17    3633    3639
      17    3627    3633      17    3621    3627      17    3618    3621      17
    3618    3645      17    3609    3618      20    3603    3609       8    3603
    3651       9    3597    3603      10    3714    3717       1    3714    3720
       2    3702    3708      17    3693    3696      18    3693    3702      19
    3687    3693      19    3681    3687      17    3678    3681      17    3678
    3708      17    3669    3678      20    3663    3669       8    3663    3714
       9    3657    3663      10    3756    3759       1    3756    3762       2
    3732    3738       6    3732    3750      15    3726    3732       8    3726
    3756       9    3720    3726      10    3762    3768      21    3792    3795
       1    3792    3798       2    3783    3792       4    3843    3846       1
    3843    3849       2    3828    3831       1    3828    3834       2    3819
    3828       4    3810    3819       6    3804    3810       8    3804    3843
       9    3798    3804      10    3873    3876       1    3873    3879       2
    3870    4062      11    3861    3870      13    3855    3861       8    3855
    3873       9    3849    3855      10    3903    3906       1    3903    3909
       2    3900    4692      11    3891    3900      13    3885    3891       8
    3885    3903       9    3879    3885      10    3945    3948       1    3945
    3951       2    3921    3927       6    3921    3939      15    3915    3921
       8    3915    3945       9    3909    3915      10    3978    3981       1
    3978    3984       2    3963    3972      15    3957    3963       8    3957
    3978       9    3951    3957      10    4035    4038       1    4035    4041
       2    4014    4023       6    3996    4002       6    3996    4014       6
    3990    3996       8    3990    4035       9    3984    3990      10    4065
    4068       1    4065    4071       2    4053    4062      13    4047    4053
       8    4047    4065       9    4041    4047      10    4098    4101       1
    4098    4104       2    4083    4092      15    4077    4083       8    4077
    4098       9    4071    4077      10    4155    4158       1    4155    4161
       2    4125    4131       6    4125    4143       6    4116    4125       6
    4110    4116       8    4110    4155       9    4104    4110      10    4218
    4221       1    4218    4224       2    4206    4212      17    4197    4200
      18    4197    4206      19    4191    4197      19    4185    4191      17
    4182    4185      17    4182    4212      17    4173    4182      20    4167
    4173       8    4167    4218       9    4161    4167      10    4269    4272
       1    4269    4275       2    4254    4257       1    4254    4260       2
    4245    4254       4    4236    4245       6    4230    4236       8    4230
    4269       9    4224    4230      10    4326    4329       1    4326    4332
       2    4296    4302       6    4296    4314       6    4287    4296       6
    4281    4287       8    4281    4326       9    4275    4281      10    4374
    4377       1    4374    4389       2    4362    4365      18    4362    4368
      18    4353    4362       4    4344    4353       6    4338    4344       8
    4338    4374       9    4332    4338      10    4425    4428       1    4425
    4431       2    4410    4413       1    4410    4416       2    4401    4410
       4    4395    4401       8    4395    4425       9    4389    4395      10
    4488    4491       1    4488    4494       2    4476    4482      17    4467
    4470      18    4467    4476      19    4461    4467      19    4455    4461
      17    4452    4455      17    4452    4482      17    4443    4452      20
    4437    4443       8    4437    4488       9    4431    4437      10    4518
    4521       1    4518    4524       2    4515    5247      11    4506    4515
      13    4500    4506       8    4500    4518       9    4494    4500      10
    4524    4530      21    4554    4557       1    4554    4560       2    4545
    4554       4    4608    4611       1    4608    4614       2    4596    4602
      24    4590    4596      26    4584    4590      26    4581    4584      27
    4581    4602      28    4572    4581      29    4566    4572       8    4566
    4608       9    4560    4566      10    4665    4668       1    4665    4671
       2    4635    4641       6    4635    4653       6    4626    4635       6
    4620    4626       8    4620    4665       9    4614    4620      10    4695
    4698       1    4695    4701       2    4683    4692      13    4677    4683
       8    4677    4695       9    4671    4677      10    4716    4719       1
    4716    4722       2    4707    4716       9    4701    4707      10    4749
    4752       1    4749    4755       2    4734    4743      15    4728    4734
       8    4728    4749       9    4722    4728      10    4803    4806       1
    4803    4809       2    4791    4797      24    4785    4791      26    4779
    4785      26    4776    4779      27    4776    4797      28    4767    4776
      29    4761    4767       8    4761    4803       9    4755    4761      10
    4860    4863       1    4860    4866       2    4830    4836       6    4830
    4848       6    4821    4830       6    4815    4821       8    4815    4860
       9    4809    4815      10    4908    4911       1    4908    4914       2
    4878    4884       6    4878    4896       6    4872    4878       8    4872
    4908       9    4866    4872      10    4956    4959       1    4956    4971
       2    4944    4947      18    4944    4950      18    4935    4944       4
    4926    4935       6    4920    4926       8    4920    4956       9    4914
    4920      10    4995    4998       1    4995    5001       2    4977    4983
       8    4977    4995       9    4971    4977      10    5052    5055       1
    5052    5058       2    5022    5028       6    5022    5040       6    5013
    5022       6    5007    5013       8    5007    5052       9    5001    5007
      10    5115    5118       1    5115    5121       2    5103    5109      17
    5094    5097      18    5094    5103      19    5088    5094      19    5082
    5088      17    5079    5082      17    5079    5109      17    5070    5079
      20    5064    5070       8    5064    5115       9    5058    5064      10
    5172    5175       1    5172    5178       2    5142    5148       6    5142
    5160       6    5133    5142       6    5127    5133       8    5127    5172
       9    5121    5127      10    5220    5223       1    5220    5226       2
    5190    5196       6    5190    5208       6    5184    5190       8    5184
    5220       9    5178    5184      10    5250    5253       1    5250    5256
       2    5238    5247      13    5232    5238       8    5232    5250       9
    5226    5232      10    5271    5274       1    5271    5277       2    5262
    5271       9    5256    5262      10    5319    5322       1    5319    5334
       2    5307    5310      18    5307    5313      18    5298    5307       4
    5289    5298       6    5283    5289       8    5283    5319       9    5277
    5283      10    5400    5403       1    5400    5406       2    5379    5382
      31    5379    5391      31    5373    5379      31    5364    5373      32
    5355    5364       6    5346    5355       6    5340    5346       8    5340
    5400       9    5334    5340      10    5421    5424       1    5421    5427
       2    5412    5421       9    5406    5412      10    5481    5484       1
    5481    5487       2    5469    5475      17    5463    5469      17    5457
    5463      17    5451    5457      17    5448    5451      17    5448    5475
      17    5439    5448      20    5433    5439       8    5433    5481       9
    5427    5433      10    5541    5544       1    5541    5547       2    5529
    5535      17    5523    5529      17    5517    5523      17    5511    5517
      17    5508    5511      17    5508    5535      17    5499    5508      20
    5493    5499       8    5493    5541       9    5487    5493      10    5604
    5607       1    5604    5610       2    5592    5598      17    5583    5586
      18    5583    5592      19    5577    5583      19    5571    5577      17
    5568    5571      17    5568    5598      17    5559    5568      20    5553
    5559       8    5553    5604       9    5547    5553      10    5646    5649
       1    5646    5652       2    5622    5628       6    5622    5640      15
    5616    5622       8    5616    5646       9    5610    5616      10    5652
    5658      21    5682    5685       1    5682    5688       2    5673    5682
       4    5733    5736       1    5733    5739       2    5718    5721       1
    5718    5724       2    5709    5718       4    5700    5709       6    5694
    5700       8    5694    5733       9    5688    5694      10    5763    5766
       1    5763    5769       2    5760    5952      11    5751    5760      13
    5745    5751       8    5745    5763       9    5739    5745      10    5793
    5796       1    5793    5799       2    5790    6582      11    5781    5790
      13    5775    5781       8    5775    5793       9    5769    5775      10
    5835    5838       1    5835    5841       2    5811    5817       6    5811
    5829      15    5805    5811       8    5805    5835       9    5799    5805
      10    5868    5871       1    5868    5874       2    5853    5862      15
    5847    5853       8    5847    5868       9    5841    5847      10    5925
    5928       1    5925    5931       2    5904    5913       6    5886    5892
       6    5886    5904       6    5880    5886       8    5880    5925       9
    5874    5880      10    5955    5958       1    5955    5961       2    5943
    5952      13    5937    5943       8    5937    5955       9    5931    5937
      10    5988    5991       1    5988    5994       2    5973    5982      15
    5967    5973       8    5967    5988       9    5961    5967      10    6045
    6048       1    6045    6051       2    6015    6021       6    6015    6033
       6    6006    6015       6    6000    6006       8    6000    6045       9
    5994    6000      10    6108    6111       1    6108    6114       2    6096
    6102      17    6087    6090      18    6087    6096      19    6081    6087
      19    6075    6081      17    6072    6075      17    6072    6102      17
    6063    6072      20    6057    6063       8    6057    6108       9    6051
    6057      10    6159    6162       1    6159    6165       2    6144    6147
       1    6144    6150       2    6135    6144       4    6126    6135       6
    6120    6126       8    6120    6159       9    6114    6120      10    6216
    6219       1    6216    6222       2    6186    6192       6    6186    6204
       6    6177    6186       6    6171    6177       8    6171    6216       9
    6165    6171      10    6264    6267       1    6264    6279       2    6252
    6255      18    6252    6258      18    6243    6252       4    6234    6243
       6    6228    6234       8    6228    6264       9    6222    6228      10
    6315    6318       1    6315    6321       2    6300    6303       1    6300
    6306       2    6291    6300       4    6285    6291       8    6285    6315
       9    6279    6285      10    6378    6381       1    6378    6384       2
    6366    6372      17    6357    6360      18    6357    6366      19    6351
    6357      19    6345    6351      17    6342    6345      17    6342    6372
      17    6333    6342      20    6327    6333       8    6327    6378       9
    6321    6327      10    6408    6411       1    6408    6414       2    6405
    7137      11    6396    6405      13    6390    6396       8    6390    6408
       9    6384    6390      10    6414    6420      21    6444    6447       1
    6444    6450       2    6435    6444       4    6498    6501       1    6498
    6504       2    6486    6492      24    6480    6486      26    6474    6480
      26    6471    6474      27    6471    6492      28    6462    6471      29
    6456    6462       8    6456    6498       9    6450    6456      10    6555
    6558       1    6555    6561       2    6525    6531       6    6525    6543
       6    6516    6525       6    6510    6516       8    6510    6555       9
    6504    6510      10    6585    6588       1    6585    6591       2    6573
    6582      13    6567    6573       8    6567    6585       9    6561    6567
      10    6606    6609       1    6606    6612       2    6597    6606       9
    6591    6597      10    6639    6642       1    6639    6645       2    6624
    6633      15    6618    6624       8    6618    6639       9    6612    6618
      10    6693    6696       1    6693    6699       2    6681    6687      24
    6675    6681      26    6669    6675      26    6666    6669      27    6666
    6687      28    6657    6666      29    6651    6657       8    6651    6693
       9    6645    6651      10    6750    6753       1    6750    6756       2
    6720    6726       6    6720    6738       6    6711    6720       6    6705
    6711       8    6705    6750       9    6699    6705      10    6798    6801
       1    6798    6804       2    6768    6774       6    6768    6786       6
    6762    6768       8    6762    6798       9    6756    6762      10    6846
    6849       1    6846    6861       2    6834    6837      18    6834    6840
      18    6825    6834       4    6816    6825       6    6810    6816       8
    6810    6846       9    6804    6810      10    6885    6888       1    6885
    6891       2    6867    6873       8    6867    6885       9    6861    6867
      10    6942    6945       1    6942    6948       2    6912    6918       6
    6912    6930       6    6903    6912       6    6897    6903       8    6897
    6942       9    6891    6897      10    7005    7008       1    7005    7011
       2    6993    6999      17    6984    6987      18    6984    6993      19
    6978    6984      19    6972    6978      17    6969    6972      17    6969
    6999      17    6960    6969      20    6954    6960       8    6954    7005
       9    6948    6954      10    7062    7065       1    7062    7068       2
    7032    7038       6    7032    7050       6    7023    7032       6    7017
    7023       8    7017    7062       9    7011    7017      10    7110    7113
       1    7110    7116       2    7080    7086       6    7080    7098       6
    7074    7080       8    7074    7110       9    7068    7074      10    7140
    7143       1    7140    7146       2    7128    7137      13    7122    7128
       8    7122    7140       9    7116    7122      10    7161    7164       1
    7161    7167       2    7152    7161       9    7146    7152      10    7209
    7212       1    7209    7224       2    7197    7200      18    7197    7203
      18    7188    7197       4    7179    7188       6    7173    7179       8
    7173    7209       9    7167    7173      10    7290    7293       1    7290
    7296       2    7269    7272      31    7269    7281      31    7263    7269
      31    7254    7263      32    7245    7254       6    7236    7245       6
    7230    7236       8    7230    7290       9    7224    7230      10    7311
    7314       1    7311    7317       2    7302    7311       9    7296    7302
      10    7371    7374       1    7371    7377       2    7359    7365      17
    7353    7359      17    7347    7353      17    7341    7347      17    7338
    7341      17    7338    7365      17    7329    7338      20    7323    7329
       8    7323    7371       9    7317    7323      10    7431    7434       1
    7431    7437       2    7419    7425      17    7413    7419      17    7407
    7413      17    7401    7407      17    7398    7401      17    7398    7425
      17    7389    7398      20    7383    7389       8    7383    7431       9
    7377    7383      10    7494    7497       1    7494    7500       2    7482
    7488      17    7473    7476      18    7473    7482      19    7467    7473
      19    7461    7467      17    7458    7461      17    7458    7488      17
    7449    7458      20    7443    7449       8    7443    7494       9    7437
    7443      10    7536    7539       1    7536    7542       2    7512    7518
       6    7512    7530      15    7506    7512       8    7506    7536       9
    7500    7506      10    7542    7548      21
%FLAG ANGLES_INC_HYDROGEN                                                       
%FORMAT(10I8)                                                                   
      12      18      21       2       9       3      12       4       6       3
       9       5       6       3      12       4       0       3       6       5
       0       3       9       5       0       3      12       4      63      69
      72       2      57      54      60       8      48      54      57       2
      48      54      60       2      45      39      48       4      42      39
      45       5      42      39      48       4      36      30      39       9
      33      30      36       5      33      30      39       9      30      39
      42       9      30      39      45       9      27      24      30      12
      27      24      63      13      24      30      33      14      24      30
      36      14      21      18      24      18      18      24      27      19
      93      99     102       2      87      81      90      23      84      81
      87      24      84      81      90      23      78      75      81      12
      78      75      93      13      75      81      84      25      75      81
      87      25      72      69      75      18      69      75      78      19
     123     129     132       2     117     111     120      23     114     111
     117      24     114     111     120      23     108     105     111      12
     108     105     123      13     105     111     114      25     105     111
     117      25     102      99     105      18      99     105     108      19
     165     171     174       2     153     147     156       5     150     147
     153       5     150     147     156       5     144     141     147      28
     144     141     159      29     141     147     150       9     141     147
     153       9     141     147     156       9     141     159     162      30
     138     135     141      12     138     135     165      13     135     141
     144      25     132     129     135      18     129     135     138      19
     198     204     207       2     189     183     192      29     186     183
     189      24     186     183     192      29     183     192     195      30
     180     177     183      12     180     177     198      13     177     183
     186      25     177     183     189      25     174     171     177      18
     171     177     180      19     255     261     264       2     249     243
     252       5     246     243     249       5     246     243     252       5
     240     234     243       9     237     234     240       5     237     234
     243       9     234     243     246       9     234     243     249       9
     234     243     252       9     228     222     231       5     225     222
     228       5     225     222     231       5     219     216     222       9
     219     216     234       9     216     222     225       9     216     222
     228       9     216     222     231       9     216     234     237       9
     216     234     240       9     213     210     216      12     213     210
     255      13     210     216     219      14     207     204     210      18
     204     210     213      19     285     291     294       2     279     273
     282      23     276     273     279      24     276     273     282      23
     270     267     273      12     270     267     285      13     267     273
     276      25     267     273     279      25     264     261     267      18
     261     267     270      19     318     324     327       2     309     303
     312      29     306     303     309      24     306     303     312      29
     303     312     315      30     300     297     303      12     300     297
     318      13     297     303     306      25     297     303     309      25
     294     291     297      18     291     297     300      19     375     381
     384       2     369     363     372       5     366     363     369       5
     366     363     372       5     357     351     360       5     354     351
     357       5     354     351     360       5     348     345     351       9
     348     345     363       9     345     351     354       9     345     351
     357       9     345     351     360       9     345     363     366       9
     345     363     369       9     345     363     372       9     342     336
     345       9     339     336     342       5     339     336     345       9
     336     345     348       9     333     330     336      12     333     330
     375      13     330     336     339      14     330     336     342      14
     327     324     330      18     324     330     333      19     438     444
     447       2     429     426     432      33     426     432     435      33
     417     420     423      35     417     426     429      36     414     411
     417      36     408     405     411      33     405     411     414      33
     402     405     408      33     402     432     435      33     399     393
     402      40     396     393     399       5     396     393     402      40
     390     387     393      12     390     387     438      13     387     393
     396      14     387     393     399      14     384     381     387      18
     381     387     390      19     489     495     498       2     483     480
     486       8     474     480     483       2     474     480     486       2
     471     465     474       4     468     465     471       5     468     465
     474       4     462     456     465       9     459     456     462       5
     459     456     465       9     456     465     468       9     456     465
     471       9     453     450     456      12     453     450     489      13
     450     456     459      14     450     456     462      14     447     444
     450      18     444     450     453      19     546     552     555       2
     540     534     543       5     537     534     540       5     537     534
     543       5     528     522     531       5     525     522     528       5
     525     522     531       5     519     516     522       9     519     516
     534       9     516     522     525       9     516     522     528       9
     516     522     531       9     516     534     537       9     516     534
     540       9     516     534     543       9     513     507     516       9
     510     507     513       5     510     507     516       9     507     516
     519       9     504     501     507      12     504     501     546      13
     501     507     510      14     501     507     513      14     498     495
     501      18     495     501     504      19     603     585     606      43
     594     609     612       2     591     588     600      43     582     585
     603      35     582     585     606      35     582     588     591      35
     582     588     600      35     579     573     582       4     576     573
     579       5     576     573     582       4     570     564     573       9
     567     564     570       5     567     564     573       9     564     573
     576       9     564     573     579       9     561     558     564      12
     561     558     594      13     558     564     567      14     558     564
     570      14     555     552     558      18     552     558     561      19
     645     651     654       2     639     636     642       8     630     636
     639       2     630     636     642       2     627     621     630       4
     624     621     627       5     624     621     630       4     618     615
     621      12     618     615     645      13     615     621     624      14
     615     621     627      14     612     609     615      18     609     615
     618      19     708     714     717       2     699     696     702      33
     696     702     705      33     687     690     693      35     687     696
     699      36     684     681     687      36     678     675     681      33
     675     681     684      33     672     675     678      33     672     702
     705      33     669     663     672      40     666     663     669       5
     666     663     672      40     660     657     663      12     660     657
     708      13     657     663     666      14     657     663     669      14
     654     651     657      18     651     657     660      19     738     744
     747       2     732     726     735      23     729     726     732      24
     729     726     735      23     723     720     726      12     723     720
     738      13     720     726     729      25     720     726     732      25
     717     714     720      18     714     720     723      19     756     750
     759      24     753     750     756      24     753     750     759      24
     747     744     750      48     744     750     753      49     744     750
     756      49     744     750     759      49     774     780     783       2
     771     765     774       4     768     765     771       5     768     765
     774       4     762     765     768       5     762     765     771       5
     762     765     774       4     828     834     837       2     819     816
     822      50     816     822     825      51     813     810     816      52
     810     816     819      53     807     804     810      53     804     810
     813      52     801     804     807      57     801     822     825      60
     798     792     801      61     795     792     798       5     795     792
     801      61     789     786     792      12     789     786     828      13
     786     792     795      14     786     792     798      14     783     780
     786      18     780     786     789      19     885     891     894       2
     879     873     882       5     876     873     879       5     876     873
     882       5     867     861     870       5     864     861     867       5
     864     861     870       5     858     855     861       9     858     855
     873       9     855     861     864       9     855     861     867       9
     855     861     870       9     855     873     876       9     855     873
     879       9     855     873     882       9     852     846     855       9
     849     846     852       5     849     846     855       9     846     855
     858       9     843     840     846      12     843     840     885      13
     840     846     849      14     840     846     852      14     837     834
     840      18     834     840     843      19     915     921     924       2
     909     903     912      23     906     903     909      24     906     903
     912      23     900     897     903      12     900     897     915      13
     897     903     906      25     897     903     909      25     894     891
     897      18     891     897     900      19     936     942     945       2
     933     927     936      13     930     927     933      65     930     927
     936      13     924     921     927      18     921     927     930      19
     921     927     933      19     969     975     978       2     960     954
     963      29     957     954     960      24     957     954     963      29
     954     963     966      30     951     948     954      12     951     948
     969      13     948     954     957      25     948     954     960      25
     945     942     948      18     942     948     951      19    1023    1029
    1032       2    1014    1011    1017      50    1011    1017    1020      51
    1008    1005    1011      52    1005    1011    1014      53    1002     999
    1005      53     999    1005    1008      52     996     999    1002      57
     996    1017    1020      60     993     987     996      61     990     987
     993       5     990     987     996      61     984     981     987      12
     984     981    1023      13     981     987     990      14     981     987
     993      14     978     975     981      18     975     981     984      19
    1080    1086    1089       2    1074    1068    1077       5    1071    1068
    1074       5    1071    1068    1077       5    1062    1056    1065       5
    1059    1056    1062       5    1059    1056    1065       5    1053    1050
    1056       9    1053    1050    1068       9    1050    1056    1059       9
    1050    1056    1062       9    1050    1056    1065       9    1050    1068
    1071       9    1050    1068    1074       9    1050    1068    1077       9
    1047    1041    1050       9    1044    1041    1047       5    1044    1041
    1050       9    1041    1050    1053       9    1038    1035    1041      12
    1038    1035    1080      13    1035    1041    1044      14    1035    1041
    1047      14    1032    1029    1035      18    1029    1035    1038      19
    1128    1134    1137       2    1122    1116    1125       5    1119    1116
    1122       5    1119    1116    1125       5    1110    1104    1113       5
    1107    1104    1110       5    1107    1104    1113       5    1101    1098
    1104       9    1101    1098    1116       9    1098    1104    1107       9
    1098    1104    1110       9    1098    1104    1113       9    1098    1116
    1119       9    1098    1116    1122       9    1098    1116    1125       9
    1095    1092    1098      12    1095    1092    1128      13    1092    1098
    1101      14    1089    1086    1092      18    1086    1092    1095      19
    1185    1167    1188      43    1176    1191    1194       2    1173    1170
    1182      43    1164    1167    1185      35    1164    1167    1188      35
    1164    1170    1173      35    1164    1170    1182      35    1161    1155
    1164       4    1158    1155    1161       5    1158    1155    1164       4
    1152    1146    1155       9    1149    1146    1152       5    1149    1146
    1155       9    1146    1155    1158       9    1146    1155    1161       9
    1143    1140    1146      12    1143    1140    1176      13    1140    1146
    1149      14    1140    1146    1152      14    1137    1134    1140      18
    1134    1140    1143      19    1215    1221    1224       2    1209    1203
    1212       5    1206    1203    1209       5    1206    1203    1212       5
    1200    1197    1203      12    1200    1197    1215      13    1197    1203
    1206      14    1197    1203    1209      14    1197    1203    1212      14
    1194    1191    1197      18    1191    1197    1200      19    1272    1278
    1281       2    1266    1260    1269       5    1263    1260    1266       5
    1263    1260    1269       5    1254    1248    1257       5    1251    1248
    1254       5    1251    1248    1257       5    1245    1242    1248       9
    1245    1242    1260       9    1242    1248    1251       9    1242    1248
    1254       9    1242    1248    1257       9    1242    1260    1263       9
    1242    1260    1266       9    1242    1260    1269       9    1239    1233
    1242       9    1236    1233    1239       5    1236    1233    1242       9
    1233    1242    1245       9    1230    1227    1233      12    1230    1227
    1272      13    1227    1233    1236      14    1227    1233    1239      14
    1224    1221    1227      18    1221    1227    1230      19    1335    1341
    1344       2    1326    1323    1329      33    1323    1329    1332      33
    1314    1317    1320      35    1314    1323    1326      36    1311    1308
    1314      36    1305    1302    1308      33    1302    1308    1311      33
    1299    1302    1305      33    1299    1329    1332      33    1296    1290
    1299      40    1293    1290    1296       5    1293    1290    1299      40
    1287    1284    1290      12    1287    1284    1335      13    1284    1290
    1293      14    1284    1290    1296      14    1281    1278    1284      18
    1278    1284    1287      19    1392    1398    1401       2    1386    1380
    1389       5    1383    1380    1386       5    1383    1380    1389       5
    1374    1368    1377       5    1371    1368    1374       5    1371    1368
    1377       5    1365    1362    1368       9    1365    1362    1380       9
    1362    1368    1371       9    1362    1368    1374       9    1362    1368
    1377       9    1362    1380    1383       9    1362    1380    1386       9
    1362    1380    1389       9    1359    1353    1362       9    1356    1353
    1359       5    1356    1353    1362       9    1353    1362    1365       9
    1350    1347    1353      12    1350    1347    1392      13    1347    1353
    1356      14    1347    1353    1359      14    1344    1341    1347      18
    1341    1347    1350      19    1440    1446    1449       2    1434    1428
    1437       5    1431    1428    1434       5    1431    1428    1437       5
    1422    1416    1425       5    1419    1416    1422       5    1419    1416
    1425       5    1413    1410    1416       9    1413    1410    1428       9
    1410    1416    1419       9    1410    1416    1422       9    1410    1416
    1425       9    1410    1428    1431       9    1410    1428    1434       9
    1410    1428    1437       9    1407    1404    1410      12    1407    1404
    1440      13    1404    1410    1413      14    1401    1398    1404      18
    1398    1404    1407      19    1470    1476    1479       2    1464    1458
    1467      23    1461    1458    1464      24    1461    1458    1467      23
    1455    1452    1458      12    1455    1452    1470      13    1452    1458
    1461      25    1452    1458    1464      25    1449    1446    1452      18
    1446    1452    1455      19    1491    1497    1500       2    1488    1482
    1491      13    1485    1482    1488      65    1485    1482    1491      13
    1479    1476    1482      18    1476    1482    1485      19    1476    1482
    1488      19    1548    1530    1551      43    1539    1554    1557       2
    1536    1533    1545      43    1527    1530    1548      35    1527    1530
    1551      35    1527    1533    1536      35    1527    1533    1545      35
    1524    1518    1527       4    1521    1518    1524       5    1521    1518
    1527       4    1515    1509    1518       9    1512    1509    1515       5
    1512    1509    1518       9    1509    1518    1521       9    1509    1518
    1524       9    1506    1503    1509      12    1506    1503    1539      13
    1503    1509    1512      14    1503    1509    1515      14    1500    1497
    1503      18    1497    1503    1506      19    1620    1626    1629       2
    1614    1611    1617      66    1605    1602    1608      66    1599    1602
    1605      68    1599    1602    1608      68    1599    1611    1614      68
    1599    1611    1617      68    1596    1593    1599      68    1590    1584
    1593      69    1587    1584    1590      24    1587    1584    1593      69
    1584    1593    1596      70    1581    1575    1584       9    1578    1575
    1581       5    1578    1575    1584       9    1575    1584    1587      28
    1575    1584    1590      28    1572    1566    1575       9    1569    1566
    1572       5    1569    1566    1575       9    1566    1575    1578       9
    1566    1575    1581       9    1563    1560    1566      12    1563    1560
    1620      13    1560    1566    1569      14    1560    1566    1572      14
    1557    1554    1560      18    1554    1560    1563      19    1641    1647
    1650       2    1638    1632    1641      13    1635    1632    1638      65
    1635    1632    1641      13    1629    1626    1632      18    1626    1632
    1635      19    1626    1632    1638      19    1701    1707    1710       2
    1692    1689    1695      33    1689    1695    1698      33    1686    1683
    1689      33    1683    1689    1692      33    1680    1677    1683      33
    1677    1683    1686      33    1674    1671    1677      33    1671    1677
    1680      33    1668    1671    1674      33    1668    1695    1698      33
    1665    1659    1668      40    1662    1659    1665       5    1662    1659
    1668      40    1656    1653    1659      12    1656    1653    1701      13
    1653    1659    1662      14    1653    1659    1665      14    1650    1647
    1653      18    1647    1653    1656      19    1761    1767    1770       2
    1752    1749    1755      33    1749    1755    1758      33    1746    1743
    1749      33    1743    1749    1752      33    1740    1737    1743      33
    1737    1743    1746      33    1734    1731    1737      33    1731    1737
    1740      33    1728    1731    1734      33    1728    1755    1758      33
    1725    1719    1728      40    1722    1719    1725       5    1722    1719
    1728      40    1716    1713    1719      12    1716    1713    1761      13
    1713    1719    1722      14    1713    1719    1725      14    1710    1707
    1713      18    1707    1713    1716      19    1824    1830    1833       2
    1815    1812    1818      33    1812    1818    1821      33    1803    1806
    1809      35    1803    1812    1815      36    1800    1797    1803      36
    1794    1791    1797      33    1791    1797    1800      33    1788    1791
    1794      33    1788    1818    1821      33    1785    1779    1788      40
    1782    1779    1785       5    1782    1779    1788      40    1776    1773
    1779      12    1776    1773    1824      13    1773    1779    1782      14
    1773    1779    1785      14    1770    1767    1773      18    1767    1773
    1776      19    1866    1872    1875       2    1854    1848    1857       5
    1851    1848    1854       5    1851    1848    1857       5    1845    1842
    1848      28    1845    1842    1860      29    1842    1848    1851       9
    1842    1848    1854       9    1842    1848    1857       9    1842    1860
    1863      30    1839    1836    1842      12    1839    1836    1866      13
    1836    1842    1845      25    1833    1830    1836      18    1830    1836
    1839      19    1884    1878    1887      24    1881    1878    1884      24
    1881    1878    1887      24    1875    1872    1878      48    1872    1878
    1881      49    1872    1878    1884      49    1872    1878    1887      49
    1902    1908    1911       2    1899    1893    1902       4    1896    1893
    1899       5    1896    1893    1902       4    1890    1893    1896       5
    1890    1893    1899       5    1890    1893    1902       4    1953    1959
    1962       2    1947    1944    1950       8    1938    1944    1947       2
    1938    1944    1950       2    1935    1929    1938       4    1932    1929
    1935       5    1932    1929    1938       4    1926    1920    1929       9
    1923    1920    1926       5    1923    1920    1929       9    1920    1929
    1932       9    1920    1929    1935       9    1917    1914    1920      12
    1917    1914    1953      13    1914    1920    1923      14    1914    1920
    1926      14    1911    1908    1914      18    1908    1914    1917      19
    1983    1989    1992       2    1977    1971    1980      23    1974    1971
    1977      24    1974    1971    1980      23    1968    1965    1971      12
    1968    1965    1983      13    1965    1971    1974      25    1965    1971
    1977      25    1962    1959    1965      18    1959    1965    1968      19
    2013    2019    2022       2    2007    2001    2010      23    2004    2001
    2007      24    2004    2001    2010      23    1998    1995    2001      12
    1998    1995    2013      13    1995    2001    2004      25    1995    2001
    2007      25    1992    1989    1995      18    1989    1995    1998      19
    2055    2061    2064       2    2043    2037    2046       5    2040    2037
    2043       5    2040    2037    2046       5    2034    2031    2037      28
    2034    2031    2049      29    2031    2037    2040       9    2031    2037
    2043       9    2031    2037    2046       9    2031    2049    2052      30
    2028    2025    2031      12    2028    2025    2055      13    2025    2031
    2034      25    2022    2019    2025      18    2019    2025    2028      19
    2088    2094    2097       2    2079    2073    2082      29    2076    2073
    2079      24    2076    2073    2082      29    2073    2082    2085      30
    2070    2067    2073      12    2070    2067    2088      13    2067    2073
    2076      25    2067    2073    2079      25    2064    2061    2067      18
    2061    2067    2070      19    2145    2151    2154       2    2139    2133
    2142       5    2136    2133    2139       5    2136    2133    2142       5
    2130    2124    2133       9    2127    2124    2130       5    2127    2124
    2133       9    2124    2133    2136       9    2124    2133    2139       9
    2124    2133    2142       9    2118    2112    2121       5    2115    2112
    2118       5    2115    2112    2121       5    2109    2106    2112       9
    2109    2106    2124       9    2106    2112    2115       9    2106    2112
    2118       9    2106    2112    2121       9    2106    2124    2127       9
    2106    2124    2130       9    2103    2100    2106      12    2103    2100
    2145      13    2100    2106    2109      14    2097    2094    2100      18
    2094    2100    2103      19    2175    2181    2184       2    2169    2163
    2172      23    2166    2163    2169      24    2166    2163    2172      23
    2160    2157    2163      12    2160    2157    2175      13    2157    2163
    2166      25    2157    2163    2169      25    2154    2151    2157      18
    2151    2157    2160      19    2208    2214    2217       2    2199    2193
    2202      29    2196    2193    2199      24    2196    2193    2202      29
    2193    2202    2205      30    2190    2187    2193      12    2190    2187
    2208      13    2187    2193    2196      25    2187    2193    2199      25
    2184    2181    2187      18    2181    2187    2190      19    2265    2271
    2274       2    2259    2253    2262       5    2256    2253    2259       5
    2256    2253    2262       5    2247    2241    2250       5    2244    2241
    2247       5    2244    2241    2250       5    2238    2235    2241       9
    2238    2235    2253       9    2235    2241    2244       9    2235    2241
    2247       9    2235    2241    2250       9    2235    2253    2256       9
    2235    2253    2259       9    2235    2253    2262       9    2232    2226
    2235       9    2229    2226    2232       5    2229    2226    2235       9
    2226    2235    2238       9    2223    2220    2226      12    2223    2220
    2265      13    2220    2226    2229      14    2220    2226    2232      14
    2217    2214    2220      18    2214    2220    2223      19    2328    2334
    2337       2    2319    2316    2322      33    2316    2322    2325      33
    2307    2310    2313      35    2307    2316    2319      36    2304    2301
    2307      36    2298    2295    2301      33    2295    2301    2304      33
    2292    2295    2298      33    2292    2322    2325      33    2289    2283
    2292      40    2286    2283    2289       5    2286    2283    2292      40
    2280    2277    2283      12    2280    2277    2328      13    2277    2283
    2286      14    2277    2283    2289      14    2274    2271    2277      18
    2271    2277    2280      19    2379    2385    2388       2    2373    2370
    2376       8    2364    2370    2373       2    2364    2370    2376       2
    2361    2355    2364       4    2358    2355    2361       5    2358    2355
    2364       4    2352    2346    2355       9    2349    2346    2352       5
    2349    2346    2355       9    2346    2355    2358       9    2346    2355
    2361       9    2343    2340    2346      12    2343    2340    2379      13
    2340    2346    2349      14    2340    2346    2352      14    2337    2334
    2340      18    2334    2340    2343      19    2436    2442    2445       2
    2430    2424    2433       5    2427    2424    2430       5    2427    2424
    2433       5    2418    2412    2421       5    2415    2412    2418       5
    2415    2412    2421       5    2409    2406    2412       9    2409    2406
    2424       9    2406    2412    2415       9    2406    2412    2418       9
    2406    2412    2421       9    2406    2424    2427       9    2406    2424
    2430       9    2406    2424    2433       9    2403    2397    2406       9
    2400    2397    2403       5    2400    2397    2406       9    2397    2406
    2409       9    2394    2391    2397      12    2394    2391    2436      13
    2391    2397    2400      14    2391    2397    2403      14    2388    2385
    2391      18    2385    2391    2394      19    2493    2475    2496      43
    2484    2499    2502       2    2481    2478    2490      43    2472    2475
    2493      35    2472    2475    2496      35    2472    2478    2481      35
    2472    2478    2490      35    2469    2463    2472       4    2466    2463
    2469       5    2466    2463    2472       4    2460    2454    2463       9
    2457    2454    2460       5    2457    2454    2463       9    2454    2463
    2466       9    2454    2463    2469       9    2451    2448    2454      12
    2451    2448    2484      13    2448    2454    2457      14    2448    2454
    2460      14    2445    2442    2448      18    2442    2448    2451      19
    2535    2541    2544       2    2529    2526    2532       8    2520    2526
    2529       2    2520    2526    2532       2    2517    2511    2520       4
    2514    2511    2517       5    2514    2511    2520       4    2508    2505
    2511      12    2508    2505    2535      13    2505    2511    2514      14
    2505    2511    2517      14    2502    2499    2505      18    2499    2505
    2508      19    2598    2604    2607       2    2589    2586    2592      33
    2586    2592    2595      33    2577    2580    2583      35    2577    2586
    2589      36    2574    2571    2577      36    2568    2565    2571      33
    2565    2571    2574      33    2562    2565    2568      33    2562    2592
    2595      33    2559    2553    2562      40    2556    2553    2559       5
    2556    2553    2562      40    2550    2547    2553      12    2550    2547
    2598      13    2547    2553    2556      14    2547    2553    2559      14
    2544    2541    2547      18    2541    2547    2550      19    2628    2634
    2637       2    2622    2616    2625      23    2619    2616    2622      24
    2619    2616    2625      23    2613    2610    2616      12    2613    2610
    2628      13    2610    2616    2619      25    2610    2616    2622      25
    2607    2604    2610      18    2604    2610    2613      19    2646    2640
    2649      24    2643    2640    2646      24    2643    2640    2649      24
    2637    2634    2640      48    2634    2640    2643      49    2634    2640
    2646      49    2634    2640    2649      49    2664    2670    2673       2
    2661    2655    2664       4    2658    2655    2661       5    2658    2655
    2664       4    2652    2655    2658       5    2652    2655    2661       5
    2652    2655    2664       4    2718    2724    2727       2    2709    2706
    2712      50    2706    2712    2715      51    2703    2700    2706      52
    2700    2706    2709      53    2697    2694    2700      53    2694    2700
    2703      52    2691    2694    2697      57    2691    2712    2715      60
    2688    2682    2691      61    2685    2682    2688       5    2685    2682
    2691      61    2679    2676    2682      12    2679    2676    2718      13
    2676    2682    2685      14    2676    2682    2688      14    2673    2670
    2676      18    2670    2676    2679      19    2775    2781    2784       2
    2769    2763    2772       5    2766    2763    2769       5    2766    2763
    2772       5    2757    2751    2760       5    2754    2751    2757       5
    2754    2751    2760       5    2748    2745    2751       9    2748    2745
    2763       9    2745    2751    2754       9    2745    2751    2757       9
    2745    2751    2760       9    2745    2763    2766       9    2745    2763
    2769       9    2745    2763    2772       9    2742    2736    2745       9
    2739    2736    2742       5    2739    2736    2745       9    2736    2745
    2748       9    2733    2730    2736      12    2733    2730    2775      13
    2730    2736    2739      14    2730    2736    2742      14    2727    2724
    2730      18    2724    2730    2733      19    2805    2811    2814       2
    2799    2793    2802      23    2796    2793    2799      24    2796    2793
    2802      23    2790    2787    2793      12    2790    2787    2805      13
    2787    2793    2796      25    2787    2793    2799      25    2784    2781
    2787      18    2781    2787    2790      19    2826    2832    2835       2
    2823    2817    2826      13    2820    2817    2823      65    2820    2817
    2826      13    2814    2811    2817      18    2811    2817    2820      19
    2811    2817    2823      19    2859    2865    2868       2    2850    2844
    2853      29    2847    2844    2850      24    2847    2844    2853      29
    2844    2853    2856      30    2841    2838    2844      12    2841    2838
    2859      13    2838    2844    2847      25    2838    2844    2850      25
    2835    2832    2838      18    2832    2838    2841      19    2913    2919
    2922       2    2904    2901    2907      50    2901    2907    2910      51
    2898    2895    2901      52    2895    2901    2904      53    2892    2889
    2895      53    2889    2895    2898      52    2886    2889    2892      57
    2886    2907    2910      60    2883    2877    2886      61    2880    2877
    2883       5    2880    2877    2886      61    2874    2871    2877      12
    2874    2871    2913      13    2871    2877    2880      14    2871    2877
    2883      14    2868    2865    2871      18    2865    2871    2874      19
    2970    2976    2979       2    2964    2958    2967       5    2961    2958
    2964       5    2961    2958    2967       5    2952    2946    2955       5
    2949    2946    2952       5    2949    2946    2955       5    2943    2940
    2946       9    2943    2940    2958       9    2940    2946    2949       9
    2940    2946    2952       9    2940    2946    2955       9    2940    2958
    2961       9    2940    2958    2964       9    2940    2958    2967       9
    2937    2931    2940       9    2934    2931    2937       5    2934    2931
    2940       9    2931    2940    2943       9    2928    2925    2931      12
    2928    2925    2970      13    2925    2931    2934      14    2925    2931
    2937      14    2922    2919    2925      18    2919    2925    2928      19
    3018    3024    3027       2    3012    3006    3015       5    3009    3006
    3012       5    3009    3006    3015       5    3000    2994    3003       5
    2997    2994    3000       5    2997    2994    3003       5    2991    2988
    2994       9    2991    2988    3006       9    2988    2994    2997       9
    2988    2994    3000       9    2988    2994    3003       9    2988    3006
    3009       9    2988    3006    3012       9    2988    3006    3015       9
    2985    2982    2988      12    2985    2982    3018      13    2982    2988
    2991      14    2979    2976    2982      18    2976    2982    2985      19
    3075    3057    3078      43    3066    3081    3084       2    3063    3060
    3072      43    3054    3057    3075      35    3054    3057    3078      35
    3054    3060    3063      35    3054    3060    3072      35    3051    3045
    3054       4    3048    3045    3051       5    3048    3045    3054       4
    3042    3036    3045       9    3039    3036    3042       5    3039    3036
    3045       9    3036    3045    3048       9    3036    3045    3051       9
    3033    3030    3036      12    3033    3030    3066      13    3030    3036
    3039      14    3030    3036    3042      14    3027    3024    3030      18
    3024    3030    3033      19    3105    3111    3114       2    3099    3093
    3102       5    3096    3093    3099       5    3096    3093    3102       5
    3090    3087    3093      12    3090    3087    3105      13    3087    3093
    3096      14    3087    3093    3099      14    3087    3093    3102      14
    3084    3081    3087      18    3081    3087    3090      19    3162    3168
    3171       2    3156    3150    3159       5    3153    3150    3156       5
    3153    3150    3159       5    3144    3138    3147       5    3141    3138
    3144       5    3141    3138    3147       5    3135    3132    3138       9
    3135    3132    3150       9    3132    3138    3141       9    3132    3138
    3144       9    3132    3138    3147       9    3132    3150    3153       9
    3132    3150    3156       9    3132    3150    3159       9    3129    3123
    3132       9    3126    3123    3129       5    3126    3123    3132       9
    3123    3132    3135       9    3120    3117    3123      12    3120    3117
    3162      13    3117    3123    3126      14    3117    3123    3129      14
    3114    3111    3117      18    3111    3117    3120      19    3225    3231
    3234       2    3216    3213    3219      33    3213    3219    3222      33
    3204    3207    3210      35    3204    3213    3216      36    3201    3198
    3204      36    3195    3192    3198      33    3192    3198    3201      33
    3189    3192    3195      33    3189    3219    3222      33    3186    3180
    3189      40    3183    3180    3186       5    3183    3180    3189      40
    3177    3174    3180      12    3177    3174    3225      13    3174    3180
    3183      14    3174    3180    3186      14    3171    3168    3174      18
    3168    3174    3177      19    3282    3288    3291       2    3276    3270
    3279       5    3273    3270    3276       5    3273    3270    3279       5
    3264    3258    3267       5    3261    3258    3264       5    3261    3258
    3267       5    3255    3252    3258       9    3255    3252    3270       9
    3252    3258    3261       9    3252    3258    3264       9    3252    3258
    3267       9    3252    3270    3273       9    3252    3270    3276       9
    3252    3270    3279       9    3249    3243    3252       9    3246    3243
    3249       5    3246    3243    3252       9    3243    3252    3255       9
    3240    3237    3243      12    3240    3237    3282      13    3237    3243
    3246      14    3237    3243    3249      14    3234    3231    3237      18
    3231    3237    3240      19    3330    3336    3339       2    3324    3318
    3327       5    3321    3318    3324       5    3321    3318    3327       5
    3312    3306    3315       5    3309    3306    3312       5    3309    3306
    3315       5    3303    3300    3306       9    3303    3300    3318       9
    3300    3306    3309       9    3300    3306    3312       9    3300    3306
    3315       9    3300    3318    3321       9    3300    3318    3324       9
    3300    3318    3327       9    3297    3294    3300      12    3297    3294
    3330      13    3294    3300    3303      14    3291    3288    3294      18
    3288    3294    3297      19    3360    3366    3369       2    3354    3348
    3357      23    3351    3348    3354      24    3351    3348    3357      23
    3345    3342    3348      12    3345    3342    3360      13    3342    3348
    3351      25    3342    3348    3354      25    3339    3336    3342      18
    3336    3342    3345      19    3381    3387    3390       2    3378    3372
    3381      13    3375    3372    3378      65    3375    3372    3381      13
    3369    3366    3372      18    3366    3372    3375      19    3366    3372
    3378      19    3438    3420    3441      43    3429    3444    3447       2
    3426    3423    3435      43    3417    3420    3438      35    3417    3420
    3441      35    3417    3423    3426      35    3417    3423    3435      35
    3414    3408    3417       4    3411    3408    3414       5    3411    3408
    3417       4    3405    3399    3408       9    3402    3399    3405       5
    3402    3399    3408       9    3399    3408    3411       9    3399    3408
    3414       9    3396    3393    3399      12    3396    3393    3429      13
    3393    3399    3402      14    3393    3399    3405      14    3390    3387
    3393      18    3387    3393    3396      19    3510    3516    3519       2
    3504    3501    3507      66    3495    3492    3498      66    3489    3492
    3495      68    3489    3492    3498      68    3489    3501    3504      68
    3489    3501    3507      68    3486    3483    3489      68    3480    3474
    3483      69    3477    3474    3480      24    3477    3474    3483      69
    3474    3483    3486      70    3471    3465    3474       9    3468    3465
    3471       5    3468    3465    3474       9    3465    3474    3477      28
    3465    3474    3480      28    3462    3456    3465       9    3459    3456
    3462       5    3459    3456    3465       9    3456    3465    3468       9
    3456    3465    3471       9    3453    3450    3456      12    3453    3450
    3510      13    3450    3456    3459      14    3450    3456    3462      14
    3447    3444    3450      18    3444    3450    3453      19    3531    3537
    3540       2    3528    3522    3531      13    3525    3522    3528      65
    3525    3522    3531      13    3519    3516    3522      18    3516    3522
    3525      19    3516    3522    3528      19    3591    3597    3600       2
    3582    3579    3585      33    3579    3585    3588      33    3576    3573
    3579      33    3573    3579    3582      33    3570    3567    3573      33
    3567    3573    3576      33    3564    3561    3567      33    3561    3567
    3570      33    3558    3561    3564      33    3558    3585    3588      33
    3555    3549    3558      40    3552    3549    3555       5    3552    3549
    3558      40    3546    3543    3549      12    3546    3543    3591      13
    3543    3549    3552      14    3543    3549    3555      14    3540    3537
    3543      18    3537    3543    3546      19    3651    3657    3660       2
    3642    3639    3645      33    3639    3645    3648      33    3636    3633
    3639      33    3633    3639    3642      33    3630    3627    3633      33
    3627    3633    3636      33    3624    3621    3627      33    3621    3627
    3630      33    3618    3621    3624      33    3618    3645    3648      33
    3615    3609    3618      40    3612    3609    3615       5    3612    3609
    3618      40    3606    3603    3609      12    3606    3603    3651      13
    3603    3609    3612      14    3603    3609    3615      14    3600    3597
    3603      18    3597    3603    3606      19    3714    3720    3723       2
    3705    3702    3708      33    3702    3708    3711      33    3693    3696
    3699      35    3693    3702    3705      36    3690    3687    3693      36
    3684    3681    3687      33    3681    3687    3690      33    3678    3681
    3684      33    3678    3708    3711      33    3675    3669    3678      40
    3672    3669    3675       5    3672    3669    3678      40    3666    3663
    3669      12    3666    3663    3714      13    3663    3669    3672      14
    3663    3669    3675      14    3660    3657    3663      18    3657    3663
    3666      19    3756    3762    3765       2    3744    3738    3747       5
    3741    3738    3744       5    3741    3738    3747       5    3735    3732
    3738      28    3735    3732    3750      29    3732    3738    3741       9
    3732    3738    3744       9    3732    3738    3747       9    3732    3750
    3753      30    3729    3726    3732      12    3729    3726    3756      13
    3726    3732    3735      25    3723    3720    3726      18    3720    3726
    3729      19    3774    3768    3777      24    3771    3768    3774      24
    3771    3768    3777      24    3765    3762    3768      48    3762    3768
    3771      49    3762    3768    3774      49    3762    3768    3777      49
    3792    3798    3801       2    3789    3783    3792       4    3786    3783
    3789       5    3786    3783    3792       4    3780    3783    3786       5
    3780    3783    3789       5    3780    3783    3792       4    3843    3849
    3852       2    3837    3834    3840       8    3828    3834    3837       2
    3828    3834    3840       2    3825    3819    3828       4    3822    3819
    3825       5    3822    3819    3828       4    3816    3810    3819       9
    3813    3810    3816       5    3813    3810    3819       9    3810    3819
    3822       9    3810    3819    3825       9    3807    3804    3810      12
    3807    3804    3843      13    3804    3810    3813      14    3804    3810
    3816      14    3801    3798    3804      18    3798    3804    3807      19
    3873    3879    3882       2    3867    3861    3870      23    3864    3861
    3867      24    3864    3861    3870      23    3858    3855    3861      12
    3858    3855    3873      13    3855    3861    3864      25    3855    3861
    3867      25    3852    3849    3855      18    3849    3855    3858      19
    3903    3909    3912       2    3897    3891    3900      23    3894    3891
    3897      24    3894    3891    3900      23    3888    3885    3891      12
    3888    3885    3903      13    3885    3891    3894      25    3885    3891
    3897      25    3882    3879    3885      18    3879    3885    3888      19
    3945    3951    3954       2    3933    3927    3936       5    3930    3927
    3933       5    3930    3927    3936       5    3924    3921    3927      28
    3924    3921    3939      29    3921    3927    3930       9    3921    3927
    3933       9    3921    3927    3936       9    3921    3939    3942      30
    3918    3915    3921      12    3918    3915    3945      13    3915    3921
    3924      25    3912    3909    3915      18    3909    3915    3918      19
    3978    3984    3987       2    3969    3963    3972      29    3966    3963
    3969      24    3966    3963    3972      29    3963    3972    3975      30
    3960    3957    3963      12    3960    3957    3978      13    3957    3963
    3966      25    3957    3963    3969      25    3954    3951    3957      18
    3951    3957    3960      19    4035    4041    4044       2    4029    4023
    4032       5    4026    4023    4029       5    4026    4023    4032       5
    4020    4014    4023       9    4017    4014    4020       5    4017    4014
    4023       9    4014    4023    4026       9    4014    4023    4029       9
    4014    4023    4032       9    4008    4002    4011       5    4005    4002
    4008       5    4005    4002    4011       5    3999    3996    4002       9
    3999    3996    4014       9    3996    4002    4005       9    3996    4002
    4008       9    3996    4002    4011       9    3996    4014    4017       9
    3996    4014    4020       9    3993    3990    3996      12    3993    3990
    4035      13    3990    3996    3999      14    3987    3984    3990      18
    3984    3990    3993      19    4065    4071    4074       2    4059    4053
    4062      23    4056    4053    4059      24    4056    4053    4062      23
    4050    4047    4053      12    4050    4047    4065      13    4047    4053
    4056      25    4047    4053    4059      25    4044    4041    4047      18
    4041    4047    4050      19    4098    4104    4107       2    4089    4083
    4092      29    4086    4083    4089      24    4086    4083    4092      29
    4083    4092    4095      30    4080    4077    4083      12    4080    4077
    4098      13    4077    4083    4086      25    4077    4083    4089      25
    4074    4071    4077      18    4071    4077    4080      19    4155    4161
    4164       2    4149    4143    4152       5    4146    4143    4149       5
    4146    4143    4152       5    4137    4131    4140       5    4134    4131
    4137       5    4134    4131    4140       5    4128    4125    4131       9
    4128    4125    4143       9    4125    4131    4134       9    4125    4131
    4137       9    4125    4131    4140       9    4125    4143    4146       9
    4125    4143    4149       9    4125    4143    4152       9    4122    4116
    4125       9    4119    4116    4122       5    4119    4116    4125       9
    4116    4125    4128       9    4113    4110    4116      12    4113    4110
    4155      13    4110    4116    4119      14    4110    4116    4122      14
    4107    4104    4110      18    4104    4110    4113      19    4218    4224
    4227       2    4209    4206    4212      33    4206    4212    4215      33
    4197    4200    4203      35    4197    4206    4209      36    4194    4191
    4197      36    4188    4185    4191      33    4185    4191    4194      33
    4182    4185    4188      33    4182    4212    4215      33    4179    4173
    4182      40    4176    4173    4179       5    4176    4173    4182      40
    4170    4167    4173      12    4170    4167    4218      13    4167    4173
    4176      14    4167    4173    4179      14    4164    4161    4167      18
    4161    4167    4170      19    4269    4275    4278       2    4263    4260
    4266       8    4254    4260    4263       2    4254    4260    4266       2
    4251    4245    4254       4    4248    4245    4251       5    4248    4245
    4254       4    4242    4236    4245       9    4239    4236    4242       5
    4239    4236    4245       9    4236    4245    4248       9    4236    4245
    4251       9    4233    4230    4236      12    4233    4230    4269      13
    4230    4236    4239      14    4230    4236    4242      14    4227    4224
    4230      18    4224    4230    4233      19    4326    4332    4335       2
    4320    4314    4323       5    4317    4314    4320       5    4317    4314
    4323       5    4308    4302    4311       5    4305    4302    4308       5
    4305    4302    4311       5    4299    4296    4302       9    4299    4296
    4314       9    4296    4302    4305       9    4296    4302    4308       9
    4296    4302    4311       9    4296    4314    4317       9    4296    4314
    4320       9    4296    4314    4323       9    4293    4287    4296       9
    4290    4287    4293       5    4290    4287    4296       9    4287    4296
    4299       9    4284    4281    4287      12    4284    4281    4326      13
    4281    4287    4290      14    4281    4287    4293      14    4278    4275
    4281      18    4275    4281    4284      19    4383    4365    4386      43
    4374    4389    4392       2    4371    4368    4380      43    4362    4365
    4383      35    4362    4365    4386      35    4362    4368    4371      35
    4362    4368    4380      35    4359    4353    4362       4    4356    4353
    4359       5    4356    4353    4362       4    4350    4344    4353       9
    4347    4344    4350       5    4347    4344    4353       9    4344    4353
    4356       9    4344    4353    4359       9    4341    4338    4344      12
    4341    4338    4374      13    4338    4344    4347      14    4338    4344
    4350      14    4335    4332    4338      18    4332    4338    4341      19
    4425    4431    4434       2    4419    4416    4422       8    4410    4416
    4419       2    4410    4416    4422       2    4407    4401    4410       4
    4404    4401    4407       5    4404    4401    4410       4    4398    4395
    4401      12    4398    4395    4425      13    4395    4401    4404      14
    4395    4401    4407      14    4392    4389    4395      18    4389    4395
    4398      19    4488    4494    4497       2    4479    4476    4482      33
    4476    4482    4485      33    4467    4470    4473      35    4467    4476
    4479      36    4464    4461    4467      36    4458    4455    4461      33
    4455    4461    4464      33    4452    4455    4458      33    4452    4482
    4485      33    4449    4443    4452      40    4446    4443    4449       5
    4446    4443    4452      40    4440    4437    4443      12    4440    4437
    4488      13    4437    4443    4446      14    4437    4443    4449      14
    4434    4431    4437      18    4431    4437    4440      19    4518    4524
    4527       2    4512    4506    4515      23    4509    4506    4512      24
    4509    4506    4515      23    4503    4500    4506      12    4503    4500
    4518      13    4500    4506    4509      25    4500    4506    4512      25
    4497    4494    4500      18    4494    4500    4503      19    4536    4530
    4539      24    4533    4530    4536      24    4533    4530    4539      24
    4527    4524    4530      48    4524    4530    4533      49    4524    4530
    4536      49    4524    4530    4539      49    4554    4560    4563       2
    4551    4545    4554       4    4548    4545    4551       5    4548    4545
    4554       4    4542    4545    4548       5    4542    4545    4551       5
    4542    4545    4554       4    4608    4614    4617       2    4599    4596
    4602      50    4596    4602    4605      51    4593    4590    4596      52
    4590    4596    4599      53    4587    4584    4590      53    4584    4590
    4593      52    4581    4584    4587      57    4581    4602    4605      60
    4578    4572    4581      61    4575    4572    4578       5    4575    4572
    4581      61    4569    4566    4572      12    4569    4566    4608      13
    4566    4572    4575      14    4566    4572    4578      14    4563    4560
    4566      18    4560    4566    4569      19    4665    4671    4674       2
    4659    4653    4662       5    4656    4653    4659       5    4656    4653
    4662       5    4647    4641    4650       5    4644    4641    4647       5
    4644    4641    4650       5    4638    4635    4641       9    4638    4635
    4653       9    4635    4641    4644       9    4635    4641    4647       9
    4635    4641    4650       9    4635    4653    4656       9    4635    4653
    4659       9    4635    4653    4662       9    4632    4626    4635       9
    4629    4626    4632       5    4629    4626    4635       9    4626    4635
    4638       9    4623    4620    4626      12    4623    4620    4665      13
    4620    4626    4629      14    4620    4626    4632      14    4617    4614
    4620      18    4614    4620    4623      19    4695    4701    4704       2
    4689    4683    4692      23    4686    4683    4689      24    4686    4683
    4692      23    4680    4677    4683      12    4680    4677    4695      13
    4677    4683    4686      25    4677    4683    4689      25    4674    4671
    4677      18    4671    4677    4680      19    4716    4722    4725       2
    4713    4707    4716      13    4710    4707    4713      65    4710    4707
    4716      13    4704    4701    4707      18    4701    4707    4710      19
    4701    4707    4713      19    4749    4755    4758       2    4740    4734
    4743      29    4737    4734    4740      24    4737    4734    4743      29
    4734    4743    4746      30    4731    4728    4734      12    4731    4728
    4749      13    4728    4734    4737      25    4728    4734    4740      25
    4725    4722    4728      18    4722    4728    4731      19    4803    4809
    4812       2    4794    4791    4797      50    4791    4797    4800      51
    4788    4785    4791      52    4785    4791    4794      53    4782    4779
    4785      53    4779    4785    4788      52    4776    4779    4782      57
    4776    4797    4800      60    4773    4767    4776      61    4770    4767
    4773       5    4770    4767    4776      61    4764    4761    4767      12
    4764    4761    4803      13    4761    4767    4770      14    4761    4767
    4773      14    4758    4755    4761      18    4755    4761    4764      19
    4860    4866    4869       2    4854    4848    4857       5    4851    4848
    4854       5    4851    4848    4857       5    4842    4836    4845       5
    4839    4836    4842       5    4839    4836    4845       5    4833    4830
    4836       9    4833    4830    4848       9    4830    4836    4839       9
    4830    4836    4842       9    4830    4836    4845       9    4830    4848
    4851       9    4830    4848    4854       9    4830    4848    4857       9
    4827    4821    4830       9    4824    4821    4827       5    4824    4821
    4830       9    4821    4830    4833       9    4818    4815    4821      12
    4818    4815    4860      13    4815    4821    4824      14    4815    4821
    4827      14    4812    4809    4815      18    4809    4815    4818      19
    4908    4914    4917       2    4902    4896    4905       5    4899    4896
    4902       5    4899    4896    4905       5    4890    4884    4893       5
    4887    4884    4890       5    4887    4884    4893       5    4881    4878
    4884       9    4881    4878    4896       9    4878    4884    4887       9
    4878    4884    4890       9    4878    4884    4893       9    4878    4896
    4899       9    4878    4896    4902       9    4878    4896    4905       9
    4875    4872    4878      12    4875    4872    4908      13    4872    4878
    4881      14    4869    4866    4872      18    4866    4872    4875      19
    4965    4947    4968      43    4956    4971    4974       2    4953    4950
    4962      43    4944    4947    4965      35    4944    4947    4968      35
    4944    4950    4953      35    4944    4950    4962      35    4941    4935
    4944       4    4938    4935    4941       5    4938    4935    4944       4
    4932    4926    4935       9    4929    4926    4932       5    4929    4926
    4935       9    4926    4935    4938       9    4926    4935    4941       9
    4923    4920    4926      12    4923    4920    4956      13    4920    4926
    4929      14    4920    4926    4932      14    4917    4914    4920      18
    4914    4920    4923      19    4995    5001    5004       2    4989    4983
    4992       5    4986    4983    4989       5    4986    4983    4992       5
    4980    4977    4983      12    4980    4977    4995      13    4977    4983
    4986      14    4977    4983    4989      14    4977    4983    4992      14
    4974    4971    4977      18    4971    4977    4980      19    5052    5058
    5061       2    5046    5040    5049       5    5043    5040    5046       5
    5043    5040    5049       5    5034    5028    5037       5    5031    5028
    5034       5    5031    5028    5037       5    5025    5022    5028       9
    5025    5022    5040       9    5022    5028    5031       9    5022    5028
    5034       9    5022    5028    5037       9    5022    5040    5043       9
    5022    5040    5046       9    5022    5040    5049       9    5019    5013
    5022       9    5016    5013    5019       5    5016    5013    5022       9
    5013    5022    5025       9    5010    5007    5013      12    5010    5007
    5052      13    5007    5013    5016      14    5007    5013    5019      14
    5004    5001    5007      18    5001    5007    5010      19    5115    5121
    5124       2    5106    5103    5109      33    5103    5109    5112      33
    5094    5097    5100      35    5094    5103    5106      36    5091    5088
    5094      36    5085    5082    5088      33    5082    5088    5091      33
    5079    5082    5085      33    5079    5109    5112      33    5076    5070
    5079      40    5073    5070    5076       5    5073    5070    5079      40
    5067    5064    5070      12    5067    5064    5115      13    5064    5070
    5073      14    5064    5070    5076      14    5061    5058    5064      18
    5058    5064    5067      19    5172    5178    5181       2    5166    5160
    5169       5    5163    5160    5166       5    5163    5160    5169       5
    5154    5148    5157       5    5151    5148    5154       5    5151    5148
    5157       5    5145    5142    5148       9    5145    5142    5160       9
    5142    5148    5151       9    5142    5148    5154       9    5142    5148
    5157       9    5142    5160    5163       9    5142    5160    5166       9
    5142    5160    5169       9    5139    5133    5142       9    5136    5133
    5139       5    5136    5133    5142       9    5133    5142    5145       9
    5130    5127    5133      12    5130    5127    5172      13    5127    5133
    5136      14    5127    5133    5139      14    5124    5121    5127      18
    5121    5127    5130      19    5220    5226    5229       2    5214    5208
    5217       5    5211    5208    5214       5    5211    5208    5217       5
    5202    5196    5205       5    5199    5196    5202       5    5199    5196
    5205       5    5193    5190    5196       9    5193    5190    5208       9
    5190    5196    5199       9    5190    5196    5202       9    5190    5196
    5205       9    5190    5208    5211       9    5190    5208    5214       9
    5190    5208    5217       9    5187    5184    5190      12    5187    5184
    5220      13    5184    5190    5193      14    5181    5178    5184      18
    5178    5184    5187      19    5250    5256    5259       2    5244    5238
    5247      23    5241    5238    5244      24    5241    5238    5247      23
    5235    5232    5238      12    5235    5232    5250      13    5232    5238
    5241      25    5232    5238    5244      25    5229    5226    5232      18
    5226    5232    5235      19    5271    5277    5280       2    5268    5262
    5271      13    5265    5262    5268      65    5265    5262    5271      13
    5259    5256    5262      18    5256    5262    5265      19    5256    5262
    5268      19    5328    5310    5331      43    5319    5334    5337       2
    5316    5313    5325      43    5307    5310    5328      35    5307    5310
    5331      35    5307    5313    5316      35    5307    5313    5325      35
    5304    5298    5307       4    5301    5298    5304       5    5301    5298
    5307       4    5295    5289    5298       9    5292    5289    5295       5
    5292    5289    5298       9    5289    5298    5301       9    5289    5298
    5304       9    5286    5283    5289      12    5286    5283    5319      13
    5283    5289    5292      14    5283    5289    5295      14    5280    5277
    5283      18    5277    5283    5286      19    5400    5406    5409       2
    5394    5391    5397      66    5385    5382    5388      66    5379    5382
    5385      68    5379    5382    5388      68    5379    5391    5394      68
    5379    5391    5397      68    5376    5373    5379      68    5370    5364
    5373      69    5367    5364    5370      24    5367    5364    5373      69
    5364    5373    5376      70    5361    5355    5364       9    5358    5355
    5361       5    5358    5355    5364       9    5355    5364    5367      28
    5355    5364    5370      28    5352    5346    5355       9    5349    5346
    5352       5    5349    5346    5355       9    5346    5355    5358       9
    5346    5355    5361       9    5343    5340    5346      12    5343    5340
    5400      13    5340    5346    5349      14    5340    5346    5352      14
    5337    5334    5340      18    5334    5340    5343      19    5421    5427
    5430       2    5418    5412    5421      13    5415    5412    5418      65
    5415    5412    5421      13    5409    5406    5412      18    5406    5412
    5415      19    5406    5412    5418      19    5481    5487    5490       2
    5472    5469    5475      33    5469    5475    5478      33    5466    5463
    5469      33    5463    5469    5472      33    5460    5457    5463      33
    5457    5463    5466      33    5454    5451    5457      33    5451    5457
    5460      33    5448    5451    5454      33    5448    5475    5478      33
    5445    5439    5448      40    5442    5439    5445       5    5442    5439
    5448      40    5436    5433    5439      12    5436    5433    5481      13
    5433    5439    5442      14    5433    5439    5445      14    5430    5427
    5433      18    5427    5433    5436      19    5541    5547    5550       2
    5532    5529    5535      33    5529    5535    5538      33    5526    5523
    5529      33    5523    5529    5532      33    5520    5517    5523      33
    5517    5523    5526      33    5514    5511    5517      33    5511    5517
    5520      33    5508    5511    5514      33    5508    5535    5538      33
    5505    5499    5508      40    5502    5499    5505       5    5502    5499
    5508      40    5496    5493    5499      12    5496    5493    5541      13
    5493    5499    5502      14    5493    5499    5505      14    5490    5487
    5493      18    5487    5493    5496      19    5604    5610    5613       2
    5595    5592    5598      33    5592    5598    5601      33    5583    5586
    5589      35    5583    5592    5595      36    5580    5577    5583      36
    5574    5571    5577      33    5571    5577    5580      33    5568    5571
    5574      33    5568    5598    5601      33    5565    5559    5568      40
    5562    5559    5565       5    5562    5559    5568      40    5556    5553
    5559      12    5556    5553    5604      13    5553    5559    5562      14
    5553    5559    5565      14    5550    5547    5553      18    5547    5553
    5556      19    5646    5652    5655       2    5634    5628    5637       5
    5631    5628    5634       5    5631    5628    5637       5    5625    5622
    5628      28    5625    5622    5640      29    5622    5628    5631       9
    5622    5628    5634       9    5622    5628    5637       9    5622    5640
    5643      30    5619    5616    5622      12    5619    5616    5646      13
    5616    5622    5625      25    5613    5610    5616      18    5610    5616
    5619      19    5664    5658    5667      24    5661    5658    5664      24
    5661    5658    5667      24    5655    5652    5658      48    5652    5658
    5661      49    5652    5658    5664      49    5652    5658    5667      49
    5682    5688    5691       2    5679    5673    5682       4    5676    5673
    5679       5    5676    5673    5682       4    5670    5673    5676       5
    5670    5673    5679       5    5670    5673    5682       4    5733    5739
    5742       2    5727    5724    5730       8    5718    5724    5727       2
    5718    5724    5730       2    5715    5709    5718       4    5712    5709
    5715       5    5712    5709    5718       4    5706    5700    5709       9
    5703    5700    5706       5    5703    5700    5709       9    5700    5709
    5712       9    5700    5709    5715       9    5697    5694    5700      12
    5697    5694    5733      13    5694    5700    5703      14    5694    5700
    5706      14    5691    5688    5694      18    5688    5694    5697      19
    5763    5769    5772       2    5757    5751    5760      23    5754    5751
    5757      24    5754    5751    5760      23    5748    5745    5751      12
    5748    5745    5763      13    5745    5751    5754      25    5745    5751
    5757      25    5742    5739    5745      18    5739    5745    5748      19
    5793    5799    5802       2    5787    5781    5790      23    5784    5781
    5787      24    5784    5781    5790      23    5778    5775    5781      12
    5778    5775    5793      13    5775    5781    5784      25    5775    5781
    5787      25    5772    5769    5775      18    5769    5775    5778      19
    5835    5841    5844       2    5823    5817    5826       5    5820    5817
    5823       5    5820    5817    5826       5    5814    5811    5817      28
    5814    5811    5829      29    5811    5817    5820       9    5811    5817
    5823       9    5811    5817    5826       9    5811    5829    5832      30
    5808    5805    5811      12    5808    5805    5835      13    5805    5811
    5814      25    5802    5799    5805      18    5799    5805    5808      19
    5868    5874    5877       2    5859    5853    5862      29    5856    5853
    5859      24    5856    5853    5862      29    5853    5862    5865      30
    5850    5847    5853      12    5850    5847    5868      13    5847    5853
    5856      25    5847    5853    5859      25    5844    5841    5847      18
    5841    5847    5850      19    5925    5931    5934       2    5919    5913
    5922       5    5916    5913    5919       5    5916    5913    5922       5
    5910    5904    5913       9    5907    5904    5910       5    5907    5904
    5913       9    5904    5913    5916       9    5904    5913    5919       9
    5904    5913    5922       9    5898    5892    5901       5    5895    5892
    5898       5    5895    5892    5901       5    5889    5886    5892       9
    5889    5886    5904       9    5886    5892    5895       9    5886    5892
    5898       9    5886    5892    5901       9    5886    5904    5907       9
    5886    5904    5910       9    5883    5880    5886      12    5883    5880
    5925      13    5880    5886    5889      14    5877    5874    5880      18
    5874    5880    5883      19    5955    5961    5964       2    5949    5943
    5952      23    5946    5943    5949      24    5946    5943    5952      23
    5940    5937    5943      12    5940    5937    5955      13    5937    5943
    5946      25    5937    5943    5949      25    5934    5931    5937      18
    5931    5937    5940      19    5988    5994    5997       2    5979    5973
    5982      29    5976    5973    5979      24    5976    5973    5982      29
    5973    5982    5985      30    5970    5967    5973      12    5970    5967
    5988      13    5967    5973    5976      25    5967    5973    5979      25
    5964    5961    5967      18    5961    5967    5970      19    6045    6051
    6054       2    6039    6033    6042       5    6036    6033    6039       5
    6036    6033    6042       5    6027    6021    6030       5    6024    6021
    6027       5    6024    6021    6030       5    6018    6015    6021       9
    6018    6015    6033       9    6015    6021    6024       9    6015    6021
    6027       9    6015    6021    6030       9    6015    6033    6036       9
    6015    6033    6039       9    6015    6033    6042       9    6012    6006
    6015       9    6009    6006    6012       5    6009    6006    6015       9
    6006    6015    6018       9    6003    6000    6006      12    6003    6000
    6045      13    6000    6006    6009      14    6000    6006    6012      14
    5997    5994    6000      18    5994    6000    6003      19    6108    6114
    6117       2    6099    6096    6102      33    6096    6102    6105      33
    6087    6090    6093      35    6087    6096    6099      36    6084    6081
    6087      36    6078    6075    6081      33    6075    6081    6084      33
    6072    6075    6078      33    6072    6102    6105      33    6069    6063
    6072      40    6066    6063    6069       5    6066    6063    6072      40
    6060    6057    6063      12    6060    6057    6108      13    6057    6063
    6066      14    6057    6063    6069      14    6054    6051    6057      18
    6051    6057    6060      19    6159    6165    6168       2    6153    6150
    6156       8    6144    6150    6153       2    6144    6150    6156       2
    6141    6135    6144       4    6138    6135    6141       5    6138    6135
    6144       4    6132    6126    6135       9    6129    6126    6132       5
    6129    6126    6135       9    6126    6135    6138       9    6126    6135
    6141       9    6123    6120    6126      12    6123    6120    6159      13
    6120    6126    6129      14    6120    6126    6132      14    6117    6114
    6120      18    6114    6120    6123      19    6216    6222    6225       2
    6210    6204    6213       5    6207    6204    6210       5    6207    6204
    6213       5    6198    6192    6201       5    6195    6192    6198       5
    6195    6192    6201       5    6189    6186    6192       9    6189    6186
    6204       9    6186    6192    6195       9    6186    6192    6198       9
    6186    6192    6201       9    6186    6204    6207       9    6186    6204
    6210       9    6186    6204    6213       9    6183    6177    6186       9
    6180    6177    6183       5    6180    6177    6186       9    6177    6186
    6189       9    6174    6171    6177      12    6174    6171    6216      13
    6171    6177    6180      14    6171    6177    6183      14    6168    6165
    6171      18    6165    6171    6174      19    6273    6255    6276      43
    6264    6279    6282       2    6261    6258    6270      43    6252    6255
    6273      35    6252    6255    6276      35    6252    6258    6261      35
    6252    6258    6270      35    6249    6243    6252       4    6246    6243
    6249       5    6246    6243    6252       4    6240    6234    6243       9
    6237    6234    6240       5    6237    6234    6243       9    6234    6243
    6246       9    6234    6243    6249       9    6231    6228    6234      12
    6231    6228    6264      13    6228    6234    6237      14    6228    6234
    6240      14    6225    6222    6228      18    6222    6228    6231      19
    6315    6321    6324       2    6309    6306    6312       8    6300    6306
    6309       2    6300    6306    6312       2    6297    6291    6300       4
    6294    6291    6297       5    6294    6291    6300       4    6288    6285
    6291      12    6288    6285    6315      13    6285    6291    6294      14
    6285    6291    6297      14    6282    6279    6285      18    6279    6285
    6288      19    6378    6384    6387       2    6369    6366    6372      33
    6366    6372    6375      33    6357    6360    6363      35    6357    6366
    6369      36    6354    6351    6357      36    6348    6345    6351      33
    6345    6351    6354      33    6342    6345    6348      33    6342    6372
    6375      33    6339    6333    6342      40    6336    6333    6339       5
    6336    6333    6342      40    6330    6327    6333      12    6330    6327
    6378      13    6327    6333    6336      14    6327    6333    6339      14
    6324    6321    6327      18    6321    6327    6330      19    6408    6414
    6417       2    6402    6396    6405      23    6399    6396    6402      24
    6399    6396    6405      23    6393    6390    6396      12    6393    6390
    6408      13    6390    6396    6399      25    6390    6396    6402      25
    6387    6384    6390      18    6384    6390    6393      19    6426    6420
    6429      24    6423    6420    6426      24    6423    6420    6429      24
    6417    6414    6420      48    6414    6420    6423      49    6414    6420
    6426      49    6414    6420    6429      49    6444    6450    6453       2
    6441    6435    6444       4    6438    6435    6441       5    6438    6435
    6444       4    6432    6435    6438       5    6432    6435    6441       5
    6432    6435    6444       4    6498    6504    6507       2    6489    6486
    6492      50    6486    6492    6495      51    6483    6480    6486      52
    6480    6486    6489      53    6477    6474    6480      53    6474    6480
    6483      52    6471    6474    6477      57    6471    6492    6495      60
    6468    6462    6471      61    6465    6462    6468       5    6465    6462
    6471      61    6459    6456    6462      12    6459    6456    6498      13
    6456    6462    6465      14    6456    6462    6468      14    6453    6450
    6456      18    6450    6456    6459      19    6555    6561    6564       2
    6549    6543    6552       5    6546    6543    6549       5    6546    6543
    6552       5    6537    6531    6540       5    6534    6531    6537       5
    6534    6531    6540       5    6528    6525    6531       9    6528    6525
    6543       9    6525    6531    6534       9    6525    6531    6537       9
    6525    6531    6540       9    6525    6543    6546       9    6525    6543
    6549       9    6525    6543    6552       9    6522    6516    6525       9
    6519    6516    6522       5    6519    6516    6525       9    6516    6525
    6528       9    6513    6510    6516      12    6513    6510    6555      13
    6510    6516    6519      14    6510    6516    6522      14    6507    6504
    6510      18    6504    6510    6513      19    6585    6591    6594       2
    6579    6573    6582      23    6576    6573    6579      24    6576    6573
    6582      23    6570    6567    6573      12    6570    6567    6585      13
    6567    6573    6576      25    6567    6573    6579      25    6564    6561
    6567      18    6561    6567    6570      19    6606    6612    6615       2
    6603    6597    6606      13    6600    6597    6603      65    6600    6597
    6606      13    6594    6591    6597      18    6591    6597    6600      19
    6591    6597    6603      19    6639    6645    6648       2    6630    6624
    6633      29    6627    6624    6630      24    6627    6624    6633      29
    6624    6633    6636      30    6621    6618    6624      12    6621    6618
    6639      13    6618    6624    6627      25    6618    6624    6630      25
    6615    6612    6618      18    6612    6618    6621      19    6693    6699
    6702       2    6684    6681    6687      50    6681    6687    6690      51
    6678    6675    6681      52    6675    6681    6684      53    6672    6669
    6675      53    6669    6675    6678      52    6666    6669    6672      57
    6666    6687    6690      60    6663    6657    6666      61    6660    6657
    6663       5    6660    6657    6666      61    6654    6651    6657      12
    6654    6651    6693      13    6651    6657    6660      14    6651    6657
    6663      14    6648    6645    6651      18    6645    6651    6654      19
    6750    6756    6759       2    6744    6738    6747       5    6741    6738
    6744       5    6741    6738    6747       5    6732    6726    6735       5
    6729    6726    6732       5    6729    6726    6735       5    6723    6720
    6726       9    6723    6720    6738       9    6720    6726    6729       9
    6720    6726    6732       9    6720    6726    6735       9    6720    6738
    6741       9    6720    6738    6744       9    6720    6738    6747       9
    6717    6711    6720       9    6714    6711    6717       5    6714    6711
    6720       9    6711    6720    6723       9    6708    6705    6711      12
    6708    6705    6750      13    6705    6711    6714      14    6705    6711
    6717      14    6702    6699    6705      18    6699    6705    6708      19
    6798    6804    6807       2    6792    6786    6795       5    6789    6786
    6792       5    6789    6786    6795       5    6780    6774    6783       5
    6777    6774    6780       5    6777    6774    6783       5    6771    6768
    6774       9    6771    6768    6786       9    6768    6774    6777       9
    6768    6774    6780       9    6768    6774    6783       9    6768    6786
    6789       9    6768    6786    6792       9    6768    6786    6795       9
    6765    6762    6768      12    6765    6762    6798      13    6762    6768
    6771      14    6759    6756    6762      18    6756    6762    6765      19
    6855    6837    6858      43    6846    6861    6864       2    6843    6840
    6852      43    6834    6837    6855      35    6834    6837    6858      35
    6834    6840    6843      35    6834    6840    6852      35    6831    6825
    6834       4    6828    6825    6831       5    6828    6825    6834       4
    6822    6816    6825       9    6819    6816    6822       5    6819    6816
    6825       9    6816    6825    6828       9    6816    6825    6831       9
    6813    6810    6816      12    6813    6810    6846      13    6810    6816
    6819      14    6810    6816    6822      14    6807    6804    6810      18
    6804    6810    6813      19    6885    6891    6894       2    6879    6873
    6882       5    6876    6873    6879       5    6876    6873    6882       5
    6870    6867    6873      12    6870    6867    6885      13    6867    6873
    6876      14    6867    6873    6879      14    6867    6873    6882      14
    6864    6861    6867      18    6861    6867    6870      19    6942    6948
    6951       2    6936    6930    6939       5    6933    6930    6936       5
    6933    6930    6939       5    6924    6918    6927       5    6921    6918
    6924       5    6921    6918    6927       5    6915    6912    6918       9
    6915    6912    6930       9    6912    6918    6921       9    6912    6918
    6924       9    6912    6918    6927       9    6912    6930    6933       9
    6912    6930    6936       9    6912    6930    6939       9    6909    6903
    6912       9    6906    6903    6909       5    6906    6903    6912       9
    6903    6912    6915       9    6900    6897    6903      12    6900    6897
    6942      13    6897    6903    6906      14    6897    6903    6909      14
    6894    6891    6897      18    6891    6897    6900      19    7005    7011
    7014       2    6996    6993    6999      33    6993    6999    7002      33
    6984    6987    6990      35    6984    6993    6996      36    6981    6978
    6984      36    6975    6972    6978      33    6972    6978    6981      33
    6969    6972    6975      33    6969    6999    7002      33    6966    6960
    6969      40    6963    6960    6966       5    6963    6960    6969      40
    6957    6954    6960      12    6957    6954    7005      13    6954    6960
    6963      14    6954    6960    6966      14    6951    6948    6954      18
    6948    6954    6957      19    7062    7068    7071       2    7056    7050
    7059       5    7053    7050    7056       5    7053    7050    7059       5
    7044    7038    7047       5    7041    7038    7044       5    7041    7038
    7047       5    7035    7032    7038       9    7035    7032    7050       9
    7032    7038    7041       9    7032    7038    7044       9    7032    7038
    7047       9    7032    7050    7053       9    7032    7050    7056       9
    7032    7050    7059       9    7029    7023    7032       9    7026    7023
    7029       5    7026    7023    7032       9    7023    7032    7035       9
    7020    7017    7023      12    7020    7017    7062      13    7017    7023
    7026      14    7017    7023    7029      14    7014    7011    7017      18
    7011    7017    7020      19    7110    7116    7119       2    7104    7098
    7107       5    7101    7098    7104       5    7101    7098    7107       5
    7092    7086    7095       5    7089    7086    7092       5    7089    7086
    7095       5    7083    7080    7086       9    7083    7080    7098       9
    7080    7086    7089       9    7080    7086    7092       9    7080    7086
    7095       9    7080    7098    7101       9    7080    7098    7104       9
    7080    7098    7107       9    7077    7074    7080      12    7077    7074
    7110      13    7074    7080    7083      14    7071    7068    7074      18
    7068    7074    7077      19    7140    7146    7149       2    7134    7128
    7137      23    7131    7128    7134      24    7131    7128    7137      23
    7125    7122    7128      12    7125    7122    7140      13    7122    7128
    7131      25    7122    7128    7134      25    7119    7116    7122      18
    7116    7122    7125      19    7161    7167    7170       2    7158    7152
    7161      13    7155    7152    7158      65    7155    7152    7161      13
    7149    7146    7152      18    7146    7152    7155      19    7146    7152
    7158      19    7218    7200    7221      43    7209    7224    7227       2
    7206    7203    7215      43    7197    7200    7218      35    7197    7200
    7221      35    7197    7203    7206      35    7197    7203    7215      35
    7194    7188    7197       4    7191    7188    7194       5    7191    7188
    7197       4    7185    7179    7188       9    7182    7179    7185       5
    7182    7179    7188       9    7179    7188    7191       9    7179    7188
    7194       9    7176    7173    7179      12    7176    7173    7209      13
    7173    7179    7182      14    7173    7179    7185      14    7170    7167
    7173      18    7167    7173    7176      19    7290    7296    7299       2
    7284    7281    7287      66    7275    7272    7278      66    7269    7272
    7275      68    7269    7272    7278      68    7269    7281    7284      68
    7269    7281    7287      68    7266    7263    7269      68    7260    7254
    7263      69    7257    7254    7260      24    7257    7254    7263      69
    7254    7263    7266      70    7251    7245    7254       9    7248    7245
    7251       5    7248    7245    7254       9    7245    7254    7257      28
    7245    7254    7260      28    7242    7236    7245       9    7239    7236
    7242       5    7239    7236    7245       9    7236    7245    7248       9
    7236    7245    7251       9    7233    7230    7236      12    7233    7230
    7290      13    7230    7236    7239      14    7230    7236    7242      14
    7227    7224    7230      18    7224    7230    7233      19    7311    7317
    7320       2    7308    7302    7311      13    7305    7302    7308      65
    7305    7302    7311      13    7299    7296    7302      18    7296    7302
    7305      19    7296    7302    7308      19    7371    7377    7380       2
    7362    7359    7365      33    7359    7365    7368      33    7356    7353
    7359      33    7353    7359    7362      33    7350    7347    7353      33
    7347    7353    7356      33    7344    7341    7347      33    7341    7347
    7350      33    7338    7341    7344      33    7338    7365    7368      33
    7335    7329    7338      40    7332    7329    7335       5    7332    7329
    7338      40    7326    7323    7329      12    7326    7323    7371      13
    7323    7329    7332      14    7323    7329    7335      14    7320    7317
    7323      18    7317    7323    7326      19    7431    7437    7440       2
    7422    7419    7425      33    7419    7425    7428      33    7416    7413
    7419      33    7413    7419    7422      33    7410    7407    7413      33
    7407    7413    7416      33    7404    7401    7407      33    7401    7407
    7410      33    7398    7401    7404      33    7398    7425    7428      33
    7395    7389    7398      40    7392    7389    7395       5    7392    7389
    7398      40    7386    7383    7389      12    7386    7383    7431      13
    7383    7389    7392      14    7383    7389    7395      14    7380    7377
    7383      18    7377    7383    7386      19    7494    7500    7503       2
    7485    7482    7488      33    7482    7488    7491      33    7473    7476
    7479      35    7473    7482    7485      36    7470    7467    7473      36
    7464    7461    7467      33    7461    7467    7470      33    7458    7461
    7464      33    7458    7488    7491      33    7455    7449    7458      40
    7452    7449    7455       5    7452    7449    7458      40    7446    7443
    7449      12    7446    7443    7494      13    7443    7449    7452      14
    7443    7449    7455      14    7440    7437    7443      18    7437    7443
    7446      19    7536    7542    7545       2    7524    7518    7527       5
    7521    7518    7524       5    7521    7518    7527       5    7515    7512
    7518      28    7515    7512    7530      29    7512    7518    7521       9
    7512    7518    7524       9    7512    7518    7527       9    7512    7530
    7533      30    7509    7506    7512      12    7509    7506    7536      13
    7506    7512    7515      25    7503    7500    7506      18    7500    7506
    7509      19    7554    7548    7557      24    7551    7548    7554      24
    7551    7548    7557      24    7545    7542    7548      48    7542    7548
    7551      49    7542    7548    7554      49    7542    7548    7557      49
%FLAG ANGLES_WITHOUT_HYDROGEN                                                   
%FORMAT(10I8)                                                                   
      15      12      18       1      12      18      24       3       3      12
      15       6       3      12      18       7      66      63      69       1
      63      69      75       3      51      48      54       1      39      48
      51       6      39      48      54       7      30      24      63      10
      30      39      48      11      24      30      39      15      24      63
      66      16      24      63      69      17      18      24      30      20
      18      24      63      21      96      93      99       1      93      99
     105       3      90     282     273      22      81      75      93      10
      81      90     282      22      75      81      90      26      75      93
      96      16      75      93      99      17      69      75      81      20
      69      75      93      21     126     123     129       1     123     129
     135       3     120     912     903      22     111     105     123      10
     111     120     912      22     105     111     120      26     105     123
     126      16     105     123     129      17      99     105     111      20
      99     105     123      21     168     165     171       1     165     171
     177       3     147     141     159      27     141     135     165      10
     135     141     147      15     135     141     159      31     135     165
     168      16     135     165     171      17     129     135     141      20
     129     135     165      21     201     198     204       1     198     204
     210       3     183     177     198      10     177     183     192      31
     177     198     201      16     177     198     204      17     171     177
     183      20     171     177     198      21     258     255     261       1
     255     261     267       3     222     216     234      32     216     210
     255      10     216     234     243      32     210     216     222      15
     210     216     234      15     210     255     258      16     210     255
     261      17     204     210     216      20     204     210     255      21
     288     285     291       1     285     291     297       3     273     267
     285      10     267     273     282      26     267     285     288      16
     267     285     291      17     261     267     273      20     261     267
     285      21     321     318     324       1     318     324     330       3
     303     297     318      10     297     303     312      31     297     318
     321      16     297     318     324      17     291     297     303      20
     291     297     318      21     378     375     381       1     375     381
     387       3     351     345     363      32     336     330     375      10
     336     345     351      32     336     345     363      32     330     336
     345      15     330     375     378      16     330     375     381      17
     324     330     336      20     324     330     375      21     441     438
     444       1     438     444     450       3     420     417     426      34
     417     426     432      37     411     417     420      34     411     417
     426      38     405     402     432      39     405     411     417      37
     402     405     411      39     402     432     426      39     393     387
     438      10     393     402     405      41     393     402     432      41
     387     393     402      42     387     438     441      16     387     438
     444      17     381     387     393      20     381     387     438      21
     492     489     495       1     489     495     501       3     477     474
     480       1     465     474     477       6     465     474     480       7
     456     450     489      10     456     465     474      11     450     456
     465      15     450     489     492      16     450     489     495      17
     444     450     456      20     444     450     489      21     549     546
     552       1     546     552     558       3     522     516     534      32
     507     501     546      10     507     516     522      32     507     516
     534      32     501     507     516      15     501     546     549      16
     501     546     552      17     495     501     507      20     495     501
     546      21     597     594     609       1     594     609     615       3
     585     582     588      44     573     582     585      45     573     582
     588      45     564     558     594      10     564     573     582      11
     558     564     573      15     558     594     597      16     558     594
     609      17     552     558     564      20     552     558     594      21
     648     645     651       1     645     651     657       3     633     630
     636       1     621     615     645      10     621     630     633       6
     621     630     636       7     615     621     630      46     615     645
     648      16     615     645     651      17     609     615     621      20
     609     615     645      21     711     708     714       1     708     714
     720       3     690     687     696      34     687     696     702      37
     681     687     690      34     681     687     696      38     675     672
     702      39     675     681     687      37     672     675     681      39
     672     702     696      39     663     657     708      10     663     672
     675      41     663     672     702      41     657     663     672      42
     657     708     711      16     657     708     714      17     651     657
     663      20     651     657     708      21     741     738     744       1
     738     744     750      47     735    1467    1458      22     726     720
     738      10     726     735    1467      22     720     726     735      26
     720     738     741      16     720     738     744      17     714     720
     726      20     714     720     738      21     777     774     780       1
     774     780     786       3     765     774     777       6     765     774
     780       7     831     828     834       1     828     834     840       3
     810     816     822      54     804     801     822      55     804     810
     816      56     801     804     810      58     801     822     816      59
     792     786     828      10     792     801     804      62     792     801
     822      63     786     792     801      64     786     828     831      16
     786     828     834      17     780     786     792      20     780     786
     828      21     888     885     891       1     885     891     897       3
     861     855     873      32     846     840     885      10     846     855
     861      32     846     855     873      32     840     846     855      15
     840     885     888      16     840     885     891      17     834     840
     846      20     834     840     885      21     918     915     921       1
     915     921     927       3     903     897     915      10     897     903
     912      26     897     915     918      16     897     915     921      17
     891     897     903      20     891     897     915      21     939     936
     942       1     936     942     948       3     927     936     939      16
     927     936     942      17     921     927     936      21     972     969
     975       1     969     975     981       3     954     948     969      10
     948     954     963      31     948     969     972      16     948     969
     975      17     942     948     954      20     942     948     969      21
    1026    1023    1029       1    1023    1029    1035       3    1005    1011
    1017      54     999     996    1017      55     999    1005    1011      56
     996     999    1005      58     996    1017    1011      59     987     981
    1023      10     987     996     999      62     987     996    1017      63
     981     987     996      64     981    1023    1026      16     981    1023
    1029      17     975     981     987      20     975     981    1023      21
    1083    1080    1086       1    1080    1086    1092       3    1056    1050
    1068      32    1041    1035    1080      10    1041    1050    1056      32
    1041    1050    1068      32    1035    1041    1050      15    1035    1080
    1083      16    1035    1080    1086      17    1029    1035    1041      20
    1029    1035    1080      21    1131    1128    1134       1    1128    1134
    1140       3    1104    1098    1116      32    1098    1092    1128      10
    1092    1098    1104      15    1092    1098    1116      15    1092    1128
    1131      16    1092    1128    1134      17    1086    1092    1098      20
    1086    1092    1128      21    1179    1176    1191       1    1176    1191
    1197       3    1167    1164    1170      44    1155    1164    1167      45
    1155    1164    1170      45    1146    1140    1176      10    1146    1155
    1164      11    1140    1146    1155      15    1140    1176    1179      16
    1140    1176    1191      17    1134    1140    1146      20    1134    1140
    1176      21    1218    1215    1221       1    1215    1221    1227       3
    1203    1197    1215      10    1197    1215    1218      16    1197    1215
    1221      17    1191    1197    1203      20    1191    1197    1215      21
    1275    1272    1278       1    1272    1278    1284       3    1248    1242
    1260      32    1233    1227    1272      10    1233    1242    1248      32
    1233    1242    1260      32    1227    1233    1242      15    1227    1272
    1275      16    1227    1272    1278      17    1221    1227    1233      20
    1221    1227    1272      21    1338    1335    1341       1    1335    1341
    1347       3    1317    1314    1323      34    1314    1323    1329      37
    1308    1314    1317      34    1308    1314    1323      38    1302    1299
    1329      39    1302    1308    1314      37    1299    1302    1308      39
    1299    1329    1323      39    1290    1284    1335      10    1290    1299
    1302      41    1290    1299    1329      41    1284    1290    1299      42
    1284    1335    1338      16    1284    1335    1341      17    1278    1284
    1290      20    1278    1284    1335      21    1395    1392    1398       1
    1392    1398    1404       3    1368    1362    1380      32    1353    1347
    1392      10    1353    1362    1368      32    1353    1362    1380      32
    1347    1353    1362      15    1347    1392    1395      16    1347    1392
    1398      17    1341    1347    1353      20    1341    1347    1392      21
    1443    1440    1446       1    1440    1446    1452       3    1416    1410
    1428      32    1410    1404    1440      10    1404    1410    1416      15
    1404    1410    1428      15    1404    1440    1443      16    1404    1440
    1446      17    1398    1404    1410      20    1398    1404    1440      21
    1473    1470    1476       1    1470    1476    1482       3    1458    1452
    1470      10    1452    1458    1467      26    1452    1470    1473      16
    1452    1470    1476      17    1446    1452    1458      20    1446    1452
    1470      21    1494    1491    1497       1    1491    1497    1503       3
    1482    1491    1494      16    1482    1491    1497      17    1476    1482
    1491      21    1542    1539    1554       1    1539    1554    1560       3
    1530    1527    1533      44    1518    1527    1530      45    1518    1527
    1533      45    1509    1503    1539      10    1509    1518    1527      11
    1503    1509    1518      15    1503    1539    1542      16    1503    1539
    1554      17    1497    1503    1509      20    1497    1503    1539      21
    1623    1620    1626       1    1620    1626    1632       3    1602    1599
    1611      67    1593    1599    1602      67    1593    1599    1611      67
    1584    1593    1599      71    1575    1584    1593      72    1566    1560
    1620      10    1566    1575    1584      32    1560    1566    1575      15
    1560    1620    1623      16    1560    1620    1626      17    1554    1560
    1566      20    1554    1560    1620      21    1644    1641    1647       1
    1641    1647    1653       3    1632    1641    1644      16    1632    1641
    1647      17    1626    1632    1641      21    1704    1701    1707       1
    1701    1707    1713       3    1683    1689    1695      39    1677    1683
    1689      39    1671    1668    1695      39    1671    1677    1683      39
    1668    1671    1677      39    1668    1695    1689      39    1659    1653
    1701      10    1659    1668    1671      41    1659    1668    1695      41
    1653    1659    1668      42    1653    1701    1704      16    1653    1701
    1707      17    1647    1653    1659      20    1647    1653    1701      21
    1764    1761    1767       1    1761    1767    1773       3    1743    1749
    1755      39    1737    1743    1749      39    1731    1728    1755      39
    1731    1737    1743      39    1728    1731    1737      39    1728    1755
    1749      39    1719    1713    1761      10    1719    1728    1731      41
    1719    1728    1755      41    1713    1719    1728      42    1713    1761
    1764      16    1713    1761    1767      17    1707    1713    1719      20
    1707    1713    1761      21    1827    1824    1830       1    1824    1830
    1836       3    1806    1803    1812      34    1803    1812    1818      37
    1797    1803    1806      34    1797    1803    1812      38    1791    1788
    1818      39    1791    1797    1803      37    1788    1791    1797      39
    1788    1818    1812      39    1779    1773    1824      10    1779    1788
    1791      41    1779    1788    1818      41    1773    1779    1788      42
    1773    1824    1827      16    1773    1824    1830      17    1767    1773
    1779      20    1767    1773    1824      21    1869    1866    1872       1
    1866    1872    1878      47    1848    1842    1860      27    1842    1836
    1866      10    1836    1842    1848      15    1836    1842    1860      31
    1836    1866    1869      16    1836    1866    1872      17    1830    1836
    1842      20    1830    1836    1866      21    1905    1902    1908       1
    1902    1908    1914       3    1893    1902    1905       6    1893    1902
    1908       7    1956    1953    1959       1    1953    1959    1965       3
    1941    1938    1944       1    1929    1938    1941       6    1929    1938
    1944       7    1920    1914    1953      10    1920    1929    1938      11
    1914    1920    1929      15    1914    1953    1956      16    1914    1953
    1959      17    1908    1914    1920      20    1908    1914    1953      21
    1986    1983    1989       1    1983    1989    1995       3    1980    2172
    2163      22    1971    1965    1983      10    1971    1980    2172      22
    1965    1971    1980      26    1965    1983    1986      16    1965    1983
    1989      17    1959    1965    1971      20    1959    1965    1983      21
    2016    2013    2019       1    2013    2019    2025       3    2010    2802
    2793      22    2001    1995    2013      10    2001    2010    2802      22
    1995    2001    2010      26    1995    2013    2016      16    1995    2013
    2019      17    1989    1995    2001      20    1989    1995    2013      21
    2058    2055    2061       1    2055    2061    2067       3    2037    2031
    2049      27    2031    2025    2055      10    2025    2031    2037      15
    2025    2031    2049      31    2025    2055    2058      16    2025    2055
    2061      17    2019    2025    2031      20    2019    2025    2055      21
    2091    2088    2094       1    2088    2094    2100       3    2073    2067
    2088      10    2067    2073    2082      31    2067    2088    2091      16
    2067    2088    2094      17    2061    2067    2073      20    2061    2067
    2088      21    2148    2145    2151       1    2145    2151    2157       3
    2112    2106    2124      32    2106    2100    2145      10    2106    2124
    2133      32    2100    2106    2112      15    2100    2106    2124      15
    2100    2145    2148      16    2100    2145    2151      17    2094    2100
    2106      20    2094    2100    2145      21    2178    2175    2181       1
    2175    2181    2187       3    2163    2157    2175      10    2157    2163
    2172      26    2157    2175    2178      16    2157    2175    2181      17
    2151    2157    2163      20    2151    2157    2175      21    2211    2208
    2214       1    2208    2214    2220       3    2193    2187    2208      10
    2187    2193    2202      31    2187    2208    2211      16    2187    2208
    2214      17    2181    2187    2193      20    2181    2187    2208      21
    2268    2265    2271       1    2265    2271    2277       3    2241    2235
    2253      32    2226    2220    2265      10    2226    2235    2241      32
    2226    2235    2253      32    2220    2226    2235      15    2220    2265
    2268      16    2220    2265    2271      17    2214    2220    2226      20
    2214    2220    2265      21    2331    2328    2334       1    2328    2334
    2340       3    2310    2307    2316      34    2307    2316    2322      37
    2301    2307    2310      34    2301    2307    2316      38    2295    2292
    2322      39    2295    2301    2307      37    2292    2295    2301      39
    2292    2322    2316      39    2283    2277    2328      10    2283    2292
    2295      41    2283    2292    2322      41    2277    2283    2292      42
    2277    2328    2331      16    2277    2328    2334      17    2271    2277
    2283      20    2271    2277    2328      21    2382    2379    2385       1
    2379    2385    2391       3    2367    2364    2370       1    2355    2364
    2367       6    2355    2364    2370       7    2346    2340    2379      10
    2346    2355    2364      11    2340    2346    2355      15    2340    2379
    2382      16    2340    2379    2385      17    2334    2340    2346      20
    2334    2340    2379      21    2439    2436    2442       1    2436    2442
    2448       3    2412    2406    2424      32    2397    2391    2436      10
    2397    2406    2412      32    2397    2406    2424      32    2391    2397
    2406      15    2391    2436    2439      16    2391    2436    2442      17
    2385    2391    2397      20    2385    2391    2436      21    2487    2484
    2499       1    2484    2499    2505       3    2475    2472    2478      44
    2463    2472    2475      45    2463    2472    2478      45    2454    2448
    2484      10    2454    2463    2472      11    2448    2454    2463      15
    2448    2484    2487      16    2448    2484    2499      17    2442    2448
    2454      20    2442    2448    2484      21    2538    2535    2541       1
    2535    2541    2547       3    2523    2520    2526       1    2511    2505
    2535      10    2511    2520    2523       6    2511    2520    2526       7
    2505    2511    2520      46    2505    2535    2538      16    2505    2535
    2541      17    2499    2505    2511      20    2499    2505    2535      21
    2601    2598    2604       1    2598    2604    2610       3    2580    2577
    2586      34    2577    2586    2592      37    2571    2577    2580      34
    2571    2577    2586      38    2565    2562    2592      39    2565    2571
    2577      37    2562    2565    2571      39    2562    2592    2586      39
    2553    2547    2598      10    2553    2562    2565      41    2553    2562
    2592      41    2547    2553    2562      42    2547    2598    2601      16
    2547    2598    2604      17    2541    2547    2553      20    2541    2547
    2598      21    2631    2628    2634       1    2628    2634    2640      47
    2625    3357    3348      22    2616    2610    2628      10    2616    2625
    3357      22    2610    2616    2625      26    2610    2628    2631      16
    2610    2628    2634      17    2604    2610    2616      20    2604    2610
    2628      21    2667    2664    2670       1    2664    2670    2676       3
    2655    2664    2667       6    2655    2664    2670       7    2721    2718
    2724       1    2718    2724    2730       3    2700    2706    2712      54
    2694    2691    2712      55    2694    2700    2706      56    2691    2694
    2700      58    2691    2712    2706      59    2682    2676    2718      10
    2682    2691    2694      62    2682    2691    2712      63    2676    2682
    2691      64    2676    2718    2721      16    2676    2718    2724      17
    2670    2676    2682      20    2670    2676    2718      21    2778    2775
    2781       1    2775    2781    2787       3    2751    2745    2763      32
    2736    2730    2775      10    2736    2745    2751      32    2736    2745
    2763      32    2730    2736    2745      15    2730    2775    2778      16
    2730    2775    2781      17    2724    2730    2736      20    2724    2730
    2775      21    2808    2805    2811       1    2805    2811    2817       3
    2793    2787    2805      10    2787    2793    2802      26    2787    2805
    2808      16    2787    2805    2811      17    2781    2787    2793      20
    2781    2787    2805      21    2829    2826    2832       1    2826    2832
    2838       3    2817    2826    2829      16    2817    2826    2832      17
    2811    2817    2826      21    2862    2859    2865       1    2859    2865
    2871       3    2844    2838    2859      10    2838    2844    2853      31
    2838    2859    2862      16    2838    2859    2865      17    2832    2838
    2844      20    2832    2838    2859      21    2916    2913    2919       1
    2913    2919    2925       3    2895    2901    2907      54    2889    2886
    2907      55    2889    2895    2901      56    2886    2889    2895      58
    2886    2907    2901      59    2877    2871    2913      10    2877    2886
    2889      62    2877    2886    2907      63    2871    2877    2886      64
    2871    2913    2916      16    2871    2913    2919      17    2865    2871
    2877      20    2865    2871    2913      21    2973    2970    2976       1
    2970    2976    2982       3    2946    2940    2958      32    2931    2925
    2970      10    2931    2940    2946      32    2931    2940    2958      32
    2925    2931    2940      15    2925    2970    2973      16    2925    2970
    2976      17    2919    2925    2931      20    2919    2925    2970      21
    3021    3018    3024       1    3018    3024    3030       3    2994    2988
    3006      32    2988    2982    3018      10    2982    2988    2994      15
    2982    2988    3006      15    2982    3018    3021      16    2982    3018
    3024      17    2976    2982    2988      20    2976    2982    3018      21
    3069    3066    3081       1    3066    3081    3087       3    3057    3054
    3060      44    3045    3054    3057      45    3045    3054    3060      45
    3036    3030    3066      10    3036    3045    3054      11    3030    3036
    3045      15    3030    3066    3069      16    3030    3066    3081      17
    3024    3030    3036      20    3024    3030    3066      21    3108    3105
    3111       1    3105    3111    3117       3    3093    3087    3105      10
    3087    3105    3108      16    3087    3105    3111      17    3081    3087
    3093      20    3081    3087    3105      21    3165    3162    3168       1
    3162    3168    3174       3    3138    3132    3150      32    3123    3117
    3162      10    3123    3132    3138      32    3123    3132    3150      32
    3117    3123    3132      15    3117    3162    3165      16    3117    3162
    3168      17    3111    3117    3123      20    3111    3117    3162      21
    3228    3225    3231       1    3225    3231    3237       3    3207    3204
    3213      34    3204    3213    3219      37    3198    3204    3207      34
    3198    3204    3213      38    3192    3189    3219      39    3192    3198
    3204      37    3189    3192    3198      39    3189    3219    3213      39
    3180    3174    3225      10    3180    3189    3192      41    3180    3189
    3219      41    3174    3180    3189      42    3174    3225    3228      16
    3174    3225    3231      17    3168    3174    3180      20    3168    3174
    3225      21    3285    3282    3288       1    3282    3288    3294       3
    3258    3252    3270      32    3243    3237    3282      10    3243    3252
    3258      32    3243    3252    3270      32    3237    3243    3252      15
    3237    3282    3285      16    3237    3282    3288      17    3231    3237
    3243      20    3231    3237    3282      21    3333    3330    3336       1
    3330    3336    3342       3    3306    3300    3318      32    3300    3294
    3330      10    3294    3300    3306      15    3294    3300    3318      15
    3294    3330    3333      16    3294    3330    3336      17    3288    3294
    3300      20    3288    3294    3330      21    3363    3360    3366       1
    3360    3366    3372       3    3348    3342    3360      10    3342    3348
    3357      26    3342    3360    3363      16    3342    3360    3366      17
    3336    3342    3348      20    3336    3342    3360      21    3384    3381
    3387       1    3381    3387    3393       3    3372    3381    3384      16
    3372    3381    3387      17    3366    3372    3381      21    3432    3429
    3444       1    3429    3444    3450       3    3420    3417    3423      44
    3408    3417    3420      45    3408    3417    3423      45    3399    3393
    3429      10    3399    3408    3417      11    3393    3399    3408      15
    3393    3429    3432      16    3393    3429    3444      17    3387    3393
    3399      20    3387    3393    3429      21    3513    3510    3516       1
    3510    3516    3522       3    3492    3489    3501      67    3483    3489
    3492      67    3483    3489    3501      67    3474    3483    3489      71
    3465    3474    3483      72    3456    3450    3510      10    3456    3465
    3474      32    3450    3456    3465      15    3450    3510    3513      16
    3450    3510    3516      17    3444    3450    3456      20    3444    3450
    3510      21    3534    3531    3537       1    3531    3537    3543       3
    3522    3531    3534      16    3522    3531    3537      17    3516    3522
    3531      21    3594    3591    3597       1    3591    3597    3603       3
    3573    3579    3585      39    3567    3573    3579      39    3561    3558
    3585      39    3561    3567    3573      39    3558    3561    3567      39
    3558    3585    3579      39    3549    3543    3591      10    3549    3558
    3561      41    3549    3558    3585      41    3543    3549    3558      42
    3543    3591    3594      16    3543    3591    3597      17    3537    3543
    3549      20    3537    3543    3591      21    3654    3651    3657       1
    3651    3657    3663       3    3633    3639    3645      39    3627    3633
    3639      39    3621    3618    3645      39    3621    3627    3633      39
    3618    3621    3627      39    3618    3645    3639      39    3609    3603
    3651      10    3609    3618    3621      41    3609    3618    3645      41
    3603    3609    3618      42    3603    3651    3654      16    3603    3651
    3657      17    3597    3603    3609      20    3597    3603    3651      21
    3717    3714    3720       1    3714    3720    3726       3    3696    3693
    3702      34    3693    3702    3708      37    3687    3693    3696      34
    3687    3693    3702      38    3681    3678    3708      39    3681    3687
    3693      37    3678    3681    3687      39    3678    3708    3702      39
    3669    3663    3714      10    3669    3678    3681      41    3669    3678
    3708      41    3663    3669    3678      42    3663    3714    3717      16
    3663    3714    3720      17    3657    3663    3669      20    3657    3663
    3714      21    3759    3756    3762       1    3756    3762    3768      47
    3738    3732    3750      27    3732    3726    3756      10    3726    3732
    3738      15    3726    3732    3750      31    3726    3756    3759      16
    3726    3756    3762      17    3720    3726    3732      20    3720    3726
    3756      21    3795    3792    3798       1    3792    3798    3804       3
    3783    3792    3795       6    3783    3792    3798       7    3846    3843
    3849       1    3843    3849    3855       3    3831    3828    3834       1
    3819    3828    3831       6    3819    3828    3834       7    3810    3804
    3843      10    3810    3819    3828      11    3804    3810    3819      15
    3804    3843    3846      16    3804    3843    3849      17    3798    3804
    3810      20    3798    3804    3843      21    3876    3873    3879       1
    3873    3879    3885       3    3870    4062    4053      22    3861    3855
    3873      10    3861    3870    4062      22    3855    3861    3870      26
    3855    3873    3876      16    3855    3873    3879      17    3849    3855
    3861      20    3849    3855    3873      21    3906    3903    3909       1
    3903    3909    3915       3    3900    4692    4683      22    3891    3885
    3903      10    3891    3900    4692      22    3885    3891    3900      26
    3885    3903    3906      16    3885    3903    3909      17    3879    3885
    3891      20    3879    3885    3903      21    3948    3945    3951       1
    3945    3951    3957       3    3927    3921    3939      27    3921    3915
    3945      10    3915    3921    3927      15    3915    3921    3939      31
    3915    3945    3948      16    3915    3945    3951      17    3909    3915
    3921      20    3909    3915    3945      21    3981    3978    3984       1
    3978    3984    3990       3    3963    3957    3978      10    3957    3963
    3972      31    3957    3978    3981      16    3957    3978    3984      17
    3951    3957    3963      20    3951    3957    3978      21    4038    4035
    4041       1    4035    4041    4047       3    4002    3996    4014      32
    3996    3990    4035      10    3996    4014    4023      32    3990    3996
    4002      15    3990    3996    4014      15    3990    4035    4038      16
    3990    4035    4041      17    3984    3990    3996      20    3984    3990
    4035      21    4068    4065    4071       1    4065    4071    4077       3
    4053    4047    4065      10    4047    4053    4062      26    4047    4065
    4068      16    4047    4065    4071      17    4041    4047    4053      20
    4041    4047    4065      21    4101    4098    4104       1    4098    4104
    4110       3    4083    4077    4098      10    4077    4083    4092      31
    4077    4098    4101      16    4077    4098    4104      17    4071    4077
    4083      20    4071    4077    4098      21    4158    4155    4161       1
    4155    4161    4167       3    4131    4125    4143      32    4116    4110
    4155      10    4116    4125    4131      32    4116    4125    4143      32
    4110    4116    4125      15    4110    4155    4158      16    4110    4155
    4161      17    4104    4110    4116      20    4104    4110    4155      21
    4221    4218    4224       1    4218    4224    4230       3    4200    4197
    4206      34    4197    4206    4212      37    4191    4197    4200      34
    4191    4197    4206      38    4185    4182    4212      39    4185    4191
    4197      37    4182    4185    4191      39    4182    4212    4206      39
    4173    4167    4218      10    4173    4182    4185      41    4173    4182
    4212      41    4167    4173    4182      42    4167    4218    4221      16
    4167    4218    4224      17    4161    4167    4173      20    4161    4167
    4218      21    4272    4269    4275       1    4269    4275    4281       3
    4257    4254    4260       1    4245    4254    4257       6    4245    4254
    4260       7    4236    4230    4269      10    4236    4245    4254      11
    4230    4236    4245      15    4230    4269    4272      16    4230    4269
    4275      17    4224    4230    4236      20    4224    4230    4269      21
    4329    4326    4332       1    4326    4332    4338       3    4302    4296
    4314      32    4287    4281    4326      10    4287    4296    4302      32
    4287    4296    4314      32    4281    4287    4296      15    4281    4326
    4329      16    4281    4326    4332      17    4275    4281    4287      20
    4275    4281    4326      21    4377    4374    4389       1    4374    4389
    4395       3    4365    4362    4368      44    4353    4362    4365      45
    4353    4362    4368      45    4344    4338    4374      10    4344    4353
    4362      11    4338    4344    4353      15    4338    4374    4377      16
    4338    4374    4389      17    4332    4338    4344      20    4332    4338
    4374      21    4428    4425    4431       1    4425    4431    4437       3
    4413    4410    4416       1    4401    4395    4425      10    4401    4410
    4413       6    4401    4410    4416       7    4395    4401    4410      46
    4395    4425    4428      16    4395    4425    4431      17    4389    4395
    4401      20    4389    4395    4425      21    4491    4488    4494       1
    4488    4494    4500       3    4470    4467    4476      34    4467    4476
    4482      37    4461    4467    4470      34    4461    4467    4476      38
    4455    4452    4482      39    4455    4461    4467      37    4452    4455
    4461      39    4452    4482    4476      39    4443    4437    4488      10
    4443    4452    4455      41    4443    4452    4482      41    4437    4443
    4452      42    4437    4488    4491      16    4437    4488    4494      17
    4431    4437    4443      20    4431    4437    4488      21    4521    4518
    4524       1    4518    4524    4530      47    4515    5247    5238      22
    4506    4500    4518      10    4506    4515    5247      22    4500    4506
    4515      26    4500    4518    4521      16    4500    4518    4524      17
    4494    4500    4506      20    4494    4500    4518      21    4557    4554
    4560       1    4554    4560    4566       3    4545    4554    4557       6
    4545    4554    4560       7    4611    4608    4614       1    4608    4614
    4620       3    4590    4596    4602      54    4584    4581    4602      55
    4584    4590    4596      56    4581    4584    4590      58    4581    4602
    4596      59    4572    4566    4608      10    4572    4581    4584      62
    4572    4581    4602      63    4566    4572    4581      64    4566    4608
    4611      16    4566    4608    4614      17    4560    4566    4572      20
    4560    4566    4608      21    4668    4665    4671       1    4665    4671
    4677       3    4641    4635    4653      32    4626    4620    4665      10
    4626    4635    4641      32    4626    4635    4653      32    4620    4626
    4635      15    4620    4665    4668      16    4620    4665    4671      17
    4614    4620    4626      20    4614    4620    4665      21    4698    4695
    4701       1    4695    4701    4707       3    4683    4677    4695      10
    4677    4683    4692      26    4677    4695    4698      16    4677    4695
    4701      17    4671    4677    4683      20    4671    4677    4695      21
    4719    4716    4722       1    4716    4722    4728       3    4707    4716
    4719      16    4707    4716    4722      17    4701    4707    4716      21
    4752    4749    4755       1    4749    4755    4761       3    4734    4728
    4749      10    4728    4734    4743      31    4728    4749    4752      16
    4728    4749    4755      17    4722    4728    4734      20    4722    4728
    4749      21    4806    4803    4809       1    4803    4809    4815       3
    4785    4791    4797      54    4779    4776    4797      55    4779    4785
    4791      56    4776    4779    4785      58    4776    4797    4791      59
    4767    4761    4803      10    4767    4776    4779      62    4767    4776
    4797      63    4761    4767    4776      64    4761    4803    4806      16
    4761    4803    4809      17    4755    4761    4767      20    4755    4761
    4803      21    4863    4860    4866       1    4860    4866    4872       3
    4836    4830    4848      32    4821    4815    4860      10    4821    4830
    4836      32    4821    4830    4848      32    4815    4821    4830      15
    4815    4860    4863      16    4815    4860    4866      17    4809    4815
    4821      20    4809    4815    4860      21    4911    4908    4914       1
    4908    4914    4920       3    4884    4878    4896      32    4878    4872
    4908      10    4872    4878    4884      15    4872    4878    4896      15
    4872    4908    4911      16    4872    4908    4914      17    4866    4872
    4878      20    4866    4872    4908      21    4959    4956    4971       1
    4956    4971    4977       3    4947    4944    4950      44    4935    4944
    4947      45    4935    4944    4950      45    4926    4920    4956      10
    4926    4935    4944      11    4920    4926    4935      15    4920    4956
    4959      16    4920    4956    4971      17    4914    4920    4926      20
    4914    4920    4956      21    4998    4995    5001       1    4995    5001
    5007       3    4983    4977    4995      10    4977    4995    4998      16
    4977    4995    5001      17    4971    4977    4983      20    4971    4977
    4995      21    5055    5052    5058       1    5052    5058    5064       3
    5028    5022    5040      32    5013    5007    5052      10    5013    5022
    5028      32    5013    5022    5040      32    5007    5013    5022      15
    5007    5052    5055      16    5007    5052    5058      17    5001    5007
    5013      20    5001    5007    5052      21    5118    5115    5121       1
    5115    5121    5127       3    5097    5094    5103      34    5094    5103
    5109      37    5088    5094    5097      34    5088    5094    5103      38
    5082    5079    5109      39    5082    5088    5094      37    5079    5082
    5088      39    5079    5109    5103      39    5070    5064    5115      10
    5070    5079    5082      41    5070    5079    5109      41    5064    5070
    5079      42    5064    5115    5118      16    5064    5115    5121      17
    5058    5064    5070      20    5058    5064    5115      21    5175    5172
    5178       1    5172    5178    5184       3    5148    5142    5160      32
    5133    5127    5172      10    5133    5142    5148      32    5133    5142
    5160      32    5127    5133    5142      15    5127    5172    5175      16
    5127    5172    5178      17    5121    5127    5133      20    5121    5127
    5172      21    5223    5220    5226       1    5220    5226    5232       3
    5196    5190    5208      32    5190    5184    5220      10    5184    5190
    5196      15    5184    5190    5208      15    5184    5220    5223      16
    5184    5220    5226      17    5178    5184    5190      20    5178    5184
    5220      21    5253    5250    5256       1    5250    5256    5262       3
    5238    5232    5250      10    5232    5238    5247      26    5232    5250
    5253      16    5232    5250    5256      17    5226    5232    5238      20
    5226    5232    5250      21    5274    5271    5277       1    5271    5277
    5283       3    5262    5271    5274      16    5262    5271    5277      17
    5256    5262    5271      21    5322    5319    5334       1    5319    5334
    5340       3    5310    5307    5313      44    5298    5307    5310      45
    5298    5307    5313      45    5289    5283    5319      10    5289    5298
    5307      11    5283    5289    5298      15    5283    5319    5322      16
    5283    5319    5334      17    5277    5283    5289      20    5277    5283
    5319      21    5403    5400    5406       1    5400    5406    5412       3
    5382    5379    5391      67    5373    5379    5382      67    5373    5379
    5391      67    5364    5373    5379      71    5355    5364    5373      72
    5346    5340    5400      10    5346    5355    5364      32    5340    5346
    5355      15    5340    5400    5403      16    5340    5400    5406      17
    5334    5340    5346      20    5334    5340    5400      21    5424    5421
    5427       1    5421    5427    5433       3    5412    5421    5424      16
    5412    5421    5427      17    5406    5412    5421      21    5484    5481
    5487       1    5481    5487    5493       3    5463    5469    5475      39
    5457    5463    5469      39    5451    5448    5475      39    5451    5457
    5463      39    5448    5451    5457      39    5448    5475    5469      39
    5439    5433    5481      10    5439    5448    5451      41    5439    5448
    5475      41    5433    5439    5448      42    5433    5481    5484      16
    5433    5481    5487      17    5427    5433    5439      20    5427    5433
    5481      21    5544    5541    5547       1    5541    5547    5553       3
    5523    5529    5535      39    5517    5523    5529      39    5511    5508
    5535      39    5511    5517    5523      39    5508    5511    5517      39
    5508    5535    5529      39    5499    5493    5541      10    5499    5508
    5511      41    5499    5508    5535      41    5493    5499    5508      42
    5493    5541    5544      16    5493    5541    5547      17    5487    5493
    5499      20    5487    5493    5541      21    5607    5604    5610       1
    5604    5610    5616       3    5586    5583    5592      34    5583    5592
    5598      37    5577    5583    5586      34    5577    5583    5592      38
    5571    5568    5598      39    5571    5577    5583      37    5568    5571
    5577      39    5568    5598    5592      39    5559    5553    5604      10
    5559    5568    5571      41    5559    5568    5598      41    5553    5559
    5568      42    5553    5604    5607      16    5553    5604    5610      17
    5547    5553    5559      20    5547    5553    5604      21    5649    5646
    5652       1    5646    5652    5658      47    5628    5622    5640      27
    5622    5616    5646      10    5616    5622    5628      15    5616    5622
    5640      31    5616    5646    5649      16    5616    5646    5652      17
    5610    5616    5622      20    5610    5616    5646      21    5685    5682
    5688       1    5682    5688    5694       3    5673    5682    5685       6
    5673    5682    5688       7    5736    5733    5739       1    5733    5739
    5745       3    5721    5718    5724       1    5709    5718    5721       6
    5709    5718    5724       7    5700    5694    5733      10    5700    5709
    5718      11    5694    5700    5709      15    5694    5733    5736      16
    5694    5733    5739      17    5688    5694    5700      20    5688    5694
    5733      21    5766    5763    5769       1    5763    5769    5775       3
    5760    5952    5943      22    5751    5745    5763      10    5751    5760
    5952      22    5745    5751    5760      26    5745    5763    5766      16
    5745    5763    5769      17    5739    5745    5751      20    5739    5745
    5763      21    5796    5793    5799       1    5793    5799    5805       3
    5790    6582    6573      22    5781    5775    5793      10    5781    5790
    6582      22    5775    5781    5790      26    5775    5793    5796      16
    5775    5793    5799      17    5769    5775    5781      20    5769    5775
    5793      21    5838    5835    5841       1    5835    5841    5847       3
    5817    5811    5829      27    5811    5805    5835      10    5805    5811
    5817      15    5805    5811    5829      31    5805    5835    5838      16
    5805    5835    5841      17    5799    5805    5811      20    5799    5805
    5835      21    5871    5868    5874       1    5868    5874    5880       3
    5853    5847    5868      10    5847    5853    5862      31    5847    5868
    5871      16    5847    5868    5874      17    5841    5847    5853      20
    5841    5847    5868      21    5928    5925    5931       1    5925    5931
    5937       3    5892    5886    5904      32    5886    5880    5925      10
    5886    5904    5913      32    5880    5886    5892      15    5880    5886
    5904      15    5880    5925    5928      16    5880    5925    5931      17
    5874    5880    5886      20    5874    5880    5925      21    5958    5955
    5961       1    5955    5961    5967       3    5943    5937    5955      10
    5937    5943    5952      26    5937    5955    5958      16    5937    5955
    5961      17    5931    5937    5943      20    5931    5937    5955      21
    5991    5988    5994       1    5988    5994    6000       3    5973    5967
    5988      10    5967    5973    5982      31    5967    5988    5991      16
    5967    5988    5994      17    5961    5967    5973      20    5961    5967
    5988      21    6048    6045    6051       1    6045    6051    6057       3
    6021    6015    6033      32    6006    6000    6045      10    6006    6015
    6021      32    6006    6015    6033      32    6000    6006    6015      15
    6000    6045    6048      16    6000    6045    6051      17    5994    6000
    6006      20    5994    6000    6045      21    6111    6108    6114       1
    6108    6114    6120       3    6090    6087    6096      34    6087    6096
    6102      37    6081    6087    6090      34    6081    6087    6096      38
    6075    6072    6102      39    6075    6081    6087      37    6072    6075
    6081      39    6072    6102    6096      39    6063    6057    6108      10
    6063    6072    6075      41    6063    6072    6102      41    6057    6063
    6072      42    6057    6108    6111      16    6057    6108    6114      17
    6051    6057    6063      20    6051    6057    6108      21    6162    6159
    6165       1    6159    6165    6171       3    6147    6144    6150       1
    6135    6144    6147       6    6135    6144    6150       7    6126    6120
    6159      10    6126    6135    6144      11    6120    6126    6135      15
    6120    6159    6162      16    6120    6159    6165      17    6114    6120
    6126      20    6114    6120    6159      21    6219    6216    6222       1
    6216    6222    6228       3    6192    6186    6204      32    6177    6171
    6216      10    6177    6186    6192      32    6177    6186    6204      32
    6171    6177    6186      15    6171    6216    6219      16    6171    6216
    6222      17    6165    6171    6177      20    6165    6171    6216      21
    6267    6264    6279       1    6264    6279    6285       3    6255    6252
    6258      44    6243    6252    6255      45    6243    6252    6258      45
    6234    6228    6264      10    6234    6243    6252      11    6228    6234
    6243      15    6228    6264    6267      16    6228    6264    6279      17
    6222    6228    6234      20    6222    6228    6264      21    6318    6315
    6321       1    6315    6321    6327       3    6303    6300    6306       1
    6291    6285    6315      10    6291    6300    6303       6    6291    6300
    6306       7    6285    6291    6300      46    6285    6315    6318      16
    6285    6315    6321      17    6279    6285    6291      20    6279    6285
    6315      21    6381    6378    6384       1    6378    6384    6390       3
    6360    6357    6366      34    6357    6366    6372      37    6351    6357
    6360      34    6351    6357    6366      38    6345    6342    6372      39
    6345    6351    6357      37    6342    6345    6351      39    6342    6372
    6366      39    6333    6327    6378      10    6333    6342    6345      41
    6333    6342    6372      41    6327    6333    6342      42    6327    6378
    6381      16    6327    6378    6384      17    6321    6327    6333      20
    6321    6327    6378      21    6411    6408    6414       1    6408    6414
    6420      47    6405    7137    7128      22    6396    6390    6408      10
    6396    6405    7137      22    6390    6396    6405      26    6390    6408
    6411      16    6390    6408    6414      17    6384    6390    6396      20
    6384    6390    6408      21    6447    6444    6450       1    6444    6450
    6456       3    6435    6444    6447       6    6435    6444    6450       7
    6501    6498    6504       1    6498    6504    6510       3    6480    6486
    6492      54    6474    6471    6492      55    6474    6480    6486      56
    6471    6474    6480      58    6471    6492    6486      59    6462    6456
    6498      10    6462    6471    6474      62    6462    6471    6492      63
    6456    6462    6471      64    6456    6498    6501      16    6456    6498
    6504      17    6450    6456    6462      20    6450    6456    6498      21
    6558    6555    6561       1    6555    6561    6567       3    6531    6525
    6543      32    6516    6510    6555      10    6516    6525    6531      32
    6516    6525    6543      32    6510    6516    6525      15    6510    6555
    6558      16    6510    6555    6561      17    6504    6510    6516      20
    6504    6510    6555      21    6588    6585    6591       1    6585    6591
    6597       3    6573    6567    6585      10    6567    6573    6582      26
    6567    6585    6588      16    6567    6585    6591      17    6561    6567
    6573      20    6561    6567    6585      21    6609    6606    6612       1
    6606    6612    6618       3    6597    6606    6609      16    6597    6606
    6612      17    6591    6597    6606      21    6642    6639    6645       1
    6639    6645    6651       3    6624    6618    6639      10    6618    6624
    6633      31    6618    6639    6642      16    6618    6639    6645      17
    6612    6618    6624      20    6612    6618    6639      21    6696    6693
    6699       1    6693    6699    6705       3    6675    6681    6687      54
    6669    6666    6687      55    6669    6675    6681      56    6666    6669
    6675      58    6666    6687    6681      59    6657    6651    6693      10
    6657    6666    6669      62    6657    6666    6687      63    6651    6657
    6666      64    6651    6693    6696      16    6651    6693    6699      17
    6645    6651    6657      20    6645    6651    6693      21    6753    6750
    6756       1    6750    6756    6762       3    6726    6720    6738      32
    6711    6705    6750      10    6711    6720    6726      32    6711    6720
    6738      32    6705    6711    6720      15    6705    6750    6753      16
    6705    6750    6756      17    6699    6705    6711      20    6699    6705
    6750      21    6801    6798    6804       1    6798    6804    6810       3
    6774    6768    6786      32    6768    6762    6798      10    6762    6768
    6774      15    6762    6768    6786      15    6762    6798    6801      16
    6762    6798    6804      17    6756    6762    6768      20    6756    6762
    6798      21    6849    6846    6861       1    6846    6861    6867       3
    6837    6834    6840      44    6825    6834    6837      45    6825    6834
    6840      45    6816    6810    6846      10    6816    6825    6834      11
    6810    6816    6825      15    6810    6846    6849      16    6810    6846
    6861      17    6804    6810    6816      20    6804    6810    6846      21
    6888    6885    6891       1    6885    6891    6897       3    6873    6867
    6885      10    6867    6885    6888      16    6867    6885    6891      17
    6861    6867    6873      20    6861    6867    6885      21    6945    6942
    6948       1    6942    6948    6954       3    6918    6912    6930      32
    6903    6897    6942      10    6903    6912    6918      32    6903    6912
    6930      32    6897    6903    6912      15    6897    6942    6945      16
    6897    6942    6948      17    6891    6897    6903      20    6891    6897
    6942      21    7008    7005    7011       1    7005    7011    7017       3
    6987    6984    6993      34    6984    6993    6999      37    6978    6984
    6987      34    6978    6984    6993      38    6972    6969    6999      39
    6972    6978    6984      37    6969    6972    6978      39    6969    6999
    6993      39    6960    6954    7005      10    6960    6969    6972      41
    6960    6969    6999      41    6954    6960    6969      42    6954    7005
    7008      16    6954    7005    7011      17    6948    6954    6960      20
    6948    6954    7005      21    7065    7062    7068       1    7062    7068
    7074       3    7038    7032    7050      32    7023    7017    7062      10
    7023    7032    7038      32    7023    7032    7050      32    7017    7023
    7032      15    7017    7062    7065      16    7017    7062    7068      17
    7011    7017    7023      20    7011    7017    7062      21    7113    7110
    7116       1    7110    7116    7122       3    7086    7080    7098      32
    7080    7074    7110      10    7074    7080    7086      15    7074    7080
    7098      15    7074    7110    7113      16    7074    7110    7116      17
    7068    7074    7080      20    7068    7074    7110      21    7143    7140
    7146       1    7140    7146    7152       3    7128    7122    7140      10
    7122    7128    7137      26    7122    7140    7143      16    7122    7140
    7146      17    7116    7122    7128      20    7116    7122    7140      21
    7164    7161    7167       1    7161    7167    7173       3    7152    7161
    7164      16    7152    7161    7167      17    7146    7152    7161      21
    7212    7209    7224       1    7209    7224    7230       3    7200    7197
    7203      44    7188    7197    7200      45    7188    7197    7203      45
    7179    7173    7209      10    7179    7188    7197      11    7173    7179
    7188      15    7173    7209    7212      16    7173    7209    7224      17
    7167    7173    7179      20    7167    7173    7209      21    7293    7290
    7296       1    7290    7296    7302       3    7272    7269    7281      67
    7263    7269    7272      67    7263    7269    7281      67    7254    7263
    7269      71    7245    7254    7263      72    7236    7230    7290      10
    7236    7245    7254      32    7230    7236    7245      15    7230    7290
    7293      16    7230    7290    7296      17    7224    7230    7236      20
    7224    7230    7290      21    7314    7311    7317       1    7311    7317
    7323       3    7302    7311    7314      16    7302    7311    7317      17
    7296    7302    7311      21    7374    7371    7377       1    7371    7377
    7383       3    7353    7359    7365      39    7347    7353    7359      39
    7341    7338    7365      39    7341    7347    7353      39    7338    7341
    7347      39    7338    7365    7359      39    7329    7323    7371      10
    7329    7338    7341      41    7329    7338    7365      41    7323    7329
    7338      42    7323    7371    7374      16    7323    7371    7377      17
    7317    7323    7329      20    7317    7323    7371      21    7434    7431
    7437       1    7431    7437    7443       3    7413    7419    7425      39
    7407    7413    7419      39    7401    7398    7425      39    7401    7407
    7413      39    7398    7401    7407      39    7398    7425    7419      39
    7389    7383    7431      10    7389    7398    7401      41    7389    7398
    7425      41    7383    7389    7398      42    7383    7431    7434      16
    7383    7431    7437      17    7377    7383    7389      20    7377    7383
    7431      21    7497    7494    7500       1    7494    7500    7506       3
    7476    7473    7482      34    7473    7482    7488      37    7467    7473
    7476      34    7467    7473    7482      38    7461    7458    7488      39
    7461    7467    7473      37    7458    7461    7467      39    7458    7488
    7482      39    7449    7443    7494      10    7449    7458    7461      41
    7449    7458    7488      41    7443    7449    7458      42    7443    7494
    7497      16    7443    7494    7500      17    7437    7443    7449      20
    7437    7443    7494      21    7539    7536    7542       1    7536    7542
    7548      47    7518    7512    7530      27    7512    7506    7536      10
    7506    7512    7518      15    7506    7512    7530      31    7506    7536
    7539      16    7506    7536    7542      17    7500    7506    7512      20
    7500    7506    7536      21
%FLAG DIHEDRALS_INC_HYDROGEN                                                    
%FORMAT(10I8)                                                                   
      15      12      18      21       1      15      12     -18      21       2
      12      18      24      27       3       9       3      12      15      10
       9       3     -12      15       3       9       3     -12      15      11
       9       3      12      18       3       6       3      12      15      10
       6       3     -12      15       3       6       3     -12      15      11
       6       3      12      18       3       3      12      18      21       2
       0       3      12      15      10       0       3     -12      15       3
       0       3     -12      15      11       0       3      12      18       3
      66      63      69      72       1      66      63     -69      72       2
      63      69      75      78       3      51      48      54      57       1
      51      48     -54      57       2      51      48      54      60       1
      51      48     -54      60       2      45      39      48      51      10
      45      39     -48      51       3      45      39     -48      51      11
      45      39      48      54       3      42      39      48      51      10
      42      39     -48      51       3      42      39     -48      51      11
      42      39      48      54       3      39      48      54      57       2
      39      48      54      60       2      36      30      24      63      12
      36      30      39      42      13      36      30      39      45      13
      36      30      39      48      12      33      30      24      63      12
      33      30      39      42      13      33      30      39      45      13
      33      30      39      48      12      27      24      30      33      12
      27      24      30      36      12      27      24      30      39      12
      27      24      63      66      10      27      24     -63      66       3
      27      24     -63      66      11      27      24      63      69       3
      24      30      39      42      16      24      30      39      45      16
      24      63      69      72       2      21      18      24      27       3
      21      18      24      30       3      21      18      24      63       3
      18      24      30      33      12      18      24      30      36      12
      96      93      99     102       1      96      93     -99     102       2
      93      99     105     108       3      90     282     273     276      20
      90     282     273     279      20      87      81      75      93      12
      87      81      90     282      20      84      81      75      93      12
      84      81      90     282      20      78      75      81      84      12
      78      75      81      87      12      78      75      81      90      12
      78      75      93      96      10      78      75     -93      96       3
      78      75     -93      96      11      78      75      93      99       3
      75      93      99     102       2      72      69      75      78       3
      72      69      75      81       3      72      69      75      93       3
      69      75      81      84      12      69      75      81      87      12
     126     123     129     132       1     126     123    -129     132       2
     123     129     135     138       3     120     912     903     906      20
     120     912     903     909      20     117     111     105     123      12
     117     111     120     912      20     114     111     105     123      12
     114     111     120     912      20     108     105     111     114      12
     108     105     111     117      12     108     105     111     120      12
     108     105     123     126      10     108     105    -123     126       3
     108     105    -123     126      11     108     105     123     129       3
     105     123     129     132       2     102      99     105     108       3
     102      99     105     111       3     102      99     105     123       3
      99     105     111     114      12      99     105     111     117      12
     168     165     171     174       1     168     165    -171     174       2
     165     171     177     180       3     156     147     141     159      23
     156     147    -141     159      24     153     147     141     159      23
     153     147    -141     159      24     150     147     141     159      23
     150     147    -141     159      24     147     141     159     162      23
     147     141    -159     162      16     144     141     135     165      12
     144     141     147     150      12     144     141     147     153      12
     144     141     147     156      12     144     141     159     162      25
     138     135     141     144      12     138     135     141     147      12
     138     135     141     159      23     138     135    -141     159      24
     138     135     165     168      10     138     135    -165     168       3
     138     135    -165     168      11     138     135     165     171       3
     135     141     147     150      16     135     141     147     153      16
     135     141     147     156      16     135     141     159     162      23
     135     141    -159     162      16     135     165     171     174       2
     132     129     135     138       3     132     129     135     141       3
     132     129     135     165       3     129     135     141     144      12
     201     198     204     207       1     201     198    -204     207       2
     198     204     210     213       3     189     183     177     198      12
     189     183     192     195      25     186     183     177     198      12
     186     183     192     195      25     180     177     183     186      12
     180     177     183     189      12     180     177     183     192      23
     180     177    -183     192      24     180     177     198     201      10
     180     177    -198     201       3     180     177    -198     201      11
     180     177     198     204       3     177     183     192     195      23
     177     183    -192     195      16     177     198     204     207       2
     174     171     177     180       3     174     171     177     183       3
     174     171     177     198       3     171     177     183     186      12
     171     177     183     189      12     258     255     261     264       1
     258     255    -261     264       2     255     261     267     270       3
     240     234     243     246      13     240     234     243     249      13
     240     234     243     252      13     237     234     243     246      13
     237     234     243     249      13     237     234     243     252      13
     231     222     216     234      16     228     222     216     234      16
     225     222     216     234      16     222     216     234     237      16
     222     216     234     240      16     219     216     210     255      12
     219     216     222     225      13     219     216     222     228      13
     219     216     222     231      13     219     216     234     237      13
     219     216     234     240      13     219     216     234     243      16
     216     234     243     246      16     216     234     243     249      16
     216     234     243     252      16     213     210     216     219      12
     213     210     216     222      12     213     210     216     234      12
     213     210     255     258      10     213     210    -255     258       3
     213     210    -255     258      11     213     210     255     261       3
     210     216     222     225      16     210     216     222     228      16
     210     216     222     231      16     210     216     234     237      16
     210     216     234     240      16     210     255     261     264       2
     207     204     210     213       3     207     204     210     216       3
     207     204     210     255       3     204     210     216     219      12
     288     285     291     294       1     288     285    -291     294       2
     285     291     297     300       3     279     273     267     285      12
     276     273     267     285      12     270     267     273     276      12
     270     267     273     279      12     270     267     273     282      12
     270     267     285     288      10     270     267    -285     288       3
     270     267    -285     288      11     270     267     285     291       3
     267     285     291     294       2     264     261     267     270       3
     264     261     267     273       3     264     261     267     285       3
     261     267     273     276      12     261     267     273     279      12
     321     318     324     327       1     321     318    -324     327       2
     318     324     330     333       3     309     303     297     318      12
     309     303     312     315      25     306     303     297     318      12
     306     303     312     315      25     300     297     303     306      12
     300     297     303     309      12     300     297     303     312      23
     300     297    -303     312      24     300     297     318     321      10
     300     297    -318     321       3     300     297    -318     321      11
     300     297     318     324       3     297     303     312     315      23
     297     303    -312     315      16     297     318     324     327       2
     294     291     297     300       3     294     291     297     303       3
     294     291     297     318       3     291     297     303     306      12
     291     297     303     309      12     378     375     381     384       1
     378     375    -381     384       2     375     381     387     390       3
     360     351     345     363      16     357     351     345     363      16
     354     351     345     363      16     351     345     363     366      16
     351     345     363     369      16     351     345     363     372      16
     348     345     351     354      13     348     345     351     357      13
     348     345     351     360      13     348     345     363     366      13
     348     345     363     369      13     348     345     363     372      13
     342     336     330     375      12     342     336     345     348      13
     342     336     345     351      16     342     336     345     363      16
     339     336     330     375      12     339     336     345     348      13
     339     336     345     351      16     339     336     345     363      16
     336     345     351     354      16     336     345     351     357      16
     336     345     351     360      16     336     345     363     366      16
     336     345     363     369      16     336     345     363     372      16
     333     330     336     339      12     333     330     336     342      12
     333     330     336     345      12     333     330     375     378      10
     333     330    -375     378       3     333     330    -375     378      11
     333     330     375     381       3     330     336     345     348      16
     330     375     381     384       2     327     324     330     333       3
     327     324     330     336       3     327     324     330     375       3
     324     330     336     339      12     324     330     336     342      12
     441     438     444     447       1     441     438    -444     447       2
     438     444     450     453       3     429     426     432     435      29
     423     420     417     426      30     420     417     426     429      29
     417     426     432     435      29     414     411     417     420      29
     414     411     417     426      29     411     417     420     423      30
     411     417     426     429      29     408     405     402     432      29
     408     405     411     414      29     408     405     411     417      29
     405     402     432     435      29     402     405     411     414      29
     402     432     426     429      29     399     393     387     438      12
     399     393     402     405       3     399     393     402     432       3
     396     393     387     438      12     396     393     402     405       3
     396     393     402     432       3     393     402     405     408      29
     393     402     432     435      29     390     387     393     396      12
     390     387     393     399      12     390     387     393     402      12
     390     387     438     441      10     390     387    -438     441       3
     390     387    -438     441      11     390     387     438     444       3
     387     438     444     447       2     384     381     387     390       3
     384     381     387     393       3     384     381     387     438       3
     381     387     393     396      12     381     387     393     399      12
     492     489     495     498       1     492     489    -495     498       2
     489     495     501     504       3     477     474     480     483       1
     477     474    -480     483       2     477     474     480     486       1
     477     474    -480     486       2     471     465     474     477      10
     471     465    -474     477       3     471     465    -474     477      11
     471     465     474     480       3     468     465     474     477      10
     468     465    -474     477       3     468     465    -474     477      11
     468     465     474     480       3     465     474     480     483       2
     465     474     480     486       2     462     456     450     489      12
     462     456     465     468      13     462     456     465     471      13
     462     456     465     474      12     459     456     450     489      12
     459     456     465     468      13     459     456     465     471      13
     459     456     465     474      12     453     450     456     459      12
     453     450     456     462      12     453     450     456     465      12
     453     450     489     492      10     453     450    -489     492       3
     453     450    -489     492      11     453     450     489     495       3
     450     456     465     468      16     450     456     465     471      16
     450     489     495     498       2     447     444     450     453       3
     447     444     450     456       3     447     444     450     489       3
     444     450     456     459      12     444     450     456     462      12
     549     546     552     555       1     549     546    -552     555       2
     546     552     558     561       3     531     522     516     534      16
     528     522     516     534      16     525     522     516     534      16
     522     516     534     537      16     522     516     534     540      16
     522     516     534     543      16     519     516     522     525      13
     519     516     522     528      13     519     516     522     531      13
     519     516     534     537      13     519     516     534     540      13
     519     516     534     543      13     513     507     501     546      12
     513     507     516     519      13     513     507     516     522      16
     513     507     516     534      16     510     507     501     546      12
     510     507     516     519      13     510     507     516     522      16
     510     507     516     534      16     507     516     522     525      16
     507     516     522     528      16     507     516     522     531      16
     507     516     534     537      16     507     516     534     540      16
     507     516     534     543      16     504     501     507     510      12
     504     501     507     513      12     504     501     507     516      12
     504     501     546     549      10     504     501    -546     549       3
     504     501    -546     549      11     504     501     546     552       3
     501     507     516     519      16     501     546     552     555       2
     498     495     501     504       3     498     495     501     507       3
     498     495     501     546       3     495     501     507     510      12
     495     501     507     513      12     597     594     609     612       1
     597     594    -609     612       2     594     609     615     618       3
     588     582     585     603      30     588     582     585     606      30
     585     582     588     591      30     585     582     588     600      30
     579     573     582     585       3     579     573     582     588       3
     576     573     582     585       3     576     573     582     588       3
     573     582     585     603      30     573     582     585     606      30
     573     582     588     591      30     573     582     588     600      30
     570     564     558     594      12     570     564     573     576      13
     570     564     573     579      13     570     564     573     582      12
     567     564     558     594      12     567     564     573     576      13
     567     564     573     579      13     567     564     573     582      12
     561     558     564     567      12     561     558     564     570      12
     561     558     564     573      12     561     558     594     597      10
     561     558    -594     597       3     561     558    -594     597      11
     561     558     594     609       3     558     564     573     576      16
     558     564     573     579      16     558     594     609     612       2
     555     552     558     561       3     555     552     558     564       3
     555     552     558     594       3     552     558     564     567      12
     552     558     564     570      12     648     645     651     654       1
     648     645    -651     654       2     645     651     657     660       3
     633     630     636     639       1     633     630    -636     639       2
     633     630     636     642       1     633     630    -636     642       2
     627     621     615     645      12     627     621     630     633      10
     627     621    -630     633       3     627     621    -630     633      11
     627     621     630     636       3     624     621     615     645      12
     624     621     630     633      10     624     621    -630     633       3
     624     621    -630     633      11     624     621     630     636       3
     621     630     636     639       2     621     630     636     642       2
     618     615     621     624      12     618     615     621     627      12
     618     615     621     630      12     618     615     645     648      10
     618     615    -645     648       3     618     615    -645     648      11
     618     615     645     651       3     615     645     651     654       2
     612     609     615     618       3     612     609     615     621       3
     612     609     615     645       3     609     615     621     624      12
     609     615     621     627      12     711     708     714     717       1
     711     708    -714     717       2     708     714     720     723       3
     699     696     702     705      29     693     690     687     696      30
     690     687     696     699      29     687     696     702     705      29
     684     681     687     690      29     684     681     687     696      29
     681     687     690     693      30     681     687     696     699      29
     678     675     672     702      29     678     675     681     684      29
     678     675     681     687      29     675     672     702     705      29
     672     675     681     684      29     672     702     696     699      29
     669     663     657     708      12     669     663     672     675       3
     669     663     672     702       3     666     663     657     708      12
     666     663     672     675       3     666     663     672     702       3
     663     672     675     678      29     663     672     702     705      29
     660     657     663     666      12     660     657     663     669      12
     660     657     663     672      12     660     657     708     711      10
     660     657    -708     711       3     660     657    -708     711      11
     660     657     708     714       3     657     708     714     717       2
     654     651     657     660       3     654     651     657     663       3
     654     651     657     708       3     651     657     663     666      12
     651     657     663     669      12     741     738     744     747       1
     741     738    -744     747       2     738     744     750     753       3
     738     744     750     756       3     738     744     750     759       3
     735    1467    1458    1461      20     735    1467    1458    1464      20
     732     726     720     738      12     732     726     735    1467      20
     729     726     720     738      12     729     726     735    1467      20
     723     720     726     729      12     723     720     726     732      12
     723     720     726     735      12     723     720     738     741      10
     723     720    -738     741       3     723     720    -738     741      11
     723     720     738     744       3     720     738     744     747       2
     717     714     720     723       3     717     714     720     726       3
     717     714     720     738       3     714     720     726     729      12
     714     720     726     732      12     747     744     750     753       3
     747     744     750     756       3     747     744     750     759       3
     777     774     780     783       1     777     774    -780     783       2
     774     780     786     789       3     771     765     774     777      10
     771     765    -774     777       3     771     765    -774     777      11
     771     765     774     780       3     768     765     774     777      10
     768     765    -774     777       3     768     765    -774     777      11
     768     765     774     780       3     765     774     780     783       2
     762     765     774     777      10     762     765    -774     777       3
     762     765    -774     777      11     762     765     774     780       3
     831     828     834     837       1     831     828    -834     837       2
     828     834     840     843       3     819     816     822     825      31
     813     810     816     819      32     813     810     816     822      32
     810     816     822     825      31     807     804     801     822      33
     807     804     810     813      32     807     804     810     816      32
     804     801     822     825      34     804     810     816     819      32
     801     804     810     813      32     801     822     816     819      31
     798     792     786     828      12     798     792     801     804       3
     798     792     801     822       3     795     792     786     828      12
     795     792     801     804       3     795     792     801     822       3
     792     801     804     807      33     792     801     822     825      34
     789     786     792     795      12     789     786     792     798      12
     789     786     792     801      12     789     786     828     831      10
     789     786    -828     831       3     789     786    -828     831      11
     789     786     828     834       3     786     828     834     837       2
     783     780     786     789       3     783     780     786     792       3
     783     780     786     828       3     780     786     792     795      12
     780     786     792     798      12     888     885     891     894       1
     888     885    -891     894       2     885     891     897     900       3
     870     861     855     873      16     867     861     855     873      16
     864     861     855     873      16     861     855     873     876      16
     861     855     873     879      16     861     855     873     882      16
     858     855     861     864      13     858     855     861     867      13
     858     855     861     870      13     858     855     873     876      13
     858     855     873     879      13     858     855     873     882      13
     852     846     840     885      12     852     846     855     858      13
     852     846     855     861      16     852     846     855     873      16
     849     846     840     885      12     849     846     855     858      13
     849     846     855     861      16     849     846     855     873      16
     846     855     861     864      16     846     855     861     867      16
     846     855     861     870      16     846     855     873     876      16
     846     855     873     879      16     846     855     873     882      16
     843     840     846     849      12     843     840     846     852      12
     843     840     846     855      12     843     840     885     888      10
     843     840    -885     888       3     843     840    -885     888      11
     843     840     885     891       3     840     846     855     858      16
     840     885     891     894       2     837     834     840     843       3
     837     834     840     846       3     837     834     840     885       3
     834     840     846     849      12     834     840     846     852      12
     918     915     921     924       1     918     915    -921     924       2
     915     921     927     930       3     915     921     927     933       3
     909     903     897     915      12     906     903     897     915      12
     900     897     903     906      12     900     897     903     909      12
     900     897     903     912      12     900     897     915     918      10
     900     897    -915     918       3     900     897    -915     918      11
     900     897     915     921       3     897     915     921     924       2
     894     891     897     900       3     894     891     897     903       3
     894     891     897     915       3     891     897     903     906      12
     891     897     903     909      12     939     936     942     945       1
     939     936    -942     945       2     936     942     948     951       3
     933     927     936     939      10     933     927    -936     939       3
     933     927    -936     939      11     933     927     936     942       3
     930     927     936     939      10     930     927    -936     939       3
     930     927    -936     939      11     930     927     936     942       3
     927     936     942     945       2     924     921     927     930       3
     924     921     927     933       3     924     921     927     936       3
     972     969     975     978       1     972     969    -975     978       2
     969     975     981     984       3     960     954     948     969      12
     960     954     963     966      25     957     954     948     969      12
     957     954     963     966      25     951     948     954     957      12
     951     948     954     960      12     951     948     954     963      23
     951     948    -954     963      24     951     948     969     972      10
     951     948    -969     972       3     951     948    -969     972      11
     951     948     969     975       3     948     954     963     966      23
     948     954    -963     966      16     948     969     975     978       2
     945     942     948     951       3     945     942     948     954       3
     945     942     948     969       3     942     948     954     957      12
     942     948     954     960      12    1026    1023    1029    1032       1
    1026    1023   -1029    1032       2    1023    1029    1035    1038       3
    1014    1011    1017    1020      31    1008    1005    1011    1014      32
    1008    1005    1011    1017      32    1005    1011    1017    1020      31
    1002     999     996    1017      33    1002     999    1005    1008      32
    1002     999    1005    1011      32     999     996    1017    1020      34
     999    1005    1011    1014      32     996     999    1005    1008      32
     996    1017    1011    1014      31     993     987     981    1023      12
     993     987     996     999       3     993     987     996    1017       3
     990     987     981    1023      12     990     987     996     999       3
     990     987     996    1017       3     987     996     999    1002      33
     987     996    1017    1020      34     984     981     987     990      12
     984     981     987     993      12     984     981     987     996      12
     984     981    1023    1026      10     984     981   -1023    1026       3
     984     981   -1023    1026      11     984     981    1023    1029       3
     981    1023    1029    1032       2     978     975     981     984       3
     978     975     981     987       3     978     975     981    1023       3
     975     981     987     990      12     975     981     987     993      12
    1083    1080    1086    1089       1    1083    1080   -1086    1089       2
    1080    1086    1092    1095       3    1065    1056    1050    1068      16
    1062    1056    1050    1068      16    1059    1056    1050    1068      16
    1056    1050    1068    1071      16    1056    1050    1068    1074      16
    1056    1050    1068    1077      16    1053    1050    1056    1059      13
    1053    1050    1056    1062      13    1053    1050    1056    1065      13
    1053    1050    1068    1071      13    1053    1050    1068    1074      13
    1053    1050    1068    1077      13    1047    1041    1035    1080      12
    1047    1041    1050    1053      13    1047    1041    1050    1056      16
    1047    1041    1050    1068      16    1044    1041    1035    1080      12
    1044    1041    1050    1053      13    1044    1041    1050    1056      16
    1044    1041    1050    1068      16    1041    1050    1056    1059      16
    1041    1050    1056    1062      16    1041    1050    1056    1065      16
    1041    1050    1068    1071      16    1041    1050    1068    1074      16
    1041    1050    1068    1077      16    1038    1035    1041    1044      12
    1038    1035    1041    1047      12    1038    1035    1041    1050      12
    1038    1035    1080    1083      10    1038    1035   -1080    1083       3
    1038    1035   -1080    1083      11    1038    1035    1080    1086       3
    1035    1041    1050    1053      16    1035    1080    1086    1089       2
    1032    1029    1035    1038       3    1032    1029    1035    1041       3
    1032    1029    1035    1080       3    1029    1035    1041    1044      12
    1029    1035    1041    1047      12    1131    1128    1134    1137       1
    1131    1128   -1134    1137       2    1128    1134    1140    1143       3
    1113    1104    1098    1116      16    1110    1104    1098    1116      16
    1107    1104    1098    1116      16    1104    1098    1116    1119      16
    1104    1098    1116    1122      16    1104    1098    1116    1125      16
    1101    1098    1092    1128      12    1101    1098    1104    1107      13
    1101    1098    1104    1110      13    1101    1098    1104    1113      13
    1101    1098    1116    1119      13    1101    1098    1116    1122      13
    1101    1098    1116    1125      13    1095    1092    1098    1101      12
    1095    1092    1098    1104      12    1095    1092    1098    1116      12
    1095    1092    1128    1131      10    1095    1092   -1128    1131       3
    1095    1092   -1128    1131      11    1095    1092    1128    1134       3
    1092    1098    1104    1107      16    1092    1098    1104    1110      16
    1092    1098    1104    1113      16    1092    1098    1116    1119      16
    1092    1098    1116    1122      16    1092    1098    1116    1125      16
    1092    1128    1134    1137       2    1089    1086    1092    1095       3
    1089    1086    1092    1098       3    1089    1086    1092    1128       3
    1086    1092    1098    1101      12    1179    1176    1191    1194       1
    1179    1176   -1191    1194       2    1176    1191    1197    1200       3
    1170    1164    1167    1185      30    1170    1164    1167    1188      30
    1167    1164    1170    1173      30    1167    1164    1170    1182      30
    1161    1155    1164    1167       3    1161    1155    1164    1170       3
    1158    1155    1164    1167       3    1158    1155    1164    1170       3
    1155    1164    1167    1185      30    1155    1164    1167    1188      30
    1155    1164    1170    1173      30    1155    1164    1170    1182      30
    1152    1146    1140    1176      12    1152    1146    1155    1158      13
    1152    1146    1155    1161      13    1152    1146    1155    1164      12
    1149    1146    1140    1176      12    1149    1146    1155    1158      13
    1149    1146    1155    1161      13    1149    1146    1155    1164      12
    1143    1140    1146    1149      12    1143    1140    1146    1152      12
    1143    1140    1146    1155      12    1143    1140    1176    1179      10
    1143    1140   -1176    1179       3    1143    1140   -1176    1179      11
    1143    1140    1176    1191       3    1140    1146    1155    1158      16
    1140    1146    1155    1161      16    1140    1176    1191    1194       2
    1137    1134    1140    1143       3    1137    1134    1140    1146       3
    1137    1134    1140    1176       3    1134    1140    1146    1149      12
    1134    1140    1146    1152      12    1218    1215    1221    1224       1
    1218    1215   -1221    1224       2    1215    1221    1227    1230       3
    1212    1203    1197    1215      12    1209    1203    1197    1215      12
    1206    1203    1197    1215      12    1200    1197    1203    1206      12
    1200    1197    1203    1209      12    1200    1197    1203    1212      12
    1200    1197    1215    1218      10    1200    1197   -1215    1218       3
    1200    1197   -1215    1218      11    1200    1197    1215    1221       3
    1197    1215    1221    1224       2    1194    1191    1197    1200       3
    1194    1191    1197    1203       3    1194    1191    1197    1215       3
    1191    1197    1203    1206      12    1191    1197    1203    1209      12
    1191    1197    1203    1212      12    1275    1272    1278    1281       1
    1275    1272   -1278    1281       2    1272    1278    1284    1287       3
    1257    1248    1242    1260      16    1254    1248    1242    1260      16
    1251    1248    1242    1260      16    1248    1242    1260    1263      16
    1248    1242    1260    1266      16    1248    1242    1260    1269      16
    1245    1242    1248    1251      13    1245    1242    1248    1254      13
    1245    1242    1248    1257      13    1245    1242    1260    1263      13
    1245    1242    1260    1266      13    1245    1242    1260    1269      13
    1239    1233    1227    1272      12    1239    1233    1242    1245      13
    1239    1233    1242    1248      16    1239    1233    1242    1260      16
    1236    1233    1227    1272      12    1236    1233    1242    1245      13
    1236    1233    1242    1248      16    1236    1233    1242    1260      16
    1233    1242    1248    1251      16    1233    1242    1248    1254      16
    1233    1242    1248    1257      16    1233    1242    1260    1263      16
    1233    1242    1260    1266      16    1233    1242    1260    1269      16
    1230    1227    1233    1236      12    1230    1227    1233    1239      12
    1230    1227    1233    1242      12    1230    1227    1272    1275      10
    1230    1227   -1272    1275       3    1230    1227   -1272    1275      11
    1230    1227    1272    1278       3    1227    1233    1242    1245      16
    1227    1272    1278    1281       2    1224    1221    1227    1230       3
    1224    1221    1227    1233       3    1224    1221    1227    1272       3
    1221    1227    1233    1236      12    1221    1227    1233    1239      12
    1338    1335    1341    1344       1    1338    1335   -1341    1344       2
    1335    1341    1347    1350       3    1326    1323    1329    1332      29
    1320    1317    1314    1323      30    1317    1314    1323    1326      29
    1314    1323    1329    1332      29    1311    1308    1314    1317      29
    1311    1308    1314    1323      29    1308    1314    1317    1320      30
    1308    1314    1323    1326      29    1305    1302    1299    1329      29
    1305    1302    1308    1311      29    1305    1302    1308    1314      29
    1302    1299    1329    1332      29    1299    1302    1308    1311      29
    1299    1329    1323    1326      29    1296    1290    1284    1335      12
    1296    1290    1299    1302       3    1296    1290    1299    1329       3
    1293    1290    1284    1335      12    1293    1290    1299    1302       3
    1293    1290    1299    1329       3    1290    1299    1302    1305      29
    1290    1299    1329    1332      29    1287    1284    1290    1293      12
    1287    1284    1290    1296      12    1287    1284    1290    1299      12
    1287    1284    1335    1338      10    1287    1284   -1335    1338       3
    1287    1284   -1335    1338      11    1287    1284    1335    1341       3
    1284    1335    1341    1344       2    1281    1278    1284    1287       3
    1281    1278    1284    1290       3    1281    1278    1284    1335       3
    1278    1284    1290    1293      12    1278    1284    1290    1296      12
    1395    1392    1398    1401       1    1395    1392   -1398    1401       2
    1392    1398    1404    1407       3    1377    1368    1362    1380      16
    1374    1368    1362    1380      16    1371    1368    1362    1380      16
    1368    1362    1380    1383      16    1368    1362    1380    1386      16
    1368    1362    1380    1389      16    1365    1362    1368    1371      13
    1365    1362    1368    1374      13    1365    1362    1368    1377      13
    1365    1362    1380    1383      13    1365    1362    1380    1386      13
    1365    1362    1380    1389      13    1359    1353    1347    1392      12
    1359    1353    1362    1365      13    1359    1353    1362    1368      16
    1359    1353    1362    1380      16    1356    1353    1347    1392      12
    1356    1353    1362    1365      13    1356    1353    1362    1368      16
    1356    1353    1362    1380      16    1353    1362    1368    1371      16
    1353    1362    1368    1374      16    1353    1362    1368    1377      16
    1353    1362    1380    1383      16    1353    1362    1380    1386      16
    1353    1362    1380    1389      16    1350    1347    1353    1356      12
    1350    1347    1353    1359      12    1350    1347    1353    1362      12
    1350    1347    1392    1395      10    1350    1347   -1392    1395       3
    1350    1347   -1392    1395      11    1350    1347    1392    1398       3
    1347    1353    1362    1365      16    1347    1392    1398    1401       2
    1344    1341    1347    1350       3    1344    1341    1347    1353       3
    1344    1341    1347    1392       3    1341    1347    1353    1356      12
    1341    1347    1353    1359      12    1443    1440    1446    1449       1
    1443    1440   -1446    1449       2    1440    1446    1452    1455       3
    1425    1416    1410    1428      16    1422    1416    1410    1428      16
    1419    1416    1410    1428      16    1416    1410    1428    1431      16
    1416    1410    1428    1434      16    1416    1410    1428    1437      16
    1413    1410    1404    1440      12    1413    1410    1416    1419      13
    1413    1410    1416    1422      13    1413    1410    1416    1425      13
    1413    1410    1428    1431      13    1413    1410    1428    1434      13
    1413    1410    1428    1437      13    1407    1404    1410    1413      12
    1407    1404    1410    1416      12    1407    1404    1410    1428      12
    1407    1404    1440    1443      10    1407    1404   -1440    1443       3
    1407    1404   -1440    1443      11    1407    1404    1440    1446       3
    1404    1410    1416    1419      16    1404    1410    1416    1422      16
    1404    1410    1416    1425      16    1404    1410    1428    1431      16
    1404    1410    1428    1434      16    1404    1410    1428    1437      16
    1404    1440    1446    1449       2    1401    1398    1404    1407       3
    1401    1398    1404    1410       3    1401    1398    1404    1440       3
    1398    1404    1410    1413      12    1473    1470    1476    1479       1
    1473    1470   -1476    1479       2    1470    1476    1482    1485       3
    1470    1476    1482    1488       3    1464    1458    1452    1470      12
    1461    1458    1452    1470      12    1455    1452    1458    1461      12
    1455    1452    1458    1464      12    1455    1452    1458    1467      12
    1455    1452    1470    1473      10    1455    1452   -1470    1473       3
    1455    1452   -1470    1473      11    1455    1452    1470    1476       3
    1452    1470    1476    1479       2    1449    1446    1452    1455       3
    1449    1446    1452    1458       3    1449    1446    1452    1470       3
    1446    1452    1458    1461      12    1446    1452    1458    1464      12
    1494    1491    1497    1500       1    1494    1491   -1497    1500       2
    1491    1497    1503    1506       3    1488    1482    1491    1494      10
    1488    1482   -1491    1494       3    1488    1482   -1491    1494      11
    1488    1482    1491    1497       3    1485    1482    1491    1494      10
    1485    1482   -1491    1494       3    1485    1482   -1491    1494      11
    1485    1482    1491    1497       3    1482    1491    1497    1500       2
    1479    1476    1482    1485       3    1479    1476    1482    1488       3
    1479    1476    1482    1491       3    1542    1539    1554    1557       1
    1542    1539   -1554    1557       2    1539    1554    1560    1563       3
    1533    1527    1530    1548      30    1533    1527    1530    1551      30
    1530    1527    1533    1536      30    1530    1527    1533    1545      30
    1524    1518    1527    1530       3    1524    1518    1527    1533       3
    1521    1518    1527    1530       3    1521    1518    1527    1533       3
    1518    1527    1530    1548      30    1518    1527    1530    1551      30
    1518    1527    1533    1536      30    1518    1527    1533    1545      30
    1515    1509    1503    1539      12    1515    1509    1518    1521      13
    1515    1509    1518    1524      13    1515    1509    1518    1527      12
    1512    1509    1503    1539      12    1512    1509    1518    1521      13
    1512    1509    1518    1524      13    1512    1509    1518    1527      12
    1506    1503    1509    1512      12    1506    1503    1509    1515      12
    1506    1503    1509    1518      12    1506    1503    1539    1542      10
    1506    1503   -1539    1542       3    1506    1503   -1539    1542      11
    1506    1503    1539    1554       3    1503    1509    1518    1521      16
    1503    1509    1518    1524      16    1503    1539    1554    1557       2
    1500    1497    1503    1506       3    1500    1497    1503    1509       3
    1500    1497    1503    1539       3    1497    1503    1509    1512      12
    1497    1503    1509    1515      12    1623    1620    1626    1629       1
    1623    1620   -1626    1629       2    1620    1626    1632    1635       3
    1620    1626    1632    1638       3    1608    1602    1599    1611      35
    1605    1602    1599    1611      35    1602    1599    1611    1614      35
    1602    1599    1611    1617      35    1596    1593    1599    1602      35
    1596    1593    1599    1611      35    1593    1599    1602    1605      35
    1593    1599    1602    1608      35    1593    1599    1611    1614      35
    1593    1599    1611    1617      35    1590    1584    1593    1596      24
    1590    1584    1593    1599      24    1587    1584    1593    1596      24
    1587    1584    1593    1599      24    1581    1575    1584    1587      12
    1581    1575    1584    1590      12    1581    1575    1584    1593      12
    1578    1575    1584    1587      12    1578    1575    1584    1590      12
    1578    1575    1584    1593      12    1575    1584    1593    1596      24
    1572    1566    1560    1620      12    1572    1566    1575    1578      13
    1572    1566    1575    1581      13    1572    1566    1575    1584      16
    1569    1566    1560    1620      12    1569    1566    1575    1578      13
    1569    1566    1575    1581      13    1569    1566    1575    1584      16
    1566    1575    1584    1587      12    1566    1575    1584    1590      12
    1563    1560    1566    1569      12    1563    1560    1566    1572      12
    1563    1560    1566    1575      12    1563    1560    1620    1623      10
    1563    1560   -1620    1623       3    1563    1560   -1620    1623      11
    1563    1560    1620    1626       3    1560    1566    1575    1578      16
    1560    1566    1575    1581      16    1560    1620    1626    1629       2
    1557    1554    1560    1563       3    1557    1554    1560    1566       3
    1557    1554    1560    1620       3    1554    1560    1566    1569      12
    1554    1560    1566    1572      12    1644    1641    1647    1650       1
    1644    1641   -1647    1650       2    1641    1647    1653    1656       3
    1638    1632    1641    1644      10    1638    1632   -1641    1644       3
    1638    1632   -1641    1644      11    1638    1632    1641    1647       3
    1635    1632    1641    1644      10    1635    1632   -1641    1644       3
    1635    1632   -1641    1644      11    1635    1632    1641    1647       3
    1632    1641    1647    1650       2    1629    1626    1632    1635       3
    1629    1626    1632    1638       3    1629    1626    1632    1641       3
    1704    1701    1707    1710       1    1704    1701   -1707    1710       2
    1701    1707    1713    1716       3    1692    1689    1695    1698      29
    1686    1683    1689    1692      29    1686    1683    1689    1695      29
    1683    1689    1695    1698      29    1680    1677    1683    1686      29
    1680    1677    1683    1689      29    1677    1683    1689    1692      29
    1674    1671    1668    1695      29    1674    1671    1677    1680      29
    1674    1671    1677    1683      29    1671    1668    1695    1698      29
    1671    1677    1683    1686      29    1668    1671    1677    1680      29
    1668    1695    1689    1692      29    1665    1659    1653    1701      12
    1665    1659    1668    1671       3    1665    1659    1668    1695       3
    1662    1659    1653    1701      12    1662    1659    1668    1671       3
    1662    1659    1668    1695       3    1659    1668    1671    1674      29
    1659    1668    1695    1698      29    1656    1653    1659    1662      12
    1656    1653    1659    1665      12    1656    1653    1659    1668      12
    1656    1653    1701    1704      10    1656    1653   -1701    1704       3
    1656    1653   -1701    1704      11    1656    1653    1701    1707       3
    1653    1701    1707    1710       2    1650    1647    1653    1656       3
    1650    1647    1653    1659       3    1650    1647    1653    1701       3
    1647    1653    1659    1662      12    1647    1653    1659    1665      12
    1764    1761    1767    1770       1    1764    1761   -1767    1770       2
    1761    1767    1773    1776       3    1752    1749    1755    1758      29
    1746    1743    1749    1752      29    1746    1743    1749    1755      29
    1743    1749    1755    1758      29    1740    1737    1743    1746      29
    1740    1737    1743    1749      29    1737    1743    1749    1752      29
    1734    1731    1728    1755      29    1734    1731    1737    1740      29
    1734    1731    1737    1743      29    1731    1728    1755    1758      29
    1731    1737    1743    1746      29    1728    1731    1737    1740      29
    1728    1755    1749    1752      29    1725    1719    1713    1761      12
    1725    1719    1728    1731       3    1725    1719    1728    1755       3
    1722    1719    1713    1761      12    1722    1719    1728    1731       3
    1722    1719    1728    1755       3    1719    1728    1731    1734      29
    1719    1728    1755    1758      29    1716    1713    1719    1722      12
    1716    1713    1719    1725      12    1716    1713    1719    1728      12
    1716    1713    1761    1764      10    1716    1713   -1761    1764       3
    1716    1713   -1761    1764      11    1716    1713    1761    1767       3
    1713    1761    1767    1770       2    1710    1707    1713    1716       3
    1710    1707    1713    1719       3    1710    1707    1713    1761       3
    1707    1713    1719    1722      12    1707    1713    1719    1725      12
    1827    1824    1830    1833       1    1827    1824   -1830    1833       2
    1824    1830    1836    1839       3    1815    1812    1818    1821      29
    1809    1806    1803    1812      30    1806    1803    1812    1815      29
    1803    1812    1818    1821      29    1800    1797    1803    1806      29
    1800    1797    1803    1812      29    1797    1803    1806    1809      30
    1797    1803    1812    1815      29    1794    1791    1788    1818      29
    1794    1791    1797    1800      29    1794    1791    1797    1803      29
    1791    1788    1818    1821      29    1788    1791    1797    1800      29
    1788    1818    1812    1815      29    1785    1779    1773    1824      12
    1785    1779    1788    1791       3    1785    1779    1788    1818       3
    1782    1779    1773    1824      12    1782    1779    1788    1791       3
    1782    1779    1788    1818       3    1779    1788    1791    1794      29
    1779    1788    1818    1821      29    1776    1773    1779    1782      12
    1776    1773    1779    1785      12    1776    1773    1779    1788      12
    1776    1773    1824    1827      10    1776    1773   -1824    1827       3
    1776    1773   -1824    1827      11    1776    1773    1824    1830       3
    1773    1824    1830    1833       2    1770    1767    1773    1776       3
    1770    1767    1773    1779       3    1770    1767    1773    1824       3
    1767    1773    1779    1782      12    1767    1773    1779    1785      12
    1869    1866    1872    1875       1    1869    1866   -1872    1875       2
    1866    1872    1878    1881       3    1866    1872    1878    1884       3
    1866    1872    1878    1887       3    1857    1848    1842    1860      23
    1857    1848   -1842    1860      24    1854    1848    1842    1860      23
    1854    1848   -1842    1860      24    1851    1848    1842    1860      23
    1851    1848   -1842    1860      24    1848    1842    1860    1863      23
    1848    1842   -1860    1863      16    1845    1842    1836    1866      12
    1845    1842    1848    1851      12    1845    1842    1848    1854      12
    1845    1842    1848    1857      12    1845    1842    1860    1863      25
    1839    1836    1842    1845      12    1839    1836    1842    1848      12
    1839    1836    1842    1860      23    1839    1836   -1842    1860      24
    1839    1836    1866    1869      10    1839    1836   -1866    1869       3
    1839    1836   -1866    1869      11    1839    1836    1866    1872       3
    1836    1842    1848    1851      16    1836    1842    1848    1854      16
    1836    1842    1848    1857      16    1836    1842    1860    1863      23
    1836    1842   -1860    1863      16    1836    1866    1872    1875       2
    1833    1830    1836    1839       3    1833    1830    1836    1842       3
    1833    1830    1836    1866       3    1830    1836    1842    1845      12
    1875    1872    1878    1881       3    1875    1872    1878    1884       3
    1875    1872    1878    1887       3    1905    1902    1908    1911       1
    1905    1902   -1908    1911       2    1902    1908    1914    1917       3
    1899    1893    1902    1905      10    1899    1893   -1902    1905       3
    1899    1893   -1902    1905      11    1899    1893    1902    1908       3
    1896    1893    1902    1905      10    1896    1893   -1902    1905       3
    1896    1893   -1902    1905      11    1896    1893    1902    1908       3
    1893    1902    1908    1911       2    1890    1893    1902    1905      10
    1890    1893   -1902    1905       3    1890    1893   -1902    1905      11
    1890    1893    1902    1908       3    1956    1953    1959    1962       1
    1956    1953   -1959    1962       2    1953    1959    1965    1968       3
    1941    1938    1944    1947       1    1941    1938   -1944    1947       2
    1941    1938    1944    1950       1    1941    1938   -1944    1950       2
    1935    1929    1938    1941      10    1935    1929   -1938    1941       3
    1935    1929   -1938    1941      11    1935    1929    1938    1944       3
    1932    1929    1938    1941      10    1932    1929   -1938    1941       3
    1932    1929   -1938    1941      11    1932    1929    1938    1944       3
    1929    1938    1944    1947       2    1929    1938    1944    1950       2
    1926    1920    1914    1953      12    1926    1920    1929    1932      13
    1926    1920    1929    1935      13    1926    1920    1929    1938      12
    1923    1920    1914    1953      12    1923    1920    1929    1932      13
    1923    1920    1929    1935      13    1923    1920    1929    1938      12
    1917    1914    1920    1923      12    1917    1914    1920    1926      12
    1917    1914    1920    1929      12    1917    1914    1953    1956      10
    1917    1914   -1953    1956       3    1917    1914   -1953    1956      11
    1917    1914    1953    1959       3    1914    1920    1929    1932      16
    1914    1920    1929    1935      16    1914    1953    1959    1962       2
    1911    1908    1914    1917       3    1911    1908    1914    1920       3
    1911    1908    1914    1953       3    1908    1914    1920    1923      12
    1908    1914    1920    1926      12    1986    1983    1989    1992       1
    1986    1983   -1989    1992       2    1983    1989    1995    1998       3
    1980    2172    2163    2166      20    1980    2172    2163    2169      20
    1977    1971    1965    1983      12    1977    1971    1980    2172      20
    1974    1971    1965    1983      12    1974    1971    1980    2172      20
    1968    1965    1971    1974      12    1968    1965    1971    1977      12
    1968    1965    1971    1980      12    1968    1965    1983    1986      10
    1968    1965   -1983    1986       3    1968    1965   -1983    1986      11
    1968    1965    1983    1989       3    1965    1983    1989    1992       2
    1962    1959    1965    1968       3    1962    1959    1965    1971       3
    1962    1959    1965    1983       3    1959    1965    1971    1974      12
    1959    1965    1971    1977      12    2016    2013    2019    2022       1
    2016    2013   -2019    2022       2    2013    2019    2025    2028       3
    2010    2802    2793    2796      20    2010    2802    2793    2799      20
    2007    2001    1995    2013      12    2007    2001    2010    2802      20
    2004    2001    1995    2013      12    2004    2001    2010    2802      20
    1998    1995    2001    2004      12    1998    1995    2001    2007      12
    1998    1995    2001    2010      12    1998    1995    2013    2016      10
    1998    1995   -2013    2016       3    1998    1995   -2013    2016      11
    1998    1995    2013    2019       3    1995    2013    2019    2022       2
    1992    1989    1995    1998       3    1992    1989    1995    2001       3
    1992    1989    1995    2013       3    1989    1995    2001    2004      12
    1989    1995    2001    2007      12    2058    2055    2061    2064       1
    2058    2055   -2061    2064       2    2055    2061    2067    2070       3
    2046    2037    2031    2049      23    2046    2037   -2031    2049      24
    2043    2037    2031    2049      23    2043    2037   -2031    2049      24
    2040    2037    2031    2049      23    2040    2037   -2031    2049      24
    2037    2031    2049    2052      23    2037    2031   -2049    2052      16
    2034    2031    2025    2055      12    2034    2031    2037    2040      12
    2034    2031    2037    2043      12    2034    2031    2037    2046      12
    2034    2031    2049    2052      25    2028    2025    2031    2034      12
    2028    2025    2031    2037      12    2028    2025    2031    2049      23
    2028    2025   -2031    2049      24    2028    2025    2055    2058      10
    2028    2025   -2055    2058       3    2028    2025   -2055    2058      11
    2028    2025    2055    2061       3    2025    2031    2037    2040      16
    2025    2031    2037    2043      16    2025    2031    2037    2046      16
    2025    2031    2049    2052      23    2025    2031   -2049    2052      16
    2025    2055    2061    2064       2    2022    2019    2025    2028       3
    2022    2019    2025    2031       3    2022    2019    2025    2055       3
    2019    2025    2031    2034      12    2091    2088    2094    2097       1
    2091    2088   -2094    2097       2    2088    2094    2100    2103       3
    2079    2073    2067    2088      12    2079    2073    2082    2085      25
    2076    2073    2067    2088      12    2076    2073    2082    2085      25
    2070    2067    2073    2076      12    2070    2067    2073    2079      12
    2070    2067    2073    2082      23    2070    2067   -2073    2082      24
    2070    2067    2088    2091      10    2070    2067   -2088    2091       3
    2070    2067   -2088    2091      11    2070    2067    2088    2094       3
    2067    2073    2082    2085      23    2067    2073   -2082    2085      16
    2067    2088    2094    2097       2    2064    2061    2067    2070       3
    2064    2061    2067    2073       3    2064    2061    2067    2088       3
    2061    2067    2073    2076      12    2061    2067    2073    2079      12
    2148    2145    2151    2154       1    2148    2145   -2151    2154       2
    2145    2151    2157    2160       3    2130    2124    2133    2136      13
    2130    2124    2133    2139      13    2130    2124    2133    2142      13
    2127    2124    2133    2136      13    2127    2124    2133    2139      13
    2127    2124    2133    2142      13    2121    2112    2106    2124      16
    2118    2112    2106    2124      16    2115    2112    2106    2124      16
    2112    2106    2124    2127      16    2112    2106    2124    2130      16
    2109    2106    2100    2145      12    2109    2106    2112    2115      13
    2109    2106    2112    2118      13    2109    2106    2112    2121      13
    2109    2106    2124    2127      13    2109    2106    2124    2130      13
    2109    2106    2124    2133      16    2106    2124    2133    2136      16
    2106    2124    2133    2139      16    2106    2124    2133    2142      16
    2103    2100    2106    2109      12    2103    2100    2106    2112      12
    2103    2100    2106    2124      12    2103    2100    2145    2148      10
    2103    2100   -2145    2148       3    2103    2100   -2145    2148      11
    2103    2100    2145    2151       3    2100    2106    2112    2115      16
    2100    2106    2112    2118      16    2100    2106    2112    2121      16
    2100    2106    2124    2127      16    2100    2106    2124    2130      16
    2100    2145    2151    2154       2    2097    2094    2100    2103       3
    2097    2094    2100    2106       3    2097    2094    2100    2145       3
    2094    2100    2106    2109      12    2178    2175    2181    2184       1
    2178    2175   -2181    2184       2    2175    2181    2187    2190       3
    2169    2163    2157    2175      12    2166    2163    2157    2175      12
    2160    2157    2163    2166      12    2160    2157    2163    2169      12
    2160    2157    2163    2172      12    2160    2157    2175    2178      10
    2160    2157   -2175    2178       3    2160    2157   -2175    2178      11
    2160    2157    2175    2181       3    2157    2175    2181    2184       2
    2154    2151    2157    2160       3    2154    2151    2157    2163       3
    2154    2151    2157    2175       3    2151    2157    2163    2166      12
    2151    2157    2163    2169      12    2211    2208    2214    2217       1
    2211    2208   -2214    2217       2    2208    2214    2220    2223       3
    2199    2193    2187    2208      12    2199    2193    2202    2205      25
    2196    2193    2187    2208      12    2196    2193    2202    2205      25
    2190    2187    2193    2196      12    2190    2187    2193    2199      12
    2190    2187    2193    2202      23    2190    2187   -2193    2202      24
    2190    2187    2208    2211      10    2190    2187   -2208    2211       3
    2190    2187   -2208    2211      11    2190    2187    2208    2214       3
    2187    2193    2202    2205      23    2187    2193   -2202    2205      16
    2187    2208    2214    2217       2    2184    2181    2187    2190       3
    2184    2181    2187    2193       3    2184    2181    2187    2208       3
    2181    2187    2193    2196      12    2181    2187    2193    2199      12
    2268    2265    2271    2274       1    2268    2265   -2271    2274       2
    2265    2271    2277    2280       3    2250    2241    2235    2253      16
    2247    2241    2235    2253      16    2244    2241    2235    2253      16
    2241    2235    2253    2256      16    2241    2235    2253    2259      16
    2241    2235    2253    2262      16    2238    2235    2241    2244      13
    2238    2235    2241    2247      13    2238    2235    2241    2250      13
    2238    2235    2253    2256      13    2238    2235    2253    2259      13
    2238    2235    2253    2262      13    2232    2226    2220    2265      12
    2232    2226    2235    2238      13    2232    2226    2235    2241      16
    2232    2226    2235    2253      16    2229    2226    2220    2265      12
    2229    2226    2235    2238      13    2229    2226    2235    2241      16
    2229    2226    2235    2253      16    2226    2235    2241    2244      16
    2226    2235    2241    2247      16    2226    2235    2241    2250      16
    2226    2235    2253    2256      16    2226    2235    2253    2259      16
    2226    2235    2253    2262      16    2223    2220    2226    2229      12
    2223    2220    2226    2232      12    2223    2220    2226    2235      12
    2223    2220    2265    2268      10    2223    2220   -2265    2268       3
    2223    2220   -2265    2268      11    2223    2220    2265    2271       3
    2220    2226    2235    2238      16    2220    2265    2271    2274       2
    2217    2214    2220    2223       3    2217    2214    2220    2226       3
    2217    2214    2220    2265       3    2214    2220    2226    2229      12
    2214    2220    2226    2232      12    2331    2328    2334    2337       1
    2331    2328   -2334    2337       2    2328    2334    2340    2343       3
    2319    2316    2322    2325      29    2313    2310    2307    2316      30
    2310    2307    2316    2319      29    2307    2316    2322    2325      29
    2304    2301    2307    2310      29    2304    2301    2307    2316      29
    2301    2307    2310    2313      30    2301    2307    2316    2319      29
    2298    2295    2292    2322      29    2298    2295    2301    2304      29
    2298    2295    2301    2307      29    2295    2292    2322    2325      29
    2292    2295    2301    2304      29    2292    2322    2316    2319      29
    2289    2283    2277    2328      12    2289    2283    2292    2295       3
    2289    2283    2292    2322       3    2286    2283    2277    2328      12
    2286    2283    2292    2295       3    2286    2283    2292    2322       3
    2283    2292    2295    2298      29    2283    2292    2322    2325      29
    2280    2277    2283    2286      12    2280    2277    2283    2289      12
    2280    2277    2283    2292      12    2280    2277    2328    2331      10
    2280    2277   -2328    2331       3    2280    2277   -2328    2331      11
    2280    2277    2328    2334       3    2277    2328    2334    2337       2
    2274    2271    2277    2280       3    2274    2271    2277    2283       3
    2274    2271    2277    2328       3    2271    2277    2283    2286      12
    2271    2277    2283    2289      12    2382    2379    2385    2388       1
    2382    2379   -2385    2388       2    2379    2385    2391    2394       3
    2367    2364    2370    2373       1    2367    2364   -2370    2373       2
    2367    2364    2370    2376       1    2367    2364   -2370    2376       2
    2361    2355    2364    2367      10    2361    2355   -2364    2367       3
    2361    2355   -2364    2367      11    2361    2355    2364    2370       3
    2358    2355    2364    2367      10    2358    2355   -2364    2367       3
    2358    2355   -2364    2367      11    2358    2355    2364    2370       3
    2355    2364    2370    2373       2    2355    2364    2370    2376       2
    2352    2346    2340    2379      12    2352    2346    2355    2358      13
    2352    2346    2355    2361      13    2352    2346    2355    2364      12
    2349    2346    2340    2379      12    2349    2346    2355    2358      13
    2349    2346    2355    2361      13    2349    2346    2355    2364      12
    2343    2340    2346    2349      12    2343    2340    2346    2352      12
    2343    2340    2346    2355      12    2343    2340    2379    2382      10
    2343    2340   -2379    2382       3    2343    2340   -2379    2382      11
    2343    2340    2379    2385       3    2340    2346    2355    2358      16
    2340    2346    2355    2361      16    2340    2379    2385    2388       2
    2337    2334    2340    2343       3    2337    2334    2340    2346       3
    2337    2334    2340    2379       3    2334    2340    2346    2349      12
    2334    2340    2346    2352      12    2439    2436    2442    2445       1
    2439    2436   -2442    2445       2    2436    2442    2448    2451       3
    2421    2412    2406    2424      16    2418    2412    2406    2424      16
    2415    2412    2406    2424      16    2412    2406    2424    2427      16
    2412    2406    2424    2430      16    2412    2406    2424    2433      16
    2409    2406    2412    2415      13    2409    2406    2412    2418      13
    2409    2406    2412    2421      13    2409    2406    2424    2427      13
    2409    2406    2424    2430      13    2409    2406    2424    2433      13
    2403    2397    2391    2436      12    2403    2397    2406    2409      13
    2403    2397    2406    2412      16    2403    2397    2406    2424      16
    2400    2397    2391    2436      12    2400    2397    2406    2409      13
    2400    2397    2406    2412      16    2400    2397    2406    2424      16
    2397    2406    2412    2415      16    2397    2406    2412    2418      16
    2397    2406    2412    2421      16    2397    2406    2424    2427      16
    2397    2406    2424    2430      16    2397    2406    2424    2433      16
    2394    2391    2397    2400      12    2394    2391    2397    2403      12
    2394    2391    2397    2406      12    2394    2391    2436    2439      10
    2394    2391   -2436    2439       3    2394    2391   -2436    2439      11
    2394    2391    2436    2442       3    2391    2397    2406    2409      16
    2391    2436    2442    2445       2    2388    2385    2391    2394       3
    2388    2385    2391    2397       3    2388    2385    2391    2436       3
    2385    2391    2397    2400      12    2385    2391    2397    2403      12
    2487    2484    2499    2502       1    2487    2484   -2499    2502       2
    2484    2499    2505    2508       3    2478    2472    2475    2493      30
    2478    2472    2475    2496      30    2475    2472    2478    2481      30
    2475    2472    2478    2490      30    2469    2463    2472    2475       3
    2469    2463    2472    2478       3    2466    2463    2472    2475       3
    2466    2463    2472    2478       3    2463    2472    2475    2493      30
    2463    2472    2475    2496      30    2463    2472    2478    2481      30
    2463    2472    2478    2490      30    2460    2454    2448    2484      12
    2460    2454    2463    2466      13    2460    2454    2463    2469      13
    2460    2454    2463    2472      12    2457    2454    2448    2484      12
    2457    2454    2463    2466      13    2457    2454    2463    2469      13
    2457    2454    2463    2472      12    2451    2448    2454    2457      12
    2451    2448    2454    2460      12    2451    2448    2454    2463      12
    2451    2448    2484    2487      10    2451    2448   -2484    2487       3
    2451    2448   -2484    2487      11    2451    2448    2484    2499       3
    2448    2454    2463    2466      16    2448    2454    2463    2469      16
    2448    2484    2499    2502       2    2445    2442    2448    2451       3
    2445    2442    2448    2454       3    2445    2442    2448    2484       3
    2442    2448    2454    2457      12    2442    2448    2454    2460      12
    2538    2535    2541    2544       1    2538    2535   -2541    2544       2
    2535    2541    2547    2550       3    2523    2520    2526    2529       1
    2523    2520   -2526    2529       2    2523    2520    2526    2532       1
    2523    2520   -2526    2532       2    2517    2511    2505    2535      12
    2517    2511    2520    2523      10    2517    2511   -2520    2523       3
    2517    2511   -2520    2523      11    2517    2511    2520    2526       3
    2514    2511    2505    2535      12    2514    2511    2520    2523      10
    2514    2511   -2520    2523       3    2514    2511   -2520    2523      11
    2514    2511    2520    2526       3    2511    2520    2526    2529       2
    2511    2520    2526    2532       2    2508    2505    2511    2514      12
    2508    2505    2511    2517      12    2508    2505    2511    2520      12
    2508    2505    2535    2538      10    2508    2505   -2535    2538       3
    2508    2505   -2535    2538      11    2508    2505    2535    2541       3
    2505    2535    2541    2544       2    2502    2499    2505    2508       3
    2502    2499    2505    2511       3    2502    2499    2505    2535       3
    2499    2505    2511    2514      12    2499    2505    2511    2517      12
    2601    2598    2604    2607       1    2601    2598   -2604    2607       2
    2598    2604    2610    2613       3    2589    2586    2592    2595      29
    2583    2580    2577    2586      30    2580    2577    2586    2589      29
    2577    2586    2592    2595      29    2574    2571    2577    2580      29
    2574    2571    2577    2586      29    2571    2577    2580    2583      30
    2571    2577    2586    2589      29    2568    2565    2562    2592      29
    2568    2565    2571    2574      29    2568    2565    2571    2577      29
    2565    2562    2592    2595      29    2562    2565    2571    2574      29
    2562    2592    2586    2589      29    2559    2553    2547    2598      12
    2559    2553    2562    2565       3    2559    2553    2562    2592       3
    2556    2553    2547    2598      12    2556    2553    2562    2565       3
    2556    2553    2562    2592       3    2553    2562    2565    2568      29
    2553    2562    2592    2595      29    2550    2547    2553    2556      12
    2550    2547    2553    2559      12    2550    2547    2553    2562      12
    2550    2547    2598    2601      10    2550    2547   -2598    2601       3
    2550    2547   -2598    2601      11    2550    2547    2598    2604       3
    2547    2598    2604    2607       2    2544    2541    2547    2550       3
    2544    2541    2547    2553       3    2544    2541    2547    2598       3
    2541    2547    2553    2556      12    2541    2547    2553    2559      12
    2631    2628    2634    2637       1    2631    2628   -2634    2637       2
    2628    2634    2640    2643       3    2628    2634    2640    2646       3
    2628    2634    2640    2649       3    2625    3357    3348    3351      20
    2625    3357    3348    3354      20    2622    2616    2610    2628      12
    2622    2616    2625    3357      20    2619    2616    2610    2628      12
    2619    2616    2625    3357      20    2613    2610    2616    2619      12
    2613    2610    2616    2622      12    2613    2610    2616    2625      12
    2613    2610    2628    2631      10    2613    2610   -2628    2631       3
    2613    2610   -2628    2631      11    2613    2610    2628    2634       3
    2610    2628    2634    2637       2    2607    2604    2610    2613       3
    2607    2604    2610    2616       3    2607    2604    2610    2628       3
    2604    2610    2616    2619      12    2604    2610    2616    2622      12
    2637    2634    2640    2643       3    2637    2634    2640    2646       3
    2637    2634    2640    2649       3    2667    2664    2670    2673       1
    2667    2664   -2670    2673       2    2664    2670    2676    2679       3
    2661    2655    2664    2667      10    2661    2655   -2664    2667       3
    2661    2655   -2664    2667      11    2661    2655    2664    2670       3
    2658    2655    2664    2667      10    2658    2655   -2664    2667       3
    2658    2655   -2664    2667      11    2658    2655    2664    2670       3
    2655    2664    2670    2673       2    2652    2655    2664    2667      10
    2652    2655   -2664    2667       3    2652    2655   -2664    2667      11
    2652    2655    2664    2670       3    2721    2718    2724    2727       1
    2721    2718   -2724    2727       2    2718    2724    2730    2733       3
    2709    2706    2712    2715      31    2703    2700    2706    2709      32
    2703    2700    2706    2712      32    2700    2706    2712    2715      31
    2697    2694    2691    2712      33    2697    2694    2700    2703      32
    2697    2694    2700    2706      32    2694    2691    2712    2715      34
    2694    2700    2706    2709      32    2691    2694    2700    2703      32
    2691    2712    2706    2709      31    2688    2682    2676    2718      12
    2688    2682    2691    2694       3    2688    2682    2691    2712       3
    2685    2682    2676    2718      12    2685    2682    2691    2694       3
    2685    2682    2691    2712       3    2682    2691    2694    2697      33
    2682    2691    2712    2715      34    2679    2676    2682    2685      12
    2679    2676    2682    2688      12    2679    2676    2682    2691      12
    2679    2676    2718    2721      10    2679    2676   -2718    2721       3
    2679    2676   -2718    2721      11    2679    2676    2718    2724       3
    2676    2718    2724    2727       2    2673    2670    2676    2679       3
    2673    2670    2676    2682       3    2673    2670    2676    2718       3
    2670    2676    2682    2685      12    2670    2676    2682    2688      12
    2778    2775    2781    2784       1    2778    2775   -2781    2784       2
    2775    2781    2787    2790       3    2760    2751    2745    2763      16
    2757    2751    2745    2763      16    2754    2751    2745    2763      16
    2751    2745    2763    2766      16    2751    2745    2763    2769      16
    2751    2745    2763    2772      16    2748    2745    2751    2754      13
    2748    2745    2751    2757      13    2748    2745    2751    2760      13
    2748    2745    2763    2766      13    2748    2745    2763    2769      13
    2748    2745    2763    2772      13    2742    2736    2730    2775      12
    2742    2736    2745    2748      13    2742    2736    2745    2751      16
    2742    2736    2745    2763      16    2739    2736    2730    2775      12
    2739    2736    2745    2748      13    2739    2736    2745    2751      16
    2739    2736    2745    2763      16    2736    2745    2751    2754      16
    2736    2745    2751    2757      16    2736    2745    2751    2760      16
    2736    2745    2763    2766      16    2736    2745    2763    2769      16
    2736    2745    2763    2772      16    2733    2730    2736    2739      12
    2733    2730    2736    2742      12    2733    2730    2736    2745      12
    2733    2730    2775    2778      10    2733    2730   -2775    2778       3
    2733    2730   -2775    2778      11    2733    2730    2775    2781       3
    2730    2736    2745    2748      16    2730    2775    2781    2784       2
    2727    2724    2730    2733       3    2727    2724    2730    2736       3
    2727    2724    2730    2775       3    2724    2730    2736    2739      12
    2724    2730    2736    2742      12    2808    2805    2811    2814       1
    2808    2805   -2811    2814       2    2805    2811    2817    2820       3
    2805    2811    2817    2823       3    2799    2793    2787    2805      12
    2796    2793    2787    2805      12    2790    2787    2793    2796      12
    2790    2787    2793    2799      12    2790    2787    2793    2802      12
    2790    2787    2805    2808      10    2790    2787   -2805    2808       3
    2790    2787   -2805    2808      11    2790    2787    2805    2811       3
    2787    2805    2811    2814       2    2784    2781    2787    2790       3
    2784    2781    2787    2793       3    2784    2781    2787    2805       3
    2781    2787    2793    2796      12    2781    2787    2793    2799      12
    2829    2826    2832    2835       1    2829    2826   -2832    2835       2
    2826    2832    2838    2841       3    2823    2817    2826    2829      10
    2823    2817   -2826    2829       3    2823    2817   -2826    2829      11
    2823    2817    2826    2832       3    2820    2817    2826    2829      10
    2820    2817   -2826    2829       3    2820    2817   -2826    2829      11
    2820    2817    2826    2832       3    2817    2826    2832    2835       2
    2814    2811    2817    2820       3    2814    2811    2817    2823       3
    2814    2811    2817    2826       3    2862    2859    2865    2868       1
    2862    2859   -2865    2868       2    2859    2865    2871    2874       3
    2850    2844    2838    2859      12    2850    2844    2853    2856      25
    2847    2844    2838    2859      12    2847    2844    2853    2856      25
    2841    2838    2844    2847      12    2841    2838    2844    2850      12
    2841    2838    2844    2853      23    2841    2838   -2844    2853      24
    2841    2838    2859    2862      10    2841    2838   -2859    2862       3
    2841    2838   -2859    2862      11    2841    2838    2859    2865       3
    2838    2844    2853    2856      23    2838    2844   -2853    2856      16
    2838    2859    2865    2868       2    2835    2832    2838    2841       3
    2835    2832    2838    2844       3    2835    2832    2838    2859       3
    2832    2838    2844    2847      12    2832    2838    2844    2850      12
    2916    2913    2919    2922       1    2916    2913   -2919    2922       2
    2913    2919    2925    2928       3    2904    2901    2907    2910      31
    2898    2895    2901    2904      32    2898    2895    2901    2907      32
    2895    2901    2907    2910      31    2892    2889    2886    2907      33
    2892    2889    2895    2898      32    2892    2889    2895    2901      32
    2889    2886    2907    2910      34    2889    2895    2901    2904      32
    2886    2889    2895    2898      32    2886    2907    2901    2904      31
    2883    2877    2871    2913      12    2883    2877    2886    2889       3
    2883    2877    2886    2907       3    2880    2877    2871    2913      12
    2880    2877    2886    2889       3    2880    2877    2886    2907       3
    2877    2886    2889    2892      33    2877    2886    2907    2910      34
    2874    2871    2877    2880      12    2874    2871    2877    2883      12
    2874    2871    2877    2886      12    2874    2871    2913    2916      10
    2874    2871   -2913    2916       3    2874    2871   -2913    2916      11
    2874    2871    2913    2919       3    2871    2913    2919    2922       2
    2868    2865    2871    2874       3    2868    2865    2871    2877       3
    2868    2865    2871    2913       3    2865    2871    2877    2880      12
    2865    2871    2877    2883      12    2973    2970    2976    2979       1
    2973    2970   -2976    2979       2    2970    2976    2982    2985       3
    2955    2946    2940    2958      16    2952    2946    2940    2958      16
    2949    2946    2940    2958      16    2946    2940    2958    2961      16
    2946    2940    2958    2964      16    2946    2940    2958    2967      16
    2943    2940    2946    2949      13    2943    2940    2946    2952      13
    2943    2940    2946    2955      13    2943    2940    2958    2961      13
    2943    2940    2958    2964      13    2943    2940    2958    2967      13
    2937    2931    2925    2970      12    2937    2931    2940    2943      13
    2937    2931    2940    2946      16    2937    2931    2940    2958      16
    2934    2931    2925    2970      12    2934    2931    2940    2943      13
    2934    2931    2940    2946      16    2934    2931    2940    2958      16
    2931    2940    2946    2949      16    2931    2940    2946    2952      16
    2931    2940    2946    2955      16    2931    2940    2958    2961      16
    2931    2940    2958    2964      16    2931    2940    2958    2967      16
    2928    2925    2931    2934      12    2928    2925    2931    2937      12
    2928    2925    2931    2940      12    2928    2925    2970    2973      10
    2928    2925   -2970    2973       3    2928    2925   -2970    2973      11
    2928    2925    2970    2976       3    2925    2931    2940    2943      16
    2925    2970    2976    2979       2    2922    2919    2925    2928       3
    2922    2919    2925    2931       3    2922    2919    2925    2970       3
    2919    2925    2931    2934      12    2919    2925    2931    2937      12
    3021    3018    3024    3027       1    3021    3018   -3024    3027       2
    3018    3024    3030    3033       3    3003    2994    2988    3006      16
    3000    2994    2988    3006      16    2997    2994    2988    3006      16
    2994    2988    3006    3009      16    2994    2988    3006    3012      16
    2994    2988    3006    3015      16    2991    2988    2982    3018      12
    2991    2988    2994    2997      13    2991    2988    2994    3000      13
    2991    2988    2994    3003      13    2991    2988    3006    3009      13
    2991    2988    3006    3012      13    2991    2988    3006    3015      13
    2985    2982    2988    2991      12    2985    2982    2988    2994      12
    2985    2982    2988    3006      12    2985    2982    3018    3021      10
    2985    2982   -3018    3021       3    2985    2982   -3018    3021      11
    2985    2982    3018    3024       3    2982    2988    2994    2997      16
    2982    2988    2994    3000      16    2982    2988    2994    3003      16
    2982    2988    3006    3009      16    2982    2988    3006    3012      16
    2982    2988    3006    3015      16    2982    3018    3024    3027       2
    2979    2976    2982    2985       3    2979    2976    2982    2988       3
    2979    2976    2982    3018       3    2976    2982    2988    2991      12
    3069    3066    3081    3084       1    3069    3066   -3081    3084       2
    3066    3081    3087    3090       3    3060    3054    3057    3075      30
    3060    3054    3057    3078      30    3057    3054    3060    3063      30
    3057    3054    3060    3072      30    3051    3045    3054    3057       3
    3051    3045    3054    3060       3    3048    3045    3054    3057       3
    3048    3045    3054    3060       3    3045    3054    3057    3075      30
    3045    3054    3057    3078      30    3045    3054    3060    3063      30
    3045    3054    3060    3072      30    3042    3036    3030    3066      12
    3042    3036    3045    3048      13    3042    3036    3045    3051      13
    3042    3036    3045    3054      12    3039    3036    3030    3066      12
    3039    3036    3045    3048      13    3039    3036    3045    3051      13
    3039    3036    3045    3054      12    3033    3030    3036    3039      12
    3033    3030    3036    3042      12    3033    3030    3036    3045      12
    3033    3030    3066    3069      10    3033    3030   -3066    3069       3
    3033    3030   -3066    3069      11    3033    3030    3066    3081       3
    3030    3036    3045    3048      16    3030    3036    3045    3051      16
    3030    3066    3081    3084       2    3027    3024    3030    3033       3
    3027    3024    3030    3036       3    3027    3024    3030    3066       3
    3024    3030    3036    3039      12    3024    3030    3036    3042      12
    3108    3105    3111    3114       1    3108    3105   -3111    3114       2
    3105    3111    3117    3120       3    3102    3093    3087    3105      12
    3099    3093    3087    3105      12    3096    3093    3087    3105      12
    3090    3087    3093    3096      12    3090    3087    3093    3099      12
    3090    3087    3093    3102      12    3090    3087    3105    3108      10
    3090    3087   -3105    3108       3    3090    3087   -3105    3108      11
    3090    3087    3105    3111       3    3087    3105    3111    3114       2
    3084    3081    3087    3090       3    3084    3081    3087    3093       3
    3084    3081    3087    3105       3    3081    3087    3093    3096      12
    3081    3087    3093    3099      12    3081    3087    3093    3102      12
    3165    3162    3168    3171       1    3165    3162   -3168    3171       2
    3162    3168    3174    3177       3    3147    3138    3132    3150      16
    3144    3138    3132    3150      16    3141    3138    3132    3150      16
    3138    3132    3150    3153      16    3138    3132    3150    3156      16
    3138    3132    3150    3159      16    3135    3132    3138    3141      13
    3135    3132    3138    3144      13    3135    3132    3138    3147      13
    3135    3132    3150    3153      13    3135    3132    3150    3156      13
    3135    3132    3150    3159      13    3129    3123    3117    3162      12
    3129    3123    3132    3135      13    3129    3123    3132    3138      16
    3129    3123    3132    3150      16    3126    3123    3117    3162      12
    3126    3123    3132    3135      13    3126    3123    3132    3138      16
    3126    3123    3132    3150      16    3123    3132    3138    3141      16
    3123    3132    3138    3144      16    3123    3132    3138    3147      16
    3123    3132    3150    3153      16    3123    3132    3150    3156      16
    3123    3132    3150    3159      16    3120    3117    3123    3126      12
    3120    3117    3123    3129      12    3120    3117    3123    3132      12
    3120    3117    3162    3165      10    3120    3117   -3162    3165       3
    3120    3117   -3162    3165      11    3120    3117    3162    3168       3
    3117    3123    3132    3135      16    3117    3162    3168    3171       2
    3114    3111    3117    3120       3    3114    3111    3117    3123       3
    3114    3111    3117    3162       3    3111    3117    3123    3126      12
    3111    3117    3123    3129      12    3228    3225    3231    3234       1
    3228    3225   -3231    3234       2    3225    3231    3237    3240       3
    3216    3213    3219    3222      29    3210    3207    3204    3213      30
    3207    3204    3213    3216      29    3204    3213    3219    3222      29
    3201    3198    3204    3207      29    3201    3198    3204    3213      29
    3198    3204    3207    3210      30    3198    3204    3213    3216      29
    3195    3192    3189    3219      29    3195    3192    3198    3201      29
    3195    3192    3198    3204      29    3192    3189    3219    3222      29
    3189    3192    3198    3201      29    3189    3219    3213    3216      29
    3186    3180    3174    3225      12    3186    3180    3189    3192       3
    3186    3180    3189    3219       3    3183    3180    3174    3225      12
    3183    3180    3189    3192       3    3183    3180    3189    3219       3
    3180    3189    3192    3195      29    3180    3189    3219    3222      29
    3177    3174    3180    3183      12    3177    3174    3180    3186      12
    3177    3174    3180    3189      12    3177    3174    3225    3228      10
    3177    3174   -3225    3228       3    3177    3174   -3225    3228      11
    3177    3174    3225    3231       3    3174    3225    3231    3234       2
    3171    3168    3174    3177       3    3171    3168    3174    3180       3
    3171    3168    3174    3225       3    3168    3174    3180    3183      12
    3168    3174    3180    3186      12    3285    3282    3288    3291       1
    3285    3282   -3288    3291       2    3282    3288    3294    3297       3
    3267    3258    3252    3270      16    3264    3258    3252    3270      16
    3261    3258    3252    3270      16    3258    3252    3270    3273      16
    3258    3252    3270    3276      16    3258    3252    3270    3279      16
    3255    3252    3258    3261      13    3255    3252    3258    3264      13
    3255    3252    3258    3267      13    3255    3252    3270    3273      13
    3255    3252    3270    3276      13    3255    3252    3270    3279      13
    3249    3243    3237    3282      12    3249    3243    3252    3255      13
    3249    3243    3252    3258      16    3249    3243    3252    3270      16
    3246    3243    3237    3282      12    3246    3243    3252    3255      13
    3246    3243    3252    3258      16    3246    3243    3252    3270      16
    3243    3252    3258    3261      16    3243    3252    3258    3264      16
    3243    3252    3258    3267      16    3243    3252    3270    3273      16
    3243    3252    3270    3276      16    3243    3252    3270    3279      16
    3240    3237    3243    3246      12    3240    3237    3243    3249      12
    3240    3237    3243    3252      12    3240    3237    3282    3285      10
    3240    3237   -3282    3285       3    3240    3237   -3282    3285      11
    3240    3237    3282    3288       3    3237    3243    3252    3255      16
    3237    3282    3288    3291       2    3234    3231    3237    3240       3
    3234    3231    3237    3243       3    3234    3231    3237    3282       3
    3231    3237    3243    3246      12    3231    3237    3243    3249      12
    3333    3330    3336    3339       1    3333    3330   -3336    3339       2
    3330    3336    3342    3345       3    3315    3306    3300    3318      16
    3312    3306    3300    3318      16    3309    3306    3300    3318      16
    3306    3300    3318    3321      16    3306    3300    3318    3324      16
    3306    3300    3318    3327      16    3303    3300    3294    3330      12
    3303    3300    3306    3309      13    3303    3300    3306    3312      13
    3303    3300    3306    3315      13    3303    3300    3318    3321      13
    3303    3300    3318    3324      13    3303    3300    3318    3327      13
    3297    3294    3300    3303      12    3297    3294    3300    3306      12
    3297    3294    3300    3318      12    3297    3294    3330    3333      10
    3297    3294   -3330    3333       3    3297    3294   -3330    3333      11
    3297    3294    3330    3336       3    3294    3300    3306    3309      16
    3294    3300    3306    3312      16    3294    3300    3306    3315      16
    3294    3300    3318    3321      16    3294    3300    3318    3324      16
    3294    3300    3318    3327      16    3294    3330    3336    3339       2
    3291    3288    3294    3297       3    3291    3288    3294    3300       3
    3291    3288    3294    3330       3    3288    3294    3300    3303      12
    3363    3360    3366    3369       1    3363    3360   -3366    3369       2
    3360    3366    3372    3375       3    3360    3366    3372    3378       3
    3354    3348    3342    3360      12    3351    3348    3342    3360      12
    3345    3342    3348    3351      12    3345    3342    3348    3354      12
    3345    3342    3348    3357      12    3345    3342    3360    3363      10
    3345    3342   -3360    3363       3    3345    3342   -3360    3363      11
    3345    3342    3360    3366       3    3342    3360    3366    3369       2
    3339    3336    3342    3345       3    3339    3336    3342    3348       3
    3339    3336    3342    3360       3    3336    3342    3348    3351      12
    3336    3342    3348    3354      12    3384    3381    3387    3390       1
    3384    3381   -3387    3390       2    3381    3387    3393    3396       3
    3378    3372    3381    3384      10    3378    3372   -3381    3384       3
    3378    3372   -3381    3384      11    3378    3372    3381    3387       3
    3375    3372    3381    3384      10    3375    3372   -3381    3384       3
    3375    3372   -3381    3384      11    3375    3372    3381    3387       3
    3372    3381    3387    3390       2    3369    3366    3372    3375       3
    3369    3366    3372    3378       3    3369    3366    3372    3381       3
    3432    3429    3444    3447       1    3432    3429   -3444    3447       2
    3429    3444    3450    3453       3    3423    3417    3420    3438      30
    3423    3417    3420    3441      30    3420    3417    3423    3426      30
    3420    3417    3423    3435      30    3414    3408    3417    3420       3
    3414    3408    3417    3423       3    3411    3408    3417    3420       3
    3411    3408    3417    3423       3    3408    3417    3420    3438      30
    3408    3417    3420    3441      30    3408    3417    3423    3426      30
    3408    3417    3423    3435      30    3405    3399    3393    3429      12
    3405    3399    3408    3411      13    3405    3399    3408    3414      13
    3405    3399    3408    3417      12    3402    3399    3393    3429      12
    3402    3399    3408    3411      13    3402    3399    3408    3414      13
    3402    3399    3408    3417      12    3396    3393    3399    3402      12
    3396    3393    3399    3405      12    3396    3393    3399    3408      12
    3396    3393    3429    3432      10    3396    3393   -3429    3432       3
    3396    3393   -3429    3432      11    3396    3393    3429    3444       3
    3393    3399    3408    3411      16    3393    3399    3408    3414      16
    3393    3429    3444    3447       2    3390    3387    3393    3396       3
    3390    3387    3393    3399       3    3390    3387    3393    3429       3
    3387    3393    3399    3402      12    3387    3393    3399    3405      12
    3513    3510    3516    3519       1    3513    3510   -3516    3519       2
    3510    3516    3522    3525       3    3510    3516    3522    3528       3
    3498    3492    3489    3501      35    3495    3492    3489    3501      35
    3492    3489    3501    3504      35    3492    3489    3501    3507      35
    3486    3483    3489    3492      35    3486    3483    3489    3501      35
    3483    3489    3492    3495      35    3483    3489    3492    3498      35
    3483    3489    3501    3504      35    3483    3489    3501    3507      35
    3480    3474    3483    3486      24    3480    3474    3483    3489      24
    3477    3474    3483    3486      24    3477    3474    3483    3489      24
    3471    3465    3474    3477      12    3471    3465    3474    3480      12
    3471    3465    3474    3483      12    3468    3465    3474    3477      12
    3468    3465    3474    3480      12    3468    3465    3474    3483      12
    3465    3474    3483    3486      24    3462    3456    3450    3510      12
    3462    3456    3465    3468      13    3462    3456    3465    3471      13
    3462    3456    3465    3474      16    3459    3456    3450    3510      12
    3459    3456    3465    3468      13    3459    3456    3465    3471      13
    3459    3456    3465    3474      16    3456    3465    3474    3477      12
    3456    3465    3474    3480      12    3453    3450    3456    3459      12
    3453    3450    3456    3462      12    3453    3450    3456    3465      12
    3453    3450    3510    3513      10    3453    3450   -3510    3513       3
    3453    3450   -3510    3513      11    3453    3450    3510    3516       3
    3450    3456    3465    3468      16    3450    3456    3465    3471      16
    3450    3510    3516    3519       2    3447    3444    3450    3453       3
    3447    3444    3450    3456       3    3447    3444    3450    3510       3
    3444    3450    3456    3459      12    3444    3450    3456    3462      12
    3534    3531    3537    3540       1    3534    3531   -3537    3540       2
    3531    3537    3543    3546       3    3528    3522    3531    3534      10
    3528    3522   -3531    3534       3    3528    3522   -3531    3534      11
    3528    3522    3531    3537       3    3525    3522    3531    3534      10
    3525    3522   -3531    3534       3    3525    3522   -3531    3534      11
    3525    3522    3531    3537       3    3522    3531    3537    3540       2
    3519    3516    3522    3525       3    3519    3516    3522    3528       3
    3519    3516    3522    3531       3    3594    3591    3597    3600       1
    3594    3591   -3597    3600       2    3591    3597    3603    3606       3
    3582    3579    3585    3588      29    3576    3573    3579    3582      29
    3576    3573    3579    3585      29    3573    3579    3585    3588      29
    3570    3567    3573    3576      29    3570    3567    3573    3579      29
    3567    3573    3579    3582      29    3564    3561    3558    3585      29
    3564    3561    3567    3570      29    3564    3561    3567    3573      29
    3561    3558    3585    3588      29    3561    3567    3573    3576      29
    3558    3561    3567    3570      29    3558    3585    3579    3582      29
    3555    3549    3543    3591      12    3555    3549    3558    3561       3
    3555    3549    3558    3585       3    3552    3549    3543    3591      12
    3552    3549    3558    3561       3    3552    3549    3558    3585       3
    3549    3558    3561    3564      29    3549    3558    3585    3588      29
    3546    3543    3549    3552      12    3546    3543    3549    3555      12
    3546    3543    3549    3558      12    3546    3543    3591    3594      10
    3546    3543   -3591    3594       3    3546    3543   -3591    3594      11
    3546    3543    3591    3597       3    3543    3591    3597    3600       2
    3540    3537    3543    3546       3    3540    3537    3543    3549       3
    3540    3537    3543    3591       3    3537    3543    3549    3552      12
    3537    3543    3549    3555      12    3654    3651    3657    3660       1
    3654    3651   -3657    3660       2    3651    3657    3663    3666       3
    3642    3639    3645    3648      29    3636    3633    3639    3642      29
    3636    3633    3639    3645      29    3633    3639    3645    3648      29
    3630    3627    3633    3636      29    3630    3627    3633    3639      29
    3627    3633    3639    3642      29    3624    3621    3618    3645      29
    3624    3621    3627    3630      29    3624    3621    3627    3633      29
    3621    3618    3645    3648      29    3621    3627    3633    3636      29
    3618    3621    3627    3630      29    3618    3645    3639    3642      29
    3615    3609    3603    3651      12    3615    3609    3618    3621       3
    3615    3609    3618    3645       3    3612    3609    3603    3651      12
    3612    3609    3618    3621       3    3612    3609    3618    3645       3
    3609    3618    3621    3624      29    3609    3618    3645    3648      29
    3606    3603    3609    3612      12    3606    3603    3609    3615      12
    3606    3603    3609    3618      12    3606    3603    3651    3654      10
    3606    3603   -3651    3654       3    3606    3603   -3651    3654      11
    3606    3603    3651    3657       3    3603    3651    3657    3660       2
    3600    3597    3603    3606       3    3600    3597    3603    3609       3
    3600    3597    3603    3651       3    3597    3603    3609    3612      12
    3597    3603    3609    3615      12    3717    3714    3720    3723       1
    3717    3714   -3720    3723       2    3714    3720    3726    3729       3
    3705    3702    3708    3711      29    3699    3696    3693    3702      30
    3696    3693    3702    3705      29    3693    3702    3708    3711      29
    3690    3687    3693    3696      29    3690    3687    3693    3702      29
    3687    3693    3696    3699      30    3687    3693    3702    3705      29
    3684    3681    3678    3708      29    3684    3681    3687    3690      29
    3684    3681    3687    3693      29    3681    3678    3708    3711      29
    3678    3681    3687    3690      29    3678    3708    3702    3705      29
    3675    3669    3663    3714      12    3675    3669    3678    3681       3
    3675    3669    3678    3708       3    3672    3669    3663    3714      12
    3672    3669    3678    3681       3    3672    3669    3678    3708       3
    3669    3678    3681    3684      29    3669    3678    3708    3711      29
    3666    3663    3669    3672      12    3666    3663    3669    3675      12
    3666    3663    3669    3678      12    3666    3663    3714    3717      10
    3666    3663   -3714    3717       3    3666    3663   -3714    3717      11
    3666    3663    3714    3720       3    3663    3714    3720    3723       2
    3660    3657    3663    3666       3    3660    3657    3663    3669       3
    3660    3657    3663    3714       3    3657    3663    3669    3672      12
    3657    3663    3669    3675      12    3759    3756    3762    3765       1
    3759    3756   -3762    3765       2    3756    3762    3768    3771       3
    3756    3762    3768    3774       3    3756    3762    3768    3777       3
    3747    3738    3732    3750      23    3747    3738   -3732    3750      24
    3744    3738    3732    3750      23    3744    3738   -3732    3750      24
    3741    3738    3732    3750      23    3741    3738   -3732    3750      24
    3738    3732    3750    3753      23    3738    3732   -3750    3753      16
    3735    3732    3726    3756      12    3735    3732    3738    3741      12
    3735    3732    3738    3744      12    3735    3732    3738    3747      12
    3735    3732    3750    3753      25    3729    3726    3732    3735      12
    3729    3726    3732    3738      12    3729    3726    3732    3750      23
    3729    3726   -3732    3750      24    3729    3726    3756    3759      10
    3729    3726   -3756    3759       3    3729    3726   -3756    3759      11
    3729    3726    3756    3762       3    3726    3732    3738    3741      16
    3726    3732    3738    3744      16    3726    3732    3738    3747      16
    3726    3732    3750    3753      23    3726    3732   -3750    3753      16
    3726    3756    3762    3765       2    3723    3720    3726    3729       3
    3723    3720    3726    3732       3    3723    3720    3726    3756       3
    3720    3726    3732    3735      12    3765    3762    3768    3771       3
    3765    3762    3768    3774       3    3765    3762    3768    3777       3
    3795    3792    3798    3801       1    3795    3792   -3798    3801       2
    3792    3798    3804    3807       3    3789    3783    3792    3795      10
    3789    3783   -3792    3795       3    3789    3783   -3792    3795      11
    3789    3783    3792    3798       3    3786    3783    3792    3795      10
    3786    3783   -3792    3795       3    3786    3783   -3792    3795      11
    3786    3783    3792    3798       3    3783    3792    3798    3801       2
    3780    3783    3792    3795      10    3780    3783   -3792    3795       3
    3780    3783   -3792    3795      11    3780    3783    3792    3798       3
    3846    3843    3849    3852       1    3846    3843   -3849    3852       2
    3843    3849    3855    3858       3    3831    3828    3834    3837       1
    3831    3828   -3834    3837       2    3831    3828    3834    3840       1
    3831    3828   -3834    3840       2    3825    3819    3828    3831      10
    3825    3819   -3828    3831       3    3825    3819   -3828    3831      11
    3825    3819    3828    3834       3    3822    3819    3828    3831      10
    3822    3819   -3828    3831       3    3822    3819   -3828    3831      11
    3822    3819    3828    3834       3    3819    3828    3834    3837       2
    3819    3828    3834    3840       2    3816    3810    3804    3843      12
    3816    3810    3819    3822      13    3816    3810    3819    3825      13
    3816    3810    3819    3828      12    3813    3810    3804    3843      12
    3813    3810    3819    3822      13    3813    3810    3819    3825      13
    3813    3810    3819    3828      12    3807    3804    3810    3813      12
    3807    3804    3810    3816      12    3807    3804    3810    3819      12
    3807    3804    3843    3846      10    3807    3804   -3843    3846       3
    3807    3804   -3843    3846      11    3807    3804    3843    3849       3
    3804    3810    3819    3822      16    3804    3810    3819    3825      16
    3804    3843    3849    3852       2    3801    3798    3804    3807       3
    3801    3798    3804    3810       3    3801    3798    3804    3843       3
    3798    3804    3810    3813      12    3798    3804    3810    3816      12
    3876    3873    3879    3882       1    3876    3873   -3879    3882       2
    3873    3879    3885    3888       3    3870    4062    4053    4056      20
    3870    4062    4053    4059      20    3867    3861    3855    3873      12
    3867    3861    3870    4062      20    3864    3861    3855    3873      12
    3864    3861    3870    4062      20    3858    3855    3861    3864      12
    3858    3855    3861    3867      12    3858    3855    3861    3870      12
    3858    3855    3873    3876      10    3858    3855   -3873    3876       3
    3858    3855   -3873    3876      11    3858    3855    3873    3879       3
    3855    3873    3879    3882       2    3852    3849    3855    3858       3
    3852    3849    3855    3861       3    3852    3849    3855    3873       3
    3849    3855    3861    3864      12    3849    3855    3861    3867      12
    3906    3903    3909    3912       1    3906    3903   -3909    3912       2
    3903    3909    3915    3918       3    3900    4692    4683    4686      20
    3900    4692    4683    4689      20    3897    3891    3885    3903      12
    3897    3891    3900    4692      20    3894    3891    3885    3903      12
    3894    3891    3900    4692      20    3888    3885    3891    3894      12
    3888    3885    3891    3897      12    3888    3885    3891    3900      12
    3888    3885    3903    3906      10    3888    3885   -3903    3906       3
    3888    3885   -3903    3906      11    3888    3885    3903    3909       3
    3885    3903    3909    3912       2    3882    3879    3885    3888       3
    3882    3879    3885    3891       3    3882    3879    3885    3903       3
    3879    3885    3891    3894      12    3879    3885    3891    3897      12
    3948    3945    3951    3954       1    3948    3945   -3951    3954       2
    3945    3951    3957    3960       3    3936    3927    3921    3939      23
    3936    3927   -3921    3939      24    3933    3927    3921    3939      23
    3933    3927   -3921    3939      24    3930    3927    3921    3939      23
    3930    3927   -3921    3939      24    3927    3921    3939    3942      23
    3927    3921   -3939    3942      16    3924    3921    3915    3945      12
    3924    3921    3927    3930      12    3924    3921    3927    3933      12
    3924    3921    3927    3936      12    3924    3921    3939    3942      25
    3918    3915    3921    3924      12    3918    3915    3921    3927      12
    3918    3915    3921    3939      23    3918    3915   -3921    3939      24
    3918    3915    3945    3948      10    3918    3915   -3945    3948       3
    3918    3915   -3945    3948      11    3918    3915    3945    3951       3
    3915    3921    3927    3930      16    3915    3921    3927    3933      16
    3915    3921    3927    3936      16    3915    3921    3939    3942      23
    3915    3921   -3939    3942      16    3915    3945    3951    3954       2
    3912    3909    3915    3918       3    3912    3909    3915    3921       3
    3912    3909    3915    3945       3    3909    3915    3921    3924      12
    3981    3978    3984    3987       1    3981    3978   -3984    3987       2
    3978    3984    3990    3993       3    3969    3963    3957    3978      12
    3969    3963    3972    3975      25    3966    3963    3957    3978      12
    3966    3963    3972    3975      25    3960    3957    3963    3966      12
    3960    3957    3963    3969      12    3960    3957    3963    3972      23
    3960    3957   -3963    3972      24    3960    3957    3978    3981      10
    3960    3957   -3978    3981       3    3960    3957   -3978    3981      11
    3960    3957    3978    3984       3    3957    3963    3972    3975      23
    3957    3963   -3972    3975      16    3957    3978    3984    3987       2
    3954    3951    3957    3960       3    3954    3951    3957    3963       3
    3954    3951    3957    3978       3    3951    3957    3963    3966      12
    3951    3957    3963    3969      12    4038    4035    4041    4044       1
    4038    4035   -4041    4044       2    4035    4041    4047    4050       3
    4020    4014    4023    4026      13    4020    4014    4023    4029      13
    4020    4014    4023    4032      13    4017    4014    4023    4026      13
    4017    4014    4023    4029      13    4017    4014    4023    4032      13
    4011    4002    3996    4014      16    4008    4002    3996    4014      16
    4005    4002    3996    4014      16    4002    3996    4014    4017      16
    4002    3996    4014    4020      16    3999    3996    3990    4035      12
    3999    3996    4002    4005      13    3999    3996    4002    4008      13
    3999    3996    4002    4011      13    3999    3996    4014    4017      13
    3999    3996    4014    4020      13    3999    3996    4014    4023      16
    3996    4014    4023    4026      16    3996    4014    4023    4029      16
    3996    4014    4023    4032      16    3993    3990    3996    3999      12
    3993    3990    3996    4002      12    3993    3990    3996    4014      12
    3993    3990    4035    4038      10    3993    3990   -4035    4038       3
    3993    3990   -4035    4038      11    3993    3990    4035    4041       3
    3990    3996    4002    4005      16    3990    3996    4002    4008      16
    3990    3996    4002    4011      16    3990    3996    4014    4017      16
    3990    3996    4014    4020      16    3990    4035    4041    4044       2
    3987    3984    3990    3993       3    3987    3984    3990    3996       3
    3987    3984    3990    4035       3    3984    3990    3996    3999      12
    4068    4065    4071    4074       1    4068    4065   -4071    4074       2
    4065    4071    4077    4080       3    4059    4053    4047    4065      12
    4056    4053    4047    4065      12    4050    4047    4053    4056      12
    4050    4047    4053    4059      12    4050    4047    4053    4062      12
    4050    4047    4065    4068      10    4050    4047   -4065    4068       3
    4050    4047   -4065    4068      11    4050    4047    4065    4071       3
    4047    4065    4071    4074       2    4044    4041    4047    4050       3
    4044    4041    4047    4053       3    4044    4041    4047    4065       3
    4041    4047    4053    4056      12    4041    4047    4053    4059      12
    4101    4098    4104    4107       1    4101    4098   -4104    4107       2
    4098    4104    4110    4113       3    4089    4083    4077    4098      12
    4089    4083    4092    4095      25    4086    4083    4077    4098      12
    4086    4083    4092    4095      25    4080    4077    4083    4086      12
    4080    4077    4083    4089      12    4080    4077    4083    4092      23
    4080    4077   -4083    4092      24    4080    4077    4098    4101      10
    4080    4077   -4098    4101       3    4080    4077   -4098    4101      11
    4080    4077    4098    4104       3    4077    4083    4092    4095      23
    4077    4083   -4092    4095      16    4077    4098    4104    4107       2
    4074    4071    4077    4080       3    4074    4071    4077    4083       3
    4074    4071    4077    4098       3    4071    4077    4083    4086      12
    4071    4077    4083    4089      12    4158    4155    4161    4164       1
    4158    4155   -4161    4164       2    4155    4161    4167    4170       3
    4140    4131    4125    4143      16    4137    4131    4125    4143      16
    4134    4131    4125    4143      16    4131    4125    4143    4146      16
    4131    4125    4143    4149      16    4131    4125    4143    4152      16
    4128    4125    4131    4134      13    4128    4125    4131    4137      13
    4128    4125    4131    4140      13    4128    4125    4143    4146      13
    4128    4125    4143    4149      13    4128    4125    4143    4152      13
    4122    4116    4110    4155      12    4122    4116    4125    4128      13
    4122    4116    4125    4131      16    4122    4116    4125    4143      16
    4119    4116    4110    4155      12    4119    4116    4125    4128      13
    4119    4116    4125    4131      16    4119    4116    4125    4143      16
    4116    4125    4131    4134      16    4116    4125    4131    4137      16
    4116    4125    4131    4140      16    4116    4125    4143    4146      16
    4116    4125    4143    4149      16    4116    4125    4143    4152      16
    4113    4110    4116    4119      12    4113    4110    4116    4122      12
    4113    4110    4116    4125      12    4113    4110    4155    4158      10
    4113    4110   -4155    4158       3    4113    4110   -4155    4158      11
    4113    4110    4155    4161       3    4110    4116    4125    4128      16
    4110    4155    4161    4164       2    4107    4104    4110    4113       3
    4107    4104    4110    4116       3    4107    4104    4110    4155       3
    4104    4110    4116    4119      12    4104    4110    4116    4122      12
    4221    4218    4224    4227       1    4221    4218   -4224    4227       2
    4218    4224    4230    4233       3    4209    4206    4212    4215      29
    4203    4200    4197    4206      30    4200    4197    4206    4209      29
    4197    4206    4212    4215      29    4194    4191    4197    4200      29
    4194    4191    4197    4206      29    4191    4197    4200    4203      30
    4191    4197    4206    4209      29    4188    4185    4182    4212      29
    4188    4185    4191    4194      29    4188    4185    4191    4197      29
    4185    4182    4212    4215      29    4182    4185    4191    4194      29
    4182    4212    4206    4209      29    4179    4173    4167    4218      12
    4179    4173    4182    4185       3    4179    4173    4182    4212       3
    4176    4173    4167    4218      12    4176    4173    4182    4185       3
    4176    4173    4182    4212       3    4173    4182    4185    4188      29
    4173    4182    4212    4215      29    4170    4167    4173    4176      12
    4170    4167    4173    4179      12    4170    4167    4173    4182      12
    4170    4167    4218    4221      10    4170    4167   -4218    4221       3
    4170    4167   -4218    4221      11    4170    4167    4218    4224       3
    4167    4218    4224    4227       2    4164    4161    4167    4170       3
    4164    4161    4167    4173       3    4164    4161    4167    4218       3
    4161    4167    4173    4176      12    4161    4167    4173    4179      12
    4272    4269    4275    4278       1    4272    4269   -4275    4278       2
    4269    4275    4281    4284       3    4257    4254    4260    4263       1
    4257    4254   -4260    4263       2    4257    4254    4260    4266       1
    4257    4254   -4260    4266       2    4251    4245    4254    4257      10
    4251    4245   -4254    4257       3    4251    4245   -4254    4257      11
    4251    4245    4254    4260       3    4248    4245    4254    4257      10
    4248    4245   -4254    4257       3    4248    4245   -4254    4257      11
    4248    4245    4254    4260       3    4245    4254    4260    4263       2
    4245    4254    4260    4266       2    4242    4236    4230    4269      12
    4242    4236    4245    4248      13    4242    4236    4245    4251      13
    4242    4236    4245    4254      12    4239    4236    4230    4269      12
    4239    4236    4245    4248      13    4239    4236    4245    4251      13
    4239    4236    4245    4254      12    4233    4230    4236    4239      12
    4233    4230    4236    4242      12    4233    4230    4236    4245      12
    4233    4230    4269    4272      10    4233    4230   -4269    4272       3
    4233    4230   -4269    4272      11    4233    4230    4269    4275       3
    4230    4236    4245    4248      16    4230    4236    4245    4251      16
    4230    4269    4275    4278       2    4227    4224    4230    4233       3
    4227    4224    4230    4236       3    4227    4224    4230    4269       3
    4224    4230    4236    4239      12    4224    4230    4236    4242      12
    4329    4326    4332    4335       1    4329    4326   -4332    4335       2
    4326    4332    4338    4341       3    4311    4302    4296    4314      16
    4308    4302    4296    4314      16    4305    4302    4296    4314      16
    4302    4296    4314    4317      16    4302    4296    4314    4320      16
    4302    4296    4314    4323      16    4299    4296    4302    4305      13
    4299    4296    4302    4308      13    4299    4296    4302    4311      13
    4299    4296    4314    4317      13    4299    4296    4314    4320      13
    4299    4296    4314    4323      13    4293    4287    4281    4326      12
    4293    4287    4296    4299      13    4293    4287    4296    4302      16
    4293    4287    4296    4314      16    4290    4287    4281    4326      12
    4290    4287    4296    4299      13    4290    4287    4296    4302      16
    4290    4287    4296    4314      16    4287    4296    4302    4305      16
    4287    4296    4302    4308      16    4287    4296    4302    4311      16
    4287    4296    4314    4317      16    4287    4296    4314    4320      16
    4287    4296    4314    4323      16    4284    4281    4287    4290      12
    4284    4281    4287    4293      12    4284    4281    4287    4296      12
    4284    4281    4326    4329      10    4284    4281   -4326    4329       3
    4284    4281   -4326    4329      11    4284    4281    4326    4332       3
    4281    4287    4296    4299      16    4281    4326    4332    4335       2
    4278    4275    4281    4284       3    4278    4275    4281    4287       3
    4278    4275    4281    4326       3    4275    4281    4287    4290      12
    4275    4281    4287    4293      12    4377    4374    4389    4392       1
    4377    4374   -4389    4392       2    4374    4389    4395    4398       3
    4368    4362    4365    4383      30    4368    4362    4365    4386      30
    4365    4362    4368    4371      30    4365    4362    4368    4380      30
    4359    4353    4362    4365       3    4359    4353    4362    4368       3
    4356    4353    4362    4365       3    4356    4353    4362    4368       3
    4353    4362    4365    4383      30    4353    4362    4365    4386      30
    4353    4362    4368    4371      30    4353    4362    4368    4380      30
    4350    4344    4338    4374      12    4350    4344    4353    4356      13
    4350    4344    4353    4359      13    4350    4344    4353    4362      12
    4347    4344    4338    4374      12    4347    4344    4353    4356      13
    4347    4344    4353    4359      13    4347    4344    4353    4362      12
    4341    4338    4344    4347      12    4341    4338    4344    4350      12
    4341    4338    4344    4353      12    4341    4338    4374    4377      10
    4341    4338   -4374    4377       3    4341    4338   -4374    4377      11
    4341    4338    4374    4389       3    4338    4344    4353    4356      16
    4338    4344    4353    4359      16    4338    4374    4389    4392       2
    4335    4332    4338    4341       3    4335    4332    4338    4344       3
    4335    4332    4338    4374       3    4332    4338    4344    4347      12
    4332    4338    4344    4350      12    4428    4425    4431    4434       1
    4428    4425   -4431    4434       2    4425    4431    4437    4440       3
    4413    4410    4416    4419       1    4413    4410   -4416    4419       2
    4413    4410    4416    4422       1    4413    4410   -4416    4422       2
    4407    4401    4395    4425      12    4407    4401    4410    4413      10
    4407    4401   -4410    4413       3    4407    4401   -4410    4413      11
    4407    4401    4410    4416       3    4404    4401    4395    4425      12
    4404    4401    4410    4413      10    4404    4401   -4410    4413       3
    4404    4401   -4410    4413      11    4404    4401    4410    4416       3
    4401    4410    4416    4419       2    4401    4410    4416    4422       2
    4398    4395    4401    4404      12    4398    4395    4401    4407      12
    4398    4395    4401    4410      12    4398    4395    4425    4428      10
    4398    4395   -4425    4428       3    4398    4395   -4425    4428      11
    4398    4395    4425    4431       3    4395    4425    4431    4434       2
    4392    4389    4395    4398       3    4392    4389    4395    4401       3
    4392    4389    4395    4425       3    4389    4395    4401    4404      12
    4389    4395    4401    4407      12    4491    4488    4494    4497       1
    4491    4488   -4494    4497       2    4488    4494    4500    4503       3
    4479    4476    4482    4485      29    4473    4470    4467    4476      30
    4470    4467    4476    4479      29    4467    4476    4482    4485      29
    4464    4461    4467    4470      29    4464    4461    4467    4476      29
    4461    4467    4470    4473      30    4461    4467    4476    4479      29
    4458    4455    4452    4482      29    4458    4455    4461    4464      29
    4458    4455    4461    4467      29    4455    4452    4482    4485      29
    4452    4455    4461    4464      29    4452    4482    4476    4479      29
    4449    4443    4437    4488      12    4449    4443    4452    4455       3
    4449    4443    4452    4482       3    4446    4443    4437    4488      12
    4446    4443    4452    4455       3    4446    4443    4452    4482       3
    4443    4452    4455    4458      29    4443    4452    4482    4485      29
    4440    4437    4443    4446      12    4440    4437    4443    4449      12
    4440    4437    4443    4452      12    4440    4437    4488    4491      10
    4440    4437   -4488    4491       3    4440    4437   -4488    4491      11
    4440    4437    4488    4494       3    4437    4488    4494    4497       2
    4434    4431    4437    4440       3    4434    4431    4437    4443       3
    4434    4431    4437    4488       3    4431    4437    4443    4446      12
    4431    4437    4443    4449      12    4521    4518    4524    4527       1
    4521    4518   -4524    4527       2    4518    4524    4530    4533       3
    4518    4524    4530    4536       3    4518    4524    4530    4539       3
    4515    5247    5238    5241      20    4515    5247    5238    5244      20
    4512    4506    4500    4518      12    4512    4506    4515    5247      20
    4509    4506    4500    4518      12    4509    4506    4515    5247      20
    4503    4500    4506    4509      12    4503    4500    4506    4512      12
    4503    4500    4506    4515      12    4503    4500    4518    4521      10
    4503    4500   -4518    4521       3    4503    4500   -4518    4521      11
    4503    4500    4518    4524       3    4500    4518    4524    4527       2
    4497    4494    4500    4503       3    4497    4494    4500    4506       3
    4497    4494    4500    4518       3    4494    4500    4506    4509      12
    4494    4500    4506    4512      12    4527    4524    4530    4533       3
    4527    4524    4530    4536       3    4527    4524    4530    4539       3
    4557    4554    4560    4563       1    4557    4554   -4560    4563       2
    4554    4560    4566    4569       3    4551    4545    4554    4557      10
    4551    4545   -4554    4557       3    4551    4545   -4554    4557      11
    4551    4545    4554    4560       3    4548    4545    4554    4557      10
    4548    4545   -4554    4557       3    4548    4545   -4554    4557      11
    4548    4545    4554    4560       3    4545    4554    4560    4563       2
    4542    4545    4554    4557      10    4542    4545   -4554    4557       3
    4542    4545   -4554    4557      11    4542    4545    4554    4560       3
    4611    4608    4614    4617       1    4611    4608   -4614    4617       2
    4608    4614    4620    4623       3    4599    4596    4602    4605      31
    4593    4590    4596    4599      32    4593    4590    4596    4602      32
    4590    4596    4602    4605      31    4587    4584    4581    4602      33
    4587    4584    4590    4593      32    4587    4584    4590    4596      32
    4584    4581    4602    4605      34    4584    4590    4596    4599      32
    4581    4584    4590    4593      32    4581    4602    4596    4599      31
    4578    4572    4566    4608      12    4578    4572    4581    4584       3
    4578    4572    4581    4602       3    4575    4572    4566    4608      12
    4575    4572    4581    4584       3    4575    4572    4581    4602       3
    4572    4581    4584    4587      33    4572    4581    4602    4605      34
    4569    4566    4572    4575      12    4569    4566    4572    4578      12
    4569    4566    4572    4581      12    4569    4566    4608    4611      10
    4569    4566   -4608    4611       3    4569    4566   -4608    4611      11
    4569    4566    4608    4614       3    4566    4608    4614    4617       2
    4563    4560    4566    4569       3    4563    4560    4566    4572       3
    4563    4560    4566    4608       3    4560    4566    4572    4575      12
    4560    4566    4572    4578      12    4668    4665    4671    4674       1
    4668    4665   -4671    4674       2    4665    4671    4677    4680       3
    4650    4641    4635    4653      16    4647    4641    4635    4653      16
    4644    4641    4635    4653      16    4641    4635    4653    4656      16
    4641    4635    4653    4659      16    4641    4635    4653    4662      16
    4638    4635    4641    4644      13    4638    4635    4641    4647      13
    4638    4635    4641    4650      13    4638    4635    4653    4656      13
    4638    4635    4653    4659      13    4638    4635    4653    4662      13
    4632    4626    4620    4665      12    4632    4626    4635    4638      13
    4632    4626    4635    4641      16    4632    4626    4635    4653      16
    4629    4626    4620    4665      12    4629    4626    4635    4638      13
    4629    4626    4635    4641      16    4629    4626    4635    4653      16
    4626    4635    4641    4644      16    4626    4635    4641    4647      16
    4626    4635    4641    4650      16    4626    4635    4653    4656      16
    4626    4635    4653    4659      16    4626    4635    4653    4662      16
    4623    4620    4626    4629      12    4623    4620    4626    4632      12
    4623    4620    4626    4635      12    4623    4620    4665    4668      10
    4623    4620   -4665    4668       3    4623    4620   -4665    4668      11
    4623    4620    4665    4671       3    4620    4626    4635    4638      16
    4620    4665    4671    4674       2    4617    4614    4620    4623       3
    4617    4614    4620    4626       3    4617    4614    4620    4665       3
    4614    4620    4626    4629      12    4614    4620    4626    4632      12
    4698    4695    4701    4704       1    4698    4695   -4701    4704       2
    4695    4701    4707    4710       3    4695    4701    4707    4713       3
    4689    4683    4677    4695      12    4686    4683    4677    4695      12
    4680    4677    4683    4686      12    4680    4677    4683    4689      12
    4680    4677    4683    4692      12    4680    4677    4695    4698      10
    4680    4677   -4695    4698       3    4680    4677   -4695    4698      11
    4680    4677    4695    4701       3    4677    4695    4701    4704       2
    4674    4671    4677    4680       3    4674    4671    4677    4683       3
    4674    4671    4677    4695       3    4671    4677    4683    4686      12
    4671    4677    4683    4689      12    4719    4716    4722    4725       1
    4719    4716   -4722    4725       2    4716    4722    4728    4731       3
    4713    4707    4716    4719      10    4713    4707   -4716    4719       3
    4713    4707   -4716    4719      11    4713    4707    4716    4722       3
    4710    4707    4716    4719      10    4710    4707   -4716    4719       3
    4710    4707   -4716    4719      11    4710    4707    4716    4722       3
    4707    4716    4722    4725       2    4704    4701    4707    4710       3
    4704    4701    4707    4713       3    4704    4701    4707    4716       3
    4752    4749    4755    4758       1    4752    4749   -4755    4758       2
    4749    4755    4761    4764       3    4740    4734    4728    4749      12
    4740    4734    4743    4746      25    4737    4734    4728    4749      12
    4737    4734    4743    4746      25    4731    4728    4734    4737      12
    4731    4728    4734    4740      12    4731    4728    4734    4743      23
    4731    4728   -4734    4743      24    4731    4728    4749    4752      10
    4731    4728   -4749    4752       3    4731    4728   -4749    4752      11
    4731    4728    4749    4755       3    4728    4734    4743    4746      23
    4728    4734   -4743    4746      16    4728    4749    4755    4758       2
    4725    4722    4728    4731       3    4725    4722    4728    4734       3
    4725    4722    4728    4749       3    4722    4728    4734    4737      12
    4722    4728    4734    4740      12    4806    4803    4809    4812       1
    4806    4803   -4809    4812       2    4803    4809    4815    4818       3
    4794    4791    4797    4800      31    4788    4785    4791    4794      32
    4788    4785    4791    4797      32    4785    4791    4797    4800      31
    4782    4779    4776    4797      33    4782    4779    4785    4788      32
    4782    4779    4785    4791      32    4779    4776    4797    4800      34
    4779    4785    4791    4794      32    4776    4779    4785    4788      32
    4776    4797    4791    4794      31    4773    4767    4761    4803      12
    4773    4767    4776    4779       3    4773    4767    4776    4797       3
    4770    4767    4761    4803      12    4770    4767    4776    4779       3
    4770    4767    4776    4797       3    4767    4776    4779    4782      33
    4767    4776    4797    4800      34    4764    4761    4767    4770      12
    4764    4761    4767    4773      12    4764    4761    4767    4776      12
    4764    4761    4803    4806      10    4764    4761   -4803    4806       3
    4764    4761   -4803    4806      11    4764    4761    4803    4809       3
    4761    4803    4809    4812       2    4758    4755    4761    4764       3
    4758    4755    4761    4767       3    4758    4755    4761    4803       3
    4755    4761    4767    4770      12    4755    4761    4767    4773      12
    4863    4860    4866    4869       1    4863    4860   -4866    4869       2
    4860    4866    4872    4875       3    4845    4836    4830    4848      16
    4842    4836    4830    4848      16    4839    4836    4830    4848      16
    4836    4830    4848    4851      16    4836    4830    4848    4854      16
    4836    4830    4848    4857      16    4833    4830    4836    4839      13
    4833    4830    4836    4842      13    4833    4830    4836    4845      13
    4833    4830    4848    4851      13    4833    4830    4848    4854      13
    4833    4830    4848    4857      13    4827    4821    4815    4860      12
    4827    4821    4830    4833      13    4827    4821    4830    4836      16
    4827    4821    4830    4848      16    4824    4821    4815    4860      12
    4824    4821    4830    4833      13    4824    4821    4830    4836      16
    4824    4821    4830    4848      16    4821    4830    4836    4839      16
    4821    4830    4836    4842      16    4821    4830    4836    4845      16
    4821    4830    4848    4851      16    4821    4830    4848    4854      16
    4821    4830    4848    4857      16    4818    4815    4821    4824      12
    4818    4815    4821    4827      12    4818    4815    4821    4830      12
    4818    4815    4860    4863      10    4818    4815   -4860    4863       3
    4818    4815   -4860    4863      11    4818    4815    4860    4866       3
    4815    4821    4830    4833      16    4815    4860    4866    4869       2
    4812    4809    4815    4818       3    4812    4809    4815    4821       3
    4812    4809    4815    4860       3    4809    4815    4821    4824      12
    4809    4815    4821    4827      12    4911    4908    4914    4917       1
    4911    4908   -4914    4917       2    4908    4914    4920    4923       3
    4893    4884    4878    4896      16    4890    4884    4878    4896      16
    4887    4884    4878    4896      16    4884    4878    4896    4899      16
    4884    4878    4896    4902      16    4884    4878    4896    4905      16
    4881    4878    4872    4908      12    4881    4878    4884    4887      13
    4881    4878    4884    4890      13    4881    4878    4884    4893      13
    4881    4878    4896    4899      13    4881    4878    4896    4902      13
    4881    4878    4896    4905      13    4875    4872    4878    4881      12
    4875    4872    4878    4884      12    4875    4872    4878    4896      12
    4875    4872    4908    4911      10    4875    4872   -4908    4911       3
    4875    4872   -4908    4911      11    4875    4872    4908    4914       3
    4872    4878    4884    4887      16    4872    4878    4884    4890      16
    4872    4878    4884    4893      16    4872    4878    4896    4899      16
    4872    4878    4896    4902      16    4872    4878    4896    4905      16
    4872    4908    4914    4917       2    4869    4866    4872    4875       3
    4869    4866    4872    4878       3    4869    4866    4872    4908       3
    4866    4872    4878    4881      12    4959    4956    4971    4974       1
    4959    4956   -4971    4974       2    4956    4971    4977    4980       3
    4950    4944    4947    4965      30    4950    4944    4947    4968      30
    4947    4944    4950    4953      30    4947    4944    4950    4962      30
    4941    4935    4944    4947       3    4941    4935    4944    4950       3
    4938    4935    4944    4947       3    4938    4935    4944    4950       3
    4935    4944    4947    4965      30    4935    4944    4947    4968      30
    4935    4944    4950    4953      30    4935    4944    4950    4962      30
    4932    4926    4920    4956      12    4932    4926    4935    4938      13
    4932    4926    4935    4941      13    4932    4926    4935    4944      12
    4929    4926    4920    4956      12    4929    4926    4935    4938      13
    4929    4926    4935    4941      13    4929    4926    4935    4944      12
    4923    4920    4926    4929      12    4923    4920    4926    4932      12
    4923    4920    4926    4935      12    4923    4920    4956    4959      10
    4923    4920   -4956    4959       3    4923    4920   -4956    4959      11
    4923    4920    4956    4971       3    4920    4926    4935    4938      16
    4920    4926    4935    4941      16    4920    4956    4971    4974       2
    4917    4914    4920    4923       3    4917    4914    4920    4926       3
    4917    4914    4920    4956       3    4914    4920    4926    4929      12
    4914    4920    4926    4932      12    4998    4995    5001    5004       1
    4998    4995   -5001    5004       2    4995    5001    5007    5010       3
    4992    4983    4977    4995      12    4989    4983    4977    4995      12
    4986    4983    4977    4995      12    4980    4977    4983    4986      12
    4980    4977    4983    4989      12    4980    4977    4983    4992      12
    4980    4977    4995    4998      10    4980    4977   -4995    4998       3
    4980    4977   -4995    4998      11    4980    4977    4995    5001       3
    4977    4995    5001    5004       2    4974    4971    4977    4980       3
    4974    4971    4977    4983       3    4974    4971    4977    4995       3
    4971    4977    4983    4986      12    4971    4977    4983    4989      12
    4971    4977    4983    4992      12    5055    5052    5058    5061       1
    5055    5052   -5058    5061       2    5052    5058    5064    5067       3
    5037    5028    5022    5040      16    5034    5028    5022    5040      16
    5031    5028    5022    5040      16    5028    5022    5040    5043      16
    5028    5022    5040    5046      16    5028    5022    5040    5049      16
    5025    5022    5028    5031      13    5025    5022    5028    5034      13
    5025    5022    5028    5037      13    5025    5022    5040    5043      13
    5025    5022    5040    5046      13    5025    5022    5040    5049      13
    5019    5013    5007    5052      12    5019    5013    5022    5025      13
    5019    5013    5022    5028      16    5019    5013    5022    5040      16
    5016    5013    5007    5052      12    5016    5013    5022    5025      13
    5016    5013    5022    5028      16    5016    5013    5022    5040      16
    5013    5022    5028    5031      16    5013    5022    5028    5034      16
    5013    5022    5028    5037      16    5013    5022    5040    5043      16
    5013    5022    5040    5046      16    5013    5022    5040    5049      16
    5010    5007    5013    5016      12    5010    5007    5013    5019      12
    5010    5007    5013    5022      12    5010    5007    5052    5055      10
    5010    5007   -5052    5055       3    5010    5007   -5052    5055      11
    5010    5007    5052    5058       3    5007    5013    5022    5025      16
    5007    5052    5058    5061       2    5004    5001    5007    5010       3
    5004    5001    5007    5013       3    5004    5001    5007    5052       3
    5001    5007    5013    5016      12    5001    5007    5013    5019      12
    5118    5115    5121    5124       1    5118    5115   -5121    5124       2
    5115    5121    5127    5130       3    5106    5103    5109    5112      29
    5100    5097    5094    5103      30    5097    5094    5103    5106      29
    5094    5103    5109    5112      29    5091    5088    5094    5097      29
    5091    5088    5094    5103      29    5088    5094    5097    5100      30
    5088    5094    5103    5106      29    5085    5082    5079    5109      29
    5085    5082    5088    5091      29    5085    5082    5088    5094      29
    5082    5079    5109    5112      29    5079    5082    5088    5091      29
    5079    5109    5103    5106      29    5076    5070    5064    5115      12
    5076    5070    5079    5082       3    5076    5070    5079    5109       3
    5073    5070    5064    5115      12    5073    5070    5079    5082       3
    5073    5070    5079    5109       3    5070    5079    5082    5085      29
    5070    5079    5109    5112      29    5067    5064    5070    5073      12
    5067    5064    5070    5076      12    5067    5064    5070    5079      12
    5067    5064    5115    5118      10    5067    5064   -5115    5118       3
    5067    5064   -5115    5118      11    5067    5064    5115    5121       3
    5064    5115    5121    5124       2    5061    5058    5064    5067       3
    5061    5058    5064    5070       3    5061    5058    5064    5115       3
    5058    5064    5070    5073      12    5058    5064    5070    5076      12
    5175    5172    5178    5181       1    5175    5172   -5178    5181       2
    5172    5178    5184    5187       3    5157    5148    5142    5160      16
    5154    5148    5142    5160      16    5151    5148    5142    5160      16
    5148    5142    5160    5163      16    5148    5142    5160    5166      16
    5148    5142    5160    5169      16    5145    5142    5148    5151      13
    5145    5142    5148    5154      13    5145    5142    5148    5157      13
    5145    5142    5160    5163      13    5145    5142    5160    5166      13
    5145    5142    5160    5169      13    5139    5133    5127    5172      12
    5139    5133    5142    5145      13    5139    5133    5142    5148      16
    5139    5133    5142    5160      16    5136    5133    5127    5172      12
    5136    5133    5142    5145      13    5136    5133    5142    5148      16
    5136    5133    5142    5160      16    5133    5142    5148    5151      16
    5133    5142    5148    5154      16    5133    5142    5148    5157      16
    5133    5142    5160    5163      16    5133    5142    5160    5166      16
    5133    5142    5160    5169      16    5130    5127    5133    5136      12
    5130    5127    5133    5139      12    5130    5127    5133    5142      12
    5130    5127    5172    5175      10    5130    5127   -5172    5175       3
    5130    5127   -5172    5175      11    5130    5127    5172    5178       3
    5127    5133    5142    5145      16    5127    5172    5178    5181       2
    5124    5121    5127    5130       3    5124    5121    5127    5133       3
    5124    5121    5127    5172       3    5121    5127    5133    5136      12
    5121    5127    5133    5139      12    5223    5220    5226    5229       1
    5223    5220   -5226    5229       2    5220    5226    5232    5235       3
    5205    5196    5190    5208      16    5202    5196    5190    5208      16
    5199    5196    5190    5208      16    5196    5190    5208    5211      16
    5196    5190    5208    5214      16    5196    5190    5208    5217      16
    5193    5190    5184    5220      12    5193    5190    5196    5199      13
    5193    5190    5196    5202      13    5193    5190    5196    5205      13
    5193    5190    5208    5211      13    5193    5190    5208    5214      13
    5193    5190    5208    5217      13    5187    5184    5190    5193      12
    5187    5184    5190    5196      12    5187    5184    5190    5208      12
    5187    5184    5220    5223      10    5187    5184   -5220    5223       3
    5187    5184   -5220    5223      11    5187    5184    5220    5226       3
    5184    5190    5196    5199      16    5184    5190    5196    5202      16
    5184    5190    5196    5205      16    5184    5190    5208    5211      16
    5184    5190    5208    5214      16    5184    5190    5208    5217      16
    5184    5220    5226    5229       2    5181    5178    5184    5187       3
    5181    5178    5184    5190       3    5181    5178    5184    5220       3
    5178    5184    5190    5193      12    5253    5250    5256    5259       1
    5253    5250   -5256    5259       2    5250    5256    5262    5265       3
    5250    5256    5262    5268       3    5244    5238    5232    5250      12
    5241    5238    5232    5250      12    5235    5232    5238    5241      12
    5235    5232    5238    5244      12    5235    5232    5238    5247      12
    5235    5232    5250    5253      10    5235    5232   -5250    5253       3
    5235    5232   -5250    5253      11    5235    5232    5250    5256       3
    5232    5250    5256    5259       2    5229    5226    5232    5235       3
    5229    5226    5232    5238       3    5229    5226    5232    5250       3
    5226    5232    5238    5241      12    5226    5232    5238    5244      12
    5274    5271    5277    5280       1    5274    5271   -5277    5280       2
    5271    5277    5283    5286       3    5268    5262    5271    5274      10
    5268    5262   -5271    5274       3    5268    5262   -5271    5274      11
    5268    5262    5271    5277       3    5265    5262    5271    5274      10
    5265    5262   -5271    5274       3    5265    5262   -5271    5274      11
    5265    5262    5271    5277       3    5262    5271    5277    5280       2
    5259    5256    5262    5265       3    5259    5256    5262    5268       3
    5259    5256    5262    5271       3    5322    5319    5334    5337       1
    5322    5319   -5334    5337       2    5319    5334    5340    5343       3
    5313    5307    5310    5328      30    5313    5307    5310    5331      30
    5310    5307    5313    5316      30    5310    5307    5313    5325      30
    5304    5298    5307    5310       3    5304    5298    5307    5313       3
    5301    5298    5307    5310       3    5301    5298    5307    5313       3
    5298    5307    5310    5328      30    5298    5307    5310    5331      30
    5298    5307    5313    5316      30    5298    5307    5313    5325      30
    5295    5289    5283    5319      12    5295    5289    5298    5301      13
    5295    5289    5298    5304      13    5295    5289    5298    5307      12
    5292    5289    5283    5319      12    5292    5289    5298    5301      13
    5292    5289    5298    5304      13    5292    5289    5298    5307      12
    5286    5283    5289    5292      12    5286    5283    5289    5295      12
    5286    5283    5289    5298      12    5286    5283    5319    5322      10
    5286    5283   -5319    5322       3    5286    5283   -5319    5322      11
    5286    5283    5319    5334       3    5283    5289    5298    5301      16
    5283    5289    5298    5304      16    5283    5319    5334    5337       2
    5280    5277    5283    5286       3    5280    5277    5283    5289       3
    5280    5277    5283    5319       3    5277    5283    5289    5292      12
    5277    5283    5289    5295      12    5403    5400    5406    5409       1
    5403    5400   -5406    5409       2    5400    5406    5412    5415       3
    5400    5406    5412    5418       3    5388    5382    5379    5391      35
    5385    5382    5379    5391      35    5382    5379    5391    5394      35
    5382    5379    5391    5397      35    5376    5373    5379    5382      35
    5376    5373    5379    5391      35    5373    5379    5382    5385      35
    5373    5379    5382    5388      35    5373    5379    5391    5394      35
    5373    5379    5391    5397      35    5370    5364    5373    5376      24
    5370    5364    5373    5379      24    5367    5364    5373    5376      24
    5367    5364    5373    5379      24    5361    5355    5364    5367      12
    5361    5355    5364    5370      12    5361    5355    5364    5373      12
    5358    5355    5364    5367      12    5358    5355    5364    5370      12
    5358    5355    5364    5373      12    5355    5364    5373    5376      24
    5352    5346    5340    5400      12    5352    5346    5355    5358      13
    5352    5346    5355    5361      13    5352    5346    5355    5364      16
    5349    5346    5340    5400      12    5349    5346    5355    5358      13
    5349    5346    5355    5361      13    5349    5346    5355    5364      16
    5346    5355    5364    5367      12    5346    5355    5364    5370      12
    5343    5340    5346    5349      12    5343    5340    5346    5352      12
    5343    5340    5346    5355      12    5343    5340    5400    5403      10
    5343    5340   -5400    5403       3    5343    5340   -5400    5403      11
    5343    5340    5400    5406       3    5340    5346    5355    5358      16
    5340    5346    5355    5361      16    5340    5400    5406    5409       2
    5337    5334    5340    5343       3    5337    5334    5340    5346       3
    5337    5334    5340    5400       3    5334    5340    5346    5349      12
    5334    5340    5346    5352      12    5424    5421    5427    5430       1
    5424    5421   -5427    5430       2    5421    5427    5433    5436       3
    5418    5412    5421    5424      10    5418    5412   -5421    5424       3
    5418    5412   -5421    5424      11    5418    5412    5421    5427       3
    5415    5412    5421    5424      10    5415    5412   -5421    5424       3
    5415    5412   -5421    5424      11    5415    5412    5421    5427       3
    5412    5421    5427    5430       2    5409    5406    5412    5415       3
    5409    5406    5412    5418       3    5409    5406    5412    5421       3
    5484    5481    5487    5490       1    5484    5481   -5487    5490       2
    5481    5487    5493    5496       3    5472    5469    5475    5478      29
    5466    5463    5469    5472      29    5466    5463    5469    5475      29
    5463    5469    5475    5478      29    5460    5457    5463    5466      29
    5460    5457    5463    5469      29    5457    5463    5469    5472      29
    5454    5451    5448    5475      29    5454    5451    5457    5460      29
    5454    5451    5457    5463      29    5451    5448    5475    5478      29
    5451    5457    5463    5466      29    5448    5451    5457    5460      29
    5448    5475    5469    5472      29    5445    5439    5433    5481      12
    5445    5439    5448    5451       3    5445    5439    5448    5475       3
    5442    5439    5433    5481      12    5442    5439    5448    5451       3
    5442    5439    5448    5475       3    5439    5448    5451    5454      29
    5439    5448    5475    5478      29    5436    5433    5439    5442      12
    5436    5433    5439    5445      12    5436    5433    5439    5448      12
    5436    5433    5481    5484      10    5436    5433   -5481    5484       3
    5436    5433   -5481    5484      11    5436    5433    5481    5487       3
    5433    5481    5487    5490       2    5430    5427    5433    5436       3
    5430    5427    5433    5439       3    5430    5427    5433    5481       3
    5427    5433    5439    5442      12    5427    5433    5439    5445      12
    5544    5541    5547    5550       1    5544    5541   -5547    5550       2
    5541    5547    5553    5556       3    5532    5529    5535    5538      29
    5526    5523    5529    5532      29    5526    5523    5529    5535      29
    5523    5529    5535    5538      29    5520    5517    5523    5526      29
    5520    5517    5523    5529      29    5517    5523    5529    5532      29
    5514    5511    5508    5535      29    5514    5511    5517    5520      29
    5514    5511    5517    5523      29    5511    5508    5535    5538      29
    5511    5517    5523    5526      29    5508    5511    5517    5520      29
    5508    5535    5529    5532      29    5505    5499    5493    5541      12
    5505    5499    5508    5511       3    5505    5499    5508    5535       3
    5502    5499    5493    5541      12    5502    5499    5508    5511       3
    5502    5499    5508    5535       3    5499    5508    5511    5514      29
    5499    5508    5535    5538      29    5496    5493    5499    5502      12
    5496    5493    5499    5505      12    5496    5493    5499    5508      12
    5496    5493    5541    5544      10    5496    5493   -5541    5544       3
    5496    5493   -5541    5544      11    5496    5493    5541    5547       3
    5493    5541    5547    5550       2    5490    5487    5493    5496       3
    5490    5487    5493    5499       3    5490    5487    5493    5541       3
    5487    5493    5499    5502      12    5487    5493    5499    5505      12
    5607    5604    5610    5613       1    5607    5604   -5610    5613       2
    5604    5610    5616    5619       3    5595    5592    5598    5601      29
    5589    5586    5583    5592      30    5586    5583    5592    5595      29
    5583    5592    5598    5601      29    5580    5577    5583    5586      29
    5580    5577    5583    5592      29    5577    5583    5586    5589      30
    5577    5583    5592    5595      29    5574    5571    5568    5598      29
    5574    5571    5577    5580      29    5574    5571    5577    5583      29
    5571    5568    5598    5601      29    5568    5571    5577    5580      29
    5568    5598    5592    5595      29    5565    5559    5553    5604      12
    5565    5559    5568    5571       3    5565    5559    5568    5598       3
    5562    5559    5553    5604      12    5562    5559    5568    5571       3
    5562    5559    5568    5598       3    5559    5568    5571    5574      29
    5559    5568    5598    5601      29    5556    5553    5559    5562      12
    5556    5553    5559    5565      12    5556    5553    5559    5568      12
    5556    5553    5604    5607      10    5556    5553   -5604    5607       3
    5556    5553   -5604    5607      11    5556    5553    5604    5610       3
    5553    5604    5610    5613       2    5550    5547    5553    5556       3
    5550    5547    5553    5559       3    5550    5547    5553    5604       3
    5547    5553    5559    5562      12    5547    5553    5559    5565      12
    5649    5646    5652    5655       1    5649    5646   -5652    5655       2
    5646    5652    5658    5661       3    5646    5652    5658    5664       3
    5646    5652    5658    5667       3    5637    5628    5622    5640      23
    5637    5628   -5622    5640      24    5634    5628    5622    5640      23
    5634    5628   -5622    5640      24    5631    5628    5622    5640      23
    5631    5628   -5622    5640      24    5628    5622    5640    5643      23
    5628    5622   -5640    5643      16    5625    5622    5616    5646      12
    5625    5622    5628    5631      12    5625    5622    5628    5634      12
    5625    5622    5628    5637      12    5625    5622    5640    5643      25
    5619    5616    5622    5625      12    5619    5616    5622    5628      12
    5619    5616    5622    5640      23    5619    5616   -5622    5640      24
    5619    5616    5646    5649      10    5619    5616   -5646    5649       3
    5619    5616   -5646    5649      11    5619    5616    5646    5652       3
    5616    5622    5628    5631      16    5616    5622    5628    5634      16
    5616    5622    5628    5637      16    5616    5622    5640    5643      23
    5616    5622   -5640    5643      16    5616    5646    5652    5655       2
    5613    5610    5616    5619       3    5613    5610    5616    5622       3
    5613    5610    5616    5646       3    5610    5616    5622    5625      12
    5655    5652    5658    5661       3    5655    5652    5658    5664       3
    5655    5652    5658    5667       3    5685    5682    5688    5691       1
    5685    5682   -5688    5691       2    5682    5688    5694    5697       3
    5679    5673    5682    5685      10    5679    5673   -5682    5685       3
    5679    5673   -5682    5685      11    5679    5673    5682    5688       3
    5676    5673    5682    5685      10    5676    5673   -5682    5685       3
    5676    5673   -5682    5685      11    5676    5673    5682    5688       3
    5673    5682    5688    5691       2    5670    5673    5682    5685      10
    5670    5673   -5682    5685       3    5670    5673   -5682    5685      11
    5670    5673    5682    5688       3    5736    5733    5739    5742       1
    5736    5733   -5739    5742       2    5733    5739    5745    5748       3
    5721    5718    5724    5727       1    5721    5718   -5724    5727       2
    5721    5718    5724    5730       1    5721    5718   -5724    5730       2
    5715    5709    5718    5721      10    5715    5709   -5718    5721       3
    5715    5709   -5718    5721      11    5715    5709    5718    5724       3
    5712    5709    5718    5721      10    5712    5709   -5718    5721       3
    5712    5709   -5718    5721      11    5712    5709    5718    5724       3
    5709    5718    5724    5727       2    5709    5718    5724    5730       2
    5706    5700    5694    5733      12    5706    5700    5709    5712      13
    5706    5700    5709    5715      13    5706    5700    5709    5718      12
    5703    5700    5694    5733      12    5703    5700    5709    5712      13
    5703    5700    5709    5715      13    5703    5700    5709    5718      12
    5697    5694    5700    5703      12    5697    5694    5700    5706      12
    5697    5694    5700    5709      12    5697    5694    5733    5736      10
    5697    5694   -5733    5736       3    5697    5694   -5733    5736      11
    5697    5694    5733    5739       3    5694    5700    5709    5712      16
    5694    5700    5709    5715      16    5694    5733    5739    5742       2
    5691    5688    5694    5697       3    5691    5688    5694    5700       3
    5691    5688    5694    5733       3    5688    5694    5700    5703      12
    5688    5694    5700    5706      12    5766    5763    5769    5772       1
    5766    5763   -5769    5772       2    5763    5769    5775    5778       3
    5760    5952    5943    5946      20    5760    5952    5943    5949      20
    5757    5751    5745    5763      12    5757    5751    5760    5952      20
    5754    5751    5745    5763      12    5754    5751    5760    5952      20
    5748    5745    5751    5754      12    5748    5745    5751    5757      12
    5748    5745    5751    5760      12    5748    5745    5763    5766      10
    5748    5745   -5763    5766       3    5748    5745   -5763    5766      11
    5748    5745    5763    5769       3    5745    5763    5769    5772       2
    5742    5739    5745    5748       3    5742    5739    5745    5751       3
    5742    5739    5745    5763       3    5739    5745    5751    5754      12
    5739    5745    5751    5757      12    5796    5793    5799    5802       1
    5796    5793   -5799    5802       2    5793    5799    5805    5808       3
    5790    6582    6573    6576      20    5790    6582    6573    6579      20
    5787    5781    5775    5793      12    5787    5781    5790    6582      20
    5784    5781    5775    5793      12    5784    5781    5790    6582      20
    5778    5775    5781    5784      12    5778    5775    5781    5787      12
    5778    5775    5781    5790      12    5778    5775    5793    5796      10
    5778    5775   -5793    5796       3    5778    5775   -5793    5796      11
    5778    5775    5793    5799       3    5775    5793    5799    5802       2
    5772    5769    5775    5778       3    5772    5769    5775    5781       3
    5772    5769    5775    5793       3    5769    5775    5781    5784      12
    5769    5775    5781    5787      12    5838    5835    5841    5844       1
    5838    5835   -5841    5844       2    5835    5841    5847    5850       3
    5826    5817    5811    5829      23    5826    5817   -5811    5829      24
    5823    5817    5811    5829      23    5823    5817   -5811    5829      24
    5820    5817    5811    5829      23    5820    5817   -5811    5829      24
    5817    5811    5829    5832      23    5817    5811   -5829    5832      16
    5814    5811    5805    5835      12    5814    5811    5817    5820      12
    5814    5811    5817    5823      12    5814    5811    5817    5826      12
    5814    5811    5829    5832      25    5808    5805    5811    5814      12
    5808    5805    5811    5817      12    5808    5805    5811    5829      23
    5808    5805   -5811    5829      24    5808    5805    5835    5838      10
    5808    5805   -5835    5838       3    5808    5805   -5835    5838      11
    5808    5805    5835    5841       3    5805    5811    5817    5820      16
    5805    5811    5817    5823      16    5805    5811    5817    5826      16
    5805    5811    5829    5832      23    5805    5811   -5829    5832      16
    5805    5835    5841    5844       2    5802    5799    5805    5808       3
    5802    5799    5805    5811       3    5802    5799    5805    5835       3
    5799    5805    5811    5814      12    5871    5868    5874    5877       1
    5871    5868   -5874    5877       2    5868    5874    5880    5883       3
    5859    5853    5847    5868      12    5859    5853    5862    5865      25
    5856    5853    5847    5868      12    5856    5853    5862    5865      25
    5850    5847    5853    5856      12    5850    5847    5853    5859      12
    5850    5847    5853    5862      23    5850    5847   -5853    5862      24
    5850    5847    5868    5871      10    5850    5847   -5868    5871       3
    5850    5847   -5868    5871      11    5850    5847    5868    5874       3
    5847    5853    5862    5865      23    5847    5853   -5862    5865      16
    5847    5868    5874    5877       2    5844    5841    5847    5850       3
    5844    5841    5847    5853       3    5844    5841    5847    5868       3
    5841    5847    5853    5856      12    5841    5847    5853    5859      12
    5928    5925    5931    5934       1    5928    5925   -5931    5934       2
    5925    5931    5937    5940       3    5910    5904    5913    5916      13
    5910    5904    5913    5919      13    5910    5904    5913    5922      13
    5907    5904    5913    5916      13    5907    5904    5913    5919      13
    5907    5904    5913    5922      13    5901    5892    5886    5904      16
    5898    5892    5886    5904      16    5895    5892    5886    5904      16
    5892    5886    5904    5907      16    5892    5886    5904    5910      16
    5889    5886    5880    5925      12    5889    5886    5892    5895      13
    5889    5886    5892    5898      13    5889    5886    5892    5901      13
    5889    5886    5904    5907      13    5889    5886    5904    5910      13
    5889    5886    5904    5913      16    5886    5904    5913    5916      16
    5886    5904    5913    5919      16    5886    5904    5913    5922      16
    5883    5880    5886    5889      12    5883    5880    5886    5892      12
    5883    5880    5886    5904      12    5883    5880    5925    5928      10
    5883    5880   -5925    5928       3    5883    5880   -5925    5928      11
    5883    5880    5925    5931       3    5880    5886    5892    5895      16
    5880    5886    5892    5898      16    5880    5886    5892    5901      16
    5880    5886    5904    5907      16    5880    5886    5904    5910      16
    5880    5925    5931    5934       2    5877    5874    5880    5883       3
    5877    5874    5880    5886       3    5877    5874    5880    5925       3
    5874    5880    5886    5889      12    5958    5955    5961    5964       1
    5958    5955   -5961    5964       2    5955    5961    5967    5970       3
    5949    5943    5937    5955      12    5946    5943    5937    5955      12
    5940    5937    5943    5946      12    5940    5937    5943    5949      12
    5940    5937    5943    5952      12    5940    5937    5955    5958      10
    5940    5937   -5955    5958       3    5940    5937   -5955    5958      11
    5940    5937    5955    5961       3    5937    5955    5961    5964       2
    5934    5931    5937    5940       3    5934    5931    5937    5943       3
    5934    5931    5937    5955       3    5931    5937    5943    5946      12
    5931    5937    5943    5949      12    5991    5988    5994    5997       1
    5991    5988   -5994    5997       2    5988    5994    6000    6003       3
    5979    5973    5967    5988      12    5979    5973    5982    5985      25
    5976    5973    5967    5988      12    5976    5973    5982    5985      25
    5970    5967    5973    5976      12    5970    5967    5973    5979      12
    5970    5967    5973    5982      23    5970    5967   -5973    5982      24
    5970    5967    5988    5991      10    5970    5967   -5988    5991       3
    5970    5967   -5988    5991      11    5970    5967    5988    5994       3
    5967    5973    5982    5985      23    5967    5973   -5982    5985      16
    5967    5988    5994    5997       2    5964    5961    5967    5970       3
    5964    5961    5967    5973       3    5964    5961    5967    5988       3
    5961    5967    5973    5976      12    5961    5967    5973    5979      12
    6048    6045    6051    6054       1    6048    6045   -6051    6054       2
    6045    6051    6057    6060       3    6030    6021    6015    6033      16
    6027    6021    6015    6033      16    6024    6021    6015    6033      16
    6021    6015    6033    6036      16    6021    6015    6033    6039      16
    6021    6015    6033    6042      16    6018    6015    6021    6024      13
    6018    6015    6021    6027      13    6018    6015    6021    6030      13
    6018    6015    6033    6036      13    6018    6015    6033    6039      13
    6018    6015    6033    6042      13    6012    6006    6000    6045      12
    6012    6006    6015    6018      13    6012    6006    6015    6021      16
    6012    6006    6015    6033      16    6009    6006    6000    6045      12
    6009    6006    6015    6018      13    6009    6006    6015    6021      16
    6009    6006    6015    6033      16    6006    6015    6021    6024      16
    6006    6015    6021    6027      16    6006    6015    6021    6030      16
    6006    6015    6033    6036      16    6006    6015    6033    6039      16
    6006    6015    6033    6042      16    6003    6000    6006    6009      12
    6003    6000    6006    6012      12    6003    6000    6006    6015      12
    6003    6000    6045    6048      10    6003    6000   -6045    6048       3
    6003    6000   -6045    6048      11    6003    6000    6045    6051       3
    6000    6006    6015    6018      16    6000    6045    6051    6054       2
    5997    5994    6000    6003       3    5997    5994    6000    6006       3
    5997    5994    6000    6045       3    5994    6000    6006    6009      12
    5994    6000    6006    6012      12    6111    6108    6114    6117       1
    6111    6108   -6114    6117       2    6108    6114    6120    6123       3
    6099    6096    6102    6105      29    6093    6090    6087    6096      30
    6090    6087    6096    6099      29    6087    6096    6102    6105      29
    6084    6081    6087    6090      29    6084    6081    6087    6096      29
    6081    6087    6090    6093      30    6081    6087    6096    6099      29
    6078    6075    6072    6102      29    6078    6075    6081    6084      29
    6078    6075    6081    6087      29    6075    6072    6102    6105      29
    6072    6075    6081    6084      29    6072    6102    6096    6099      29
    6069    6063    6057    6108      12    6069    6063    6072    6075       3
    6069    6063    6072    6102       3    6066    6063    6057    6108      12
    6066    6063    6072    6075       3    6066    6063    6072    6102       3
    6063    6072    6075    6078      29    6063    6072    6102    6105      29
    6060    6057    6063    6066      12    6060    6057    6063    6069      12
    6060    6057    6063    6072      12    6060    6057    6108    6111      10
    6060    6057   -6108    6111       3    6060    6057   -6108    6111      11
    6060    6057    6108    6114       3    6057    6108    6114    6117       2
    6054    6051    6057    6060       3    6054    6051    6057    6063       3
    6054    6051    6057    6108       3    6051    6057    6063    6066      12
    6051    6057    6063    6069      12    6162    6159    6165    6168       1
    6162    6159   -6165    6168       2    6159    6165    6171    6174       3
    6147    6144    6150    6153       1    6147    6144   -6150    6153       2
    6147    6144    6150    6156       1    6147    6144   -6150    6156       2
    6141    6135    6144    6147      10    6141    6135   -6144    6147       3
    6141    6135   -6144    6147      11    6141    6135    6144    6150       3
    6138    6135    6144    6147      10    6138    6135   -6144    6147       3
    6138    6135   -6144    6147      11    6138    6135    6144    6150       3
    6135    6144    6150    6153       2    6135    6144    6150    6156       2
    6132    6126    6120    6159      12    6132    6126    6135    6138      13
    6132    6126    6135    6141      13    6132    6126    6135    6144      12
    6129    6126    6120    6159      12    6129    6126    6135    6138      13
    6129    6126    6135    6141      13    6129    6126    6135    6144      12
    6123    6120    6126    6129      12    6123    6120    6126    6132      12
    6123    6120    6126    6135      12    6123    6120    6159    6162      10
    6123    6120   -6159    6162       3    6123    6120   -6159    6162      11
    6123    6120    6159    6165       3    6120    6126    6135    6138      16
    6120    6126    6135    6141      16    6120    6159    6165    6168       2
    6117    6114    6120    6123       3    6117    6114    6120    6126       3
    6117    6114    6120    6159       3    6114    6120    6126    6129      12
    6114    6120    6126    6132      12    6219    6216    6222    6225       1
    6219    6216   -6222    6225       2    6216    6222    6228    6231       3
    6201    6192    6186    6204      16    6198    6192    6186    6204      16
    6195    6192    6186    6204      16    6192    6186    6204    6207      16
    6192    6186    6204    6210      16    6192    6186    6204    6213      16
    6189    6186    6192    6195      13    6189    6186    6192    6198      13
    6189    6186    6192    6201      13    6189    6186    6204    6207      13
    6189    6186    6204    6210      13    6189    6186    6204    6213      13
    6183    6177    6171    6216      12    6183    6177    6186    6189      13
    6183    6177    6186    6192      16    6183    6177    6186    6204      16
    6180    6177    6171    6216      12    6180    6177    6186    6189      13
    6180    6177    6186    6192      16    6180    6177    6186    6204      16
    6177    6186    6192    6195      16    6177    6186    6192    6198      16
    6177    6186    6192    6201      16    6177    6186    6204    6207      16
    6177    6186    6204    6210      16    6177    6186    6204    6213      16
    6174    6171    6177    6180      12    6174    6171    6177    6183      12
    6174    6171    6177    6186      12    6174    6171    6216    6219      10
    6174    6171   -6216    6219       3    6174    6171   -6216    6219      11
    6174    6171    6216    6222       3    6171    6177    6186    6189      16
    6171    6216    6222    6225       2    6168    6165    6171    6174       3
    6168    6165    6171    6177       3    6168    6165    6171    6216       3
    6165    6171    6177    6180      12    6165    6171    6177    6183      12
    6267    6264    6279    6282       1    6267    6264   -6279    6282       2
    6264    6279    6285    6288       3    6258    6252    6255    6273      30
    6258    6252    6255    6276      30    6255    6252    6258    6261      30
    6255    6252    6258    6270      30    6249    6243    6252    6255       3
    6249    6243    6252    6258       3    6246    6243    6252    6255       3
    6246    6243    6252    6258       3    6243    6252    6255    6273      30
    6243    6252    6255    6276      30    6243    6252    6258    6261      30
    6243    6252    6258    6270      30    6240    6234    6228    6264      12
    6240    6234    6243    6246      13    6240    6234    6243    6249      13
    6240    6234    6243    6252      12    6237    6234    6228    6264      12
    6237    6234    6243    6246      13    6237    6234    6243    6249      13
    6237    6234    6243    6252      12    6231    6228    6234    6237      12
    6231    6228    6234    6240      12    6231    6228    6234    6243      12
    6231    6228    6264    6267      10    6231    6228   -6264    6267       3
    6231    6228   -6264    6267      11    6231    6228    6264    6279       3
    6228    6234    6243    6246      16    6228    6234    6243    6249      16
    6228    6264    6279    6282       2    6225    6222    6228    6231       3
    6225    6222    6228    6234       3    6225    6222    6228    6264       3
    6222    6228    6234    6237      12    6222    6228    6234    6240      12
    6318    6315    6321    6324       1    6318    6315   -6321    6324       2
    6315    6321    6327    6330       3    6303    6300    6306    6309       1
    6303    6300   -6306    6309       2    6303    6300    6306    6312       1
    6303    6300   -6306    6312       2    6297    6291    6285    6315      12
    6297    6291    6300    6303      10    6297    6291   -6300    6303       3
    6297    6291   -6300    6303      11    6297    6291    6300    6306       3
    6294    6291    6285    6315      12    6294    6291    6300    6303      10
    6294    6291   -6300    6303       3    6294    6291   -6300    6303      11
    6294    6291    6300    6306       3    6291    6300    6306    6309       2
    6291    6300    6306    6312       2    6288    6285    6291    6294      12
    6288    6285    6291    6297      12    6288    6285    6291    6300      12
    6288    6285    6315    6318      10    6288    6285   -6315    6318       3
    6288    6285   -6315    6318      11    6288    6285    6315    6321       3
    6285    6315    6321    6324       2    6282    6279    6285    6288       3
    6282    6279    6285    6291       3    6282    6279    6285    6315       3
    6279    6285    6291    6294      12    6279    6285    6291    6297      12
    6381    6378    6384    6387       1    6381    6378   -6384    6387       2
    6378    6384    6390    6393       3    6369    6366    6372    6375      29
    6363    6360    6357    6366      30    6360    6357    6366    6369      29
    6357    6366    6372    6375      29    6354    6351    6357    6360      29
    6354    6351    6357    6366      29    6351    6357    6360    6363      30
    6351    6357    6366    6369      29    6348    6345    6342    6372      29
    6348    6345    6351    6354      29    6348    6345    6351    6357      29
    6345    6342    6372    6375      29    6342    6345    6351    6354      29
    6342    6372    6366    6369      29    6339    6333    6327    6378      12
    6339    6333    6342    6345       3    6339    6333    6342    6372       3
    6336    6333    6327    6378      12    6336    6333    6342    6345       3
    6336    6333    6342    6372       3    6333    6342    6345    6348      29
    6333    6342    6372    6375      29    6330    6327    6333    6336      12
    6330    6327    6333    6339      12    6330    6327    6333    6342      12
    6330    6327    6378    6381      10    6330    6327   -6378    6381       3
    6330    6327   -6378    6381      11    6330    6327    6378    6384       3
    6327    6378    6384    6387       2    6324    6321    6327    6330       3
    6324    6321    6327    6333       3    6324    6321    6327    6378       3
    6321    6327    6333    6336      12    6321    6327    6333    6339      12
    6411    6408    6414    6417       1    6411    6408   -6414    6417       2
    6408    6414    6420    6423       3    6408    6414    6420    6426       3
    6408    6414    6420    6429       3    6405    7137    7128    7131      20
    6405    7137    7128    7134      20    6402    6396    6390    6408      12
    6402    6396    6405    7137      20    6399    6396    6390    6408      12
    6399    6396    6405    7137      20    6393    6390    6396    6399      12
    6393    6390    6396    6402      12    6393    6390    6396    6405      12
    6393    6390    6408    6411      10    6393    6390   -6408    6411       3
    6393    6390   -6408    6411      11    6393    6390    6408    6414       3
    6390    6408    6414    6417       2    6387    6384    6390    6393       3
    6387    6384    6390    6396       3    6387    6384    6390    6408       3
    6384    6390    6396    6399      12    6384    6390    6396    6402      12
    6417    6414    6420    6423       3    6417    6414    6420    6426       3
    6417    6414    6420    6429       3    6447    6444    6450    6453       1
    6447    6444   -6450    6453       2    6444    6450    6456    6459       3
    6441    6435    6444    6447      10    6441    6435   -6444    6447       3
    6441    6435   -6444    6447      11    6441    6435    6444    6450       3
    6438    6435    6444    6447      10    6438    6435   -6444    6447       3
    6438    6435   -6444    6447      11    6438    6435    6444    6450       3
    6435    6444    6450    6453       2    6432    6435    6444    6447      10
    6432    6435   -6444    6447       3    6432    6435   -6444    6447      11
    6432    6435    6444    6450       3    6501    6498    6504    6507       1
    6501    6498   -6504    6507       2    6498    6504    6510    6513       3
    6489    6486    6492    6495      31    6483    6480    6486    6489      32
    6483    6480    6486    6492      32    6480    6486    6492    6495      31
    6477    6474    6471    6492      33    6477    6474    6480    6483      32
    6477    6474    6480    6486      32    6474    6471    6492    6495      34
    6474    6480    6486    6489      32    6471    6474    6480    6483      32
    6471    6492    6486    6489      31    6468    6462    6456    6498      12
    6468    6462    6471    6474       3    6468    6462    6471    6492       3
    6465    6462    6456    6498      12    6465    6462    6471    6474       3
    6465    6462    6471    6492       3    6462    6471    6474    6477      33
    6462    6471    6492    6495      34    6459    6456    6462    6465      12
    6459    6456    6462    6468      12    6459    6456    6462    6471      12
    6459    6456    6498    6501      10    6459    6456   -6498    6501       3
    6459    6456   -6498    6501      11    6459    6456    6498    6504       3
    6456    6498    6504    6507       2    6453    6450    6456    6459       3
    6453    6450    6456    6462       3    6453    6450    6456    6498       3
    6450    6456    6462    6465      12    6450    6456    6462    6468      12
    6558    6555    6561    6564       1    6558    6555   -6561    6564       2
    6555    6561    6567    6570       3    6540    6531    6525    6543      16
    6537    6531    6525    6543      16    6534    6531    6525    6543      16
    6531    6525    6543    6546      16    6531    6525    6543    6549      16
    6531    6525    6543    6552      16    6528    6525    6531    6534      13
    6528    6525    6531    6537      13    6528    6525    6531    6540      13
    6528    6525    6543    6546      13    6528    6525    6543    6549      13
    6528    6525    6543    6552      13    6522    6516    6510    6555      12
    6522    6516    6525    6528      13    6522    6516    6525    6531      16
    6522    6516    6525    6543      16    6519    6516    6510    6555      12
    6519    6516    6525    6528      13    6519    6516    6525    6531      16
    6519    6516    6525    6543      16    6516    6525    6531    6534      16
    6516    6525    6531    6537      16    6516    6525    6531    6540      16
    6516    6525    6543    6546      16    6516    6525    6543    6549      16
    6516    6525    6543    6552      16    6513    6510    6516    6519      12
    6513    6510    6516    6522      12    6513    6510    6516    6525      12
    6513    6510    6555    6558      10    6513    6510   -6555    6558       3
    6513    6510   -6555    6558      11    6513    6510    6555    6561       3
    6510    6516    6525    6528      16    6510    6555    6561    6564       2
    6507    6504    6510    6513       3    6507    6504    6510    6516       3
    6507    6504    6510    6555       3    6504    6510    6516    6519      12
    6504    6510    6516    6522      12    6588    6585    6591    6594       1
    6588    6585   -6591    6594       2    6585    6591    6597    6600       3
    6585    6591    6597    6603       3    6579    6573    6567    6585      12
    6576    6573    6567    6585      12    6570    6567    6573    6576      12
    6570    6567    6573    6579      12    6570    6567    6573    6582      12
    6570    6567    6585    6588      10    6570    6567   -6585    6588       3
    6570    6567   -6585    6588      11    6570    6567    6585    6591       3
    6567    6585    6591    6594       2    6564    6561    6567    6570       3
    6564    6561    6567    6573       3    6564    6561    6567    6585       3
    6561    6567    6573    6576      12    6561    6567    6573    6579      12
    6609    6606    6612    6615       1    6609    6606   -6612    6615       2
    6606    6612    6618    6621       3    6603    6597    6606    6609      10
    6603    6597   -6606    6609       3    6603    6597   -6606    6609      11
    6603    6597    6606    6612       3    6600    6597    6606    6609      10
    6600    6597   -6606    6609       3    6600    6597   -6606    6609      11
    6600    6597    6606    6612       3    6597    6606    6612    6615       2
    6594    6591    6597    6600       3    6594    6591    6597    6603       3
    6594    6591    6597    6606       3    6642    6639    6645    6648       1
    6642    6639   -6645    6648       2    6639    6645    6651    6654       3
    6630    6624    6618    6639      12    6630    6624    6633    6636      25
    6627    6624    6618    6639      12    6627    6624    6633    6636      25
    6621    6618    6624    6627      12    6621    6618    6624    6630      12
    6621    6618    6624    6633      23    6621    6618   -6624    6633      24
    6621    6618    6639    6642      10    6621    6618   -6639    6642       3
    6621    6618   -6639    6642      11    6621    6618    6639    6645       3
    6618    6624    6633    6636      23    6618    6624   -6633    6636      16
    6618    6639    6645    6648       2    6615    6612    6618    6621       3
    6615    6612    6618    6624       3    6615    6612    6618    6639       3
    6612    6618    6624    6627      12    6612    6618    6624    6630      12
    6696    6693    6699    6702       1    6696    6693   -6699    6702       2
    6693    6699    6705    6708       3    6684    6681    6687    6690      31
    6678    6675    6681    6684      32    6678    6675    6681    6687      32
    6675    6681    6687    6690      31    6672    6669    6666    6687      33
    6672    6669    6675    6678      32    6672    6669    6675    6681      32
    6669    6666    6687    6690      34    6669    6675    6681    6684      32
    6666    6669    6675    6678      32    6666    6687    6681    6684      31
    6663    6657    6651    6693      12    6663    6657    6666    6669       3
    6663    6657    6666    6687       3    6660    6657    6651    6693      12
    6660    6657    6666    6669       3    6660    6657    6666    6687       3
    6657    6666    6669    6672      33    6657    6666    6687    6690      34
    6654    6651    6657    6660      12    6654    6651    6657    6663      12
    6654    6651    6657    6666      12    6654    6651    6693    6696      10
    6654    6651   -6693    6696       3    6654    6651   -6693    6696      11
    6654    6651    6693    6699       3    6651    6693    6699    6702       2
    6648    6645    6651    6654       3    6648    6645    6651    6657       3
    6648    6645    6651    6693       3    6645    6651    6657    6660      12
    6645    6651    6657    6663      12    6753    6750    6756    6759       1
    6753    6750   -6756    6759       2    6750    6756    6762    6765       3
    6735    6726    6720    6738      16    6732    6726    6720    6738      16
    6729    6726    6720    6738      16    6726    6720    6738    6741      16
    6726    6720    6738    6744      16    6726    6720    6738    6747      16
    6723    6720    6726    6729      13    6723    6720    6726    6732      13
    6723    6720    6726    6735      13    6723    6720    6738    6741      13
    6723    6720    6738    6744      13    6723    6720    6738    6747      13
    6717    6711    6705    6750      12    6717    6711    6720    6723      13
    6717    6711    6720    6726      16    6717    6711    6720    6738      16
    6714    6711    6705    6750      12    6714    6711    6720    6723      13
    6714    6711    6720    6726      16    6714    6711    6720    6738      16
    6711    6720    6726    6729      16    6711    6720    6726    6732      16
    6711    6720    6726    6735      16    6711    6720    6738    6741      16
    6711    6720    6738    6744      16    6711    6720    6738    6747      16
    6708    6705    6711    6714      12    6708    6705    6711    6717      12
    6708    6705    6711    6720      12    6708    6705    6750    6753      10
    6708    6705   -6750    6753       3    6708    6705   -6750    6753      11
    6708    6705    6750    6756       3    6705    6711    6720    6723      16
    6705    6750    6756    6759       2    6702    6699    6705    6708       3
    6702    6699    6705    6711       3    6702    6699    6705    6750       3
    6699    6705    6711    6714      12    6699    6705    6711    6717      12
    6801    6798    6804    6807       1    6801    6798   -6804    6807       2
    6798    6804    6810    6813       3    6783    6774    6768    6786      16
    6780    6774    6768    6786      16    6777    6774    6768    6786      16
    6774    6768    6786    6789      16    6774    6768    6786    6792      16
    6774    6768    6786    6795      16    6771    6768    6762    6798      12
    6771    6768    6774    6777      13    6771    6768    6774    6780      13
    6771    6768    6774    6783      13    6771    6768    6786    6789      13
    6771    6768    6786    6792      13    6771    6768    6786    6795      13
    6765    6762    6768    6771      12    6765    6762    6768    6774      12
    6765    6762    6768    6786      12    6765    6762    6798    6801      10
    6765    6762   -6798    6801       3    6765    6762   -6798    6801      11
    6765    6762    6798    6804       3    6762    6768    6774    6777      16
    6762    6768    6774    6780      16    6762    6768    6774    6783      16
    6762    6768    6786    6789      16    6762    6768    6786    6792      16
    6762    6768    6786    6795      16    6762    6798    6804    6807       2
    6759    6756    6762    6765       3    6759    6756    6762    6768       3
    6759    6756    6762    6798       3    6756    6762    6768    6771      12
    6849    6846    6861    6864       1    6849    6846   -6861    6864       2
    6846    6861    6867    6870       3    6840    6834    6837    6855      30
    6840    6834    6837    6858      30    6837    6834    6840    6843      30
    6837    6834    6840    6852      30    6831    6825    6834    6837       3
    6831    6825    6834    6840       3    6828    6825    6834    6837       3
    6828    6825    6834    6840       3    6825    6834    6837    6855      30
    6825    6834    6837    6858      30    6825    6834    6840    6843      30
    6825    6834    6840    6852      30    6822    6816    6810    6846      12
    6822    6816    6825    6828      13    6822    6816    6825    6831      13
    6822    6816    6825    6834      12    6819    6816    6810    6846      12
    6819    6816    6825    6828      13    6819    6816    6825    6831      13
    6819    6816    6825    6834      12    6813    6810    6816    6819      12
    6813    6810    6816    6822      12    6813    6810    6816    6825      12
    6813    6810    6846    6849      10    6813    6810   -6846    6849       3
    6813    6810   -6846    6849      11    6813    6810    6846    6861       3
    6810    6816    6825    6828      16    6810    6816    6825    6831      16
    6810    6846    6861    6864       2    6807    6804    6810    6813       3
    6807    6804    6810    6816       3    6807    6804    6810    6846       3
    6804    6810    6816    6819      12    6804    6810    6816    6822      12
    6888    6885    6891    6894       1    6888    6885   -6891    6894       2
    6885    6891    6897    6900       3    6882    6873    6867    6885      12
    6879    6873    6867    6885      12    6876    6873    6867    6885      12
    6870    6867    6873    6876      12    6870    6867    6873    6879      12
    6870    6867    6873    6882      12    6870    6867    6885    6888      10
    6870    6867   -6885    6888       3    6870    6867   -6885    6888      11
    6870    6867    6885    6891       3    6867    6885    6891    6894       2
    6864    6861    6867    6870       3    6864    6861    6867    6873       3
    6864    6861    6867    6885       3    6861    6867    6873    6876      12
    6861    6867    6873    6879      12    6861    6867    6873    6882      12
    6945    6942    6948    6951       1    6945    6942   -6948    6951       2
    6942    6948    6954    6957       3    6927    6918    6912    6930      16
    6924    6918    6912    6930      16    6921    6918    6912    6930      16
    6918    6912    6930    6933      16    6918    6912    6930    6936      16
    6918    6912    6930    6939      16    6915    6912    6918    6921      13
    6915    6912    6918    6924      13    6915    6912    6918    6927      13
    6915    6912    6930    6933      13    6915    6912    6930    6936      13
    6915    6912    6930    6939      13    6909    6903    6897    6942      12
    6909    6903    6912    6915      13    6909    6903    6912    6918      16
    6909    6903    6912    6930      16    6906    6903    6897    6942      12
    6906    6903    6912    6915      13    6906    6903    6912    6918      16
    6906    6903    6912    6930      16    6903    6912    6918    6921      16
    6903    6912    6918    6924      16    6903    6912    6918    6927      16
    6903    6912    6930    6933      16    6903    6912    6930    6936      16
    6903    6912    6930    6939      16    6900    6897    6903    6906      12
    6900    6897    6903    6909      12    6900    6897    6903    6912      12
    6900    6897    6942    6945      10    6900    6897   -6942    6945       3
    6900    6897   -6942    6945      11    6900    6897    6942    6948       3
    6897    6903    6912    6915      16    6897    6942    6948    6951       2
    6894    6891    6897    6900       3    6894    6891    6897    6903       3
    6894    6891    6897    6942       3    6891    6897    6903    6906      12
    6891    6897    6903    6909      12    7008    7005    7011    7014       1
    7008    7005   -7011    7014       2    7005    7011    7017    7020       3
    6996    6993    6999    7002      29    6990    6987    6984    6993      30
    6987    6984    6993    6996      29    6984    6993    6999    7002      29
    6981    6978    6984    6987      29    6981    6978    6984    6993      29
    6978    6984    6987    6990      30    6978    6984    6993    6996      29
    6975    6972    6969    6999      29    6975    6972    6978    6981      29
    6975    6972    6978    6984      29    6972    6969    6999    7002      29
    6969    6972    6978    6981      29    6969    6999    6993    6996      29
    6966    6960    6954    7005      12    6966    6960    6969    6972       3
    6966    6960    6969    6999       3    6963    6960    6954    7005      12
    6963    6960    6969    6972       3    6963    6960    6969    6999       3
    6960    6969    6972    6975      29    6960    6969    6999    7002      29
    6957    6954    6960    6963      12    6957    6954    6960    6966      12
    6957    6954    6960    6969      12    6957    6954    7005    7008      10
    6957    6954   -7005    7008       3    6957    6954   -7005    7008      11
    6957    6954    7005    7011       3    6954    7005    7011    7014       2
    6951    6948    6954    6957       3    6951    6948    6954    6960       3
    6951    6948    6954    7005       3    6948    6954    6960    6963      12
    6948    6954    6960    6966      12    7065    7062    7068    7071       1
    7065    7062   -7068    7071       2    7062    7068    7074    7077       3
    7047    7038    7032    7050      16    7044    7038    7032    7050      16
    7041    7038    7032    7050      16    7038    7032    7050    7053      16
    7038    7032    7050    7056      16    7038    7032    7050    7059      16
    7035    7032    7038    7041      13    7035    7032    7038    7044      13
    7035    7032    7038    7047      13    7035    7032    7050    7053      13
    7035    7032    7050    7056      13    7035    7032    7050    7059      13
    7029    7023    7017    7062      12    7029    7023    7032    7035      13
    7029    7023    7032    7038      16    7029    7023    7032    7050      16
    7026    7023    7017    7062      12    7026    7023    7032    7035      13
    7026    7023    7032    7038      16    7026    7023    7032    7050      16
    7023    7032    7038    7041      16    7023    7032    7038    7044      16
    7023    7032    7038    7047      16    7023    7032    7050    7053      16
    7023    7032    7050    7056      16    7023    7032    7050    7059      16
    7020    7017    7023    7026      12    7020    7017    7023    7029      12
    7020    7017    7023    7032      12    7020    7017    7062    7065      10
    7020    7017   -7062    7065       3    7020    7017   -7062    7065      11
    7020    7017    7062    7068       3    7017    7023    7032    7035      16
    7017    7062    7068    7071       2    7014    7011    7017    7020       3
    7014    7011    7017    7023       3    7014    7011    7017    7062       3
    7011    7017    7023    7026      12    7011    7017    7023    7029      12
    7113    7110    7116    7119       1    7113    7110   -7116    7119       2
    7110    7116    7122    7125       3    7095    7086    7080    7098      16
    7092    7086    7080    7098      16    7089    7086    7080    7098      16
    7086    7080    7098    7101      16    7086    7080    7098    7104      16
    7086    7080    7098    7107      16    7083    7080    7074    7110      12
    7083    7080    7086    7089      13    7083    7080    7086    7092      13
    7083    7080    7086    7095      13    7083    7080    7098    7101      13
    7083    7080    7098    7104      13    7083    7080    7098    7107      13
    7077    7074    7080    7083      12    7077    7074    7080    7086      12
    7077    7074    7080    7098      12    7077    7074    7110    7113      10
    7077    7074   -7110    7113       3    7077    7074   -7110    7113      11
    7077    7074    7110    7116       3    7074    7080    7086    7089      16
    7074    7080    7086    7092      16    7074    7080    7086    7095      16
    7074    7080    7098    7101      16    7074    7080    7098    7104      16
    7074    7080    7098    7107      16    7074    7110    7116    7119       2
    7071    7068    7074    7077       3    7071    7068    7074    7080       3
    7071    7068    7074    7110       3    7068    7074    7080    7083      12
    7143    7140    7146    7149       1    7143    7140   -7146    7149       2
    7140    7146    7152    7155       3    7140    7146    7152    7158       3
    7134    7128    7122    7140      12    7131    7128    7122    7140      12
    7125    7122    7128    7131      12    7125    7122    7128    7134      12
    7125    7122    7128    7137      12    7125    7122    7140    7143      10
    7125    7122   -7140    7143       3    7125    7122   -7140    7143      11
    7125    7122    7140    7146       3    7122    7140    7146    7149       2
    7119    7116    7122    7125       3    7119    7116    7122    7128       3
    7119    7116    7122    7140       3    7116    7122    7128    7131      12
    7116    7122    7128    7134      12    7164    7161    7167    7170       1
    7164    7161   -7167    7170       2    7161    7167    7173    7176       3
    7158    7152    7161    7164      10    7158    7152   -7161    7164       3
    7158    7152   -7161    7164      11    7158    7152    7161    7167       3
    7155    7152    7161    7164      10    7155    7152   -7161    7164       3
    7155    7152   -7161    7164      11    7155    7152    7161    7167       3
    7152    7161    7167    7170       2    7149    7146    7152    7155       3
    7149    7146    7152    7158       3    7149    7146    7152    7161       3
    7212    7209    7224    7227       1    7212    7209   -7224    7227       2
    7209    7224    7230    7233       3    7203    7197    7200    7218      30
    7203    7197    7200    7221      30    7200    7197    7203    7206      30
    7200    7197    7203    7215      30    7194    7188    7197    7200       3
    7194    7188    7197    7203       3    7191    7188    7197    7200       3
    7191    7188    7197    7203       3    7188    7197    7200    7218      30
    7188    7197    7200    7221      30    7188    7197    7203    7206      30
    7188    7197    7203    7215      30    7185    7179    7173    7209      12
    7185    7179    7188    7191      13    7185    7179    7188    7194      13
    7185    7179    7188    7197      12    7182    7179    7173    7209      12
    7182    7179    7188    7191      13    7182    7179    7188    7194      13
    7182    7179    7188    7197      12    7176    7173    7179    7182      12
    7176    7173    7179    7185      12    7176    7173    7179    7188      12
    7176    7173    7209    7212      10    7176    7173   -7209    7212       3
    7176    7173   -7209    7212      11    7176    7173    7209    7224       3
    7173    7179    7188    7191      16    7173    7179    7188    7194      16
    7173    7209    7224    7227       2    7170    7167    7173    7176       3
    7170    7167    7173    7179       3    7170    7167    7173    7209       3
    7167    7173    7179    7182      12    7167    7173    7179    7185      12
    7293    7290    7296    7299       1    7293    7290   -7296    7299       2
    7290    7296    7302    7305       3    7290    7296    7302    7308       3
    7278    7272    7269    7281      35    7275    7272    7269    7281      35
    7272    7269    7281    7284      35    7272    7269    7281    7287      35
    7266    7263    7269    7272      35    7266    7263    7269    7281      35
    7263    7269    7272    7275      35    7263    7269    7272    7278      35
    7263    7269    7281    7284      35    7263    7269    7281    7287      35
    7260    7254    7263    7266      24    7260    7254    7263    7269      24
    7257    7254    7263    7266      24    7257    7254    7263    7269      24
    7251    7245    7254    7257      12    7251    7245    7254    7260      12
    7251    7245    7254    7263      12    7248    7245    7254    7257      12
    7248    7245    7254    7260      12    7248    7245    7254    7263      12
    7245    7254    7263    7266      24    7242    7236    7230    7290      12
    7242    7236    7245    7248      13    7242    7236    7245    7251      13
    7242    7236    7245    7254      16    7239    7236    7230    7290      12
    7239    7236    7245    7248      13    7239    7236    7245    7251      13
    7239    7236    7245    7254      16    7236    7245    7254    7257      12
    7236    7245    7254    7260      12    7233    7230    7236    7239      12
    7233    7230    7236    7242      12    7233    7230    7236    7245      12
    7233    7230    7290    7293      10    7233    7230   -7290    7293       3
    7233    7230   -7290    7293      11    7233    7230    7290    7296       3
    7230    7236    7245    7248      16    7230    7236    7245    7251      16
    7230    7290    7296    7299       2    7227    7224    7230    7233       3
    7227    7224    7230    7236       3    7227    7224    7230    7290       3
    7224    7230    7236    7239      12    7224    7230    7236    7242      12
    7314    7311    7317    7320       1    7314    7311   -7317    7320       2
    7311    7317    7323    7326       3    7308    7302    7311    7314      10
    7308    7302   -7311    7314       3    7308    7302   -7311    7314      11
    7308    7302    7311    7317       3    7305    7302    7311    7314      10
    7305    7302   -7311    7314       3    7305    7302   -7311    7314      11
    7305    7302    7311    7317       3    7302    7311    7317    7320       2
    7299    7296    7302    7305       3    7299    7296    7302    7308       3
    7299    7296    7302    7311       3    7374    7371    7377    7380       1
    7374    7371   -7377    7380       2    7371    7377    7383    7386       3
    7362    7359    7365    7368      29    7356    7353    7359    7362      29
    7356    7353    7359    7365      29    7353    7359    7365    7368      29
    7350    7347    7353    7356      29    7350    7347    7353    7359      29
    7347    7353    7359    7362      29    7344    7341    7338    7365      29
    7344    7341    7347    7350      29    7344    7341    7347    7353      29
    7341    7338    7365    7368      29    7341    7347    7353    7356      29
    7338    7341    7347    7350      29    7338    7365    7359    7362      29
    7335    7329    7323    7371      12    7335    7329    7338    7341       3
    7335    7329    7338    7365       3    7332    7329    7323    7371      12
    7332    7329    7338    7341       3    7332    7329    7338    7365       3
    7329    7338    7341    7344      29    7329    7338    7365    7368      29
    7326    7323    7329    7332      12    7326    7323    7329    7335      12
    7326    7323    7329    7338      12    7326    7323    7371    7374      10
    7326    7323   -7371    7374       3    7326    7323   -7371    7374      11
    7326    7323    7371    7377       3    7323    7371    7377    7380       2
    7320    7317    7323    7326       3    7320    7317    7323    7329       3
    7320    7317    7323    7371       3    7317    7323    7329    7332      12
    7317    7323    7329    7335      12    7434    7431    7437    7440       1
    7434    7431   -7437    7440       2    7431    7437    7443    7446       3
    7422    7419    7425    7428      29    7416    7413    7419    7422      29
    7416    7413    7419    7425      29    7413    7419    7425    7428      29
    7410    7407    7413    7416      29    7410    7407    7413    7419      29
    7407    7413    7419    7422      29    7404    7401    7398    7425      29
    7404    7401    7407    7410      29    7404    7401    7407    7413      29
    7401    7398    7425    7428      29    7401    7407    7413    7416      29
    7398    7401    7407    7410      29    7398    7425    7419    7422      29
    7395    7389    7383    7431      12    7395    7389    7398    7401       3
    7395    7389    7398    7425       3    7392    7389    7383    7431      12
    7392    7389    7398    7401       3    7392    7389    7398    7425       3
    7389    7398    7401    7404      29    7389    7398    7425    7428      29
    7386    7383    7389    7392      12    7386    7383    7389    7395      12
    7386    7383    7389    7398      12    7386    7383    7431    7434      10
    7386    7383   -7431    7434       3    7386    7383   -7431    7434      11
    7386    7383    7431    7437       3    7383    7431    7437    7440       2
    7380    7377    7383    7386       3    7380    7377    7383    7389       3
    7380    7377    7383    7431       3    7377    7383    7389    7392      12
    7377    7383    7389    7395      12    7497    7494    7500    7503       1
    7497    7494   -7500    7503       2    7494    7500    7506    7509       3
    7485    7482    7488    7491      29    7479    7476    7473    7482      30
    7476    7473    7482    7485      29    7473    7482    7488    7491      29
    7470    7467    7473    7476      29    7470    7467    7473    7482      29
    7467    7473    7476    7479      30    7467    7473    7482    7485      29
    7464    7461    7458    7488      29    7464    7461    7467    7470      29
    7464    7461    7467    7473      29    7461    7458    7488    7491      29
    7458    7461    7467    7470      29    7458    7488    7482    7485      29
    7455    7449    7443    7494      12    7455    7449    7458    7461       3
    7455    7449    7458    7488       3    7452    7449    7443    7494      12
    7452    7449    7458    7461       3    7452    7449    7458    7488       3
    7449    7458    7461    7464      29    7449    7458    7488    7491      29
    7446    7443    7449    7452      12    7446    7443    7449    7455      12
    7446    7443    7449    7458      12    7446    7443    7494    7497      10
    7446    7443   -7494    7497       3    7446    7443   -7494    7497      11
    7446    7443    7494    7500       3    7443    7494    7500    7503       2
    7440    7437    7443    7446       3    7440    7437    7443    7449       3
    7440    7437    7443    7494       3    7437    7443    7449    7452      12
    7437    7443    7449    7455      12    7539    7536    7542    7545       1
    7539    7536   -7542    7545       2    7536    7542    7548    7551       3
    7536    7542    7548    7554       3    7536    7542    7548    7557       3
    7527    7518    7512    7530      23    7527    7518   -7512    7530      24
    7524    7518    7512    7530      23    7524    7518   -7512    7530      24
    7521    7518    7512    7530      23    7521    7518   -7512    7530      24
    7518    7512    7530    7533      23    7518    7512   -7530    7533      16
    7515    7512    7506    7536      12    7515    7512    7518    7521      12
    7515    7512    7518    7524      12    7515    7512    7518    7527      12
    7515    7512    7530    7533      25    7509    7506    7512    7515      12
    7509    7506    7512    7518      12    7509    7506    7512    7530      23
    7509    7506   -7512    7530      24    7509    7506    7536    7539      10
    7509    7506   -7536    7539       3    7509    7506   -7536    7539      11
    7509    7506    7536    7542       3    7506    7512    7518    7521      16
    7506    7512    7518    7524      16    7506    7512    7518    7527      16
    7506    7512    7530    7533      23    7506    7512   -7530    7533      16
    7506    7536    7542    7545       2    7503    7500    7506    7509       3
    7503    7500    7506    7512       3    7503    7500    7506    7536       3
    7500    7506    7512    7515      12    7545    7542    7548    7551       3
    7545    7542    7548    7554       3    7545    7542    7548    7557       3
      48      57     -54     -60      37      12      24     -18     -21      38
      63      75     -69     -72      38      93     105     -99    -102      38
     123     135    -129    -132      38     165     177    -171    -174      38
     198     210    -204    -207      38     255     267    -261    -264      38
     285     297    -291    -294      38     318     330    -324    -327      38
     402     426    -432    -435      38     417     432    -426    -429      38
     405     417    -411    -414      38     402     411    -405    -408      38
     375     387    -381    -384      38     474     483    -480    -486      37
     438     450    -444    -447      38     489     501    -495    -498      38
     582     591    -588    -600      37     582     603    -585    -606      37
     546     558    -552    -555      38     630     639    -636    -642      37
     594     615    -609    -612      38     672     696    -702    -705      38
     687     702    -696    -699      38     675     687    -681    -684      38
     672     681    -675    -678      38     645     657    -651    -654      38
     708     720    -714    -717      38     738     750    -744    -747      38
     801     816    -822    -825      38     810     822    -816    -819      37
     804     816    -810    -813      38     801     810    -804    -807      37
     774     786    -780    -783      38     828     840    -834    -837      38
     885     897    -891    -894      38     915     927    -921    -924      38
     936     948    -942    -945      38     996    1011   -1017   -1020      38
    1005    1017   -1011   -1014      37     999    1011   -1005   -1008      38
     996    1005    -999   -1002      37     969     981    -975    -978      38
    1023    1035   -1029   -1032      38    1080    1092   -1086   -1089      38
    1164    1173   -1170   -1182      37    1164    1185   -1167   -1188      37
    1128    1140   -1134   -1137      38    1176    1197   -1191   -1194      38
    1215    1227   -1221   -1224      38    1299    1323   -1329   -1332      38
    1314    1329   -1323   -1326      38    1302    1314   -1308   -1311      38
    1299    1308   -1302   -1305      38    1272    1284   -1278   -1281      38
    1335    1347   -1341   -1344      38    1392    1404   -1398   -1401      38
    1440    1452   -1446   -1449      38    1470    1482   -1476   -1479      38
    1527    1536   -1533   -1545      37    1527    1548   -1530   -1551      37
    1491    1503   -1497   -1500      38    1599    1614   -1611   -1617      37
    1599    1605   -1602   -1608      37    1584    1599   -1593   -1596      37
    1539    1560   -1554   -1557      38    1620    1632   -1626   -1629      38
    1668    1689   -1695   -1698      38    1683    1695   -1689   -1692      38
    1677    1689   -1683   -1686      38    1671    1683   -1677   -1680      38
    1668    1677   -1671   -1674      38    1641    1653   -1647   -1650      38
    1728    1749   -1755   -1758      38    1743    1755   -1749   -1752      38
    1737    1749   -1743   -1746      38    1731    1743   -1737   -1740      38
    1728    1737   -1731   -1734      38    1701    1713   -1707   -1710      38
    1788    1812   -1818   -1821      38    1803    1818   -1812   -1815      38
    1791    1803   -1797   -1800      38    1788    1797   -1791   -1794      38
    1761    1773   -1767   -1770      38    1824    1836   -1830   -1833      38
    1866    1878   -1872   -1875      38    1938    1947   -1944   -1950      37
    1902    1914   -1908   -1911      38    1953    1965   -1959   -1962      38
    1983    1995   -1989   -1992      38    2013    2025   -2019   -2022      38
    2055    2067   -2061   -2064      38    2088    2100   -2094   -2097      38
    2145    2157   -2151   -2154      38    2175    2187   -2181   -2184      38
    2208    2220   -2214   -2217      38    2292    2316   -2322   -2325      38
    2307    2322   -2316   -2319      38    2295    2307   -2301   -2304      38
    2292    2301   -2295   -2298      38    2265    2277   -2271   -2274      38
    2364    2373   -2370   -2376      37    2328    2340   -2334   -2337      38
    2379    2391   -2385   -2388      38    2472    2481   -2478   -2490      37
    2472    2493   -2475   -2496      37    2436    2448   -2442   -2445      38
    2520    2529   -2526   -2532      37    2484    2505   -2499   -2502      38
    2562    2586   -2592   -2595      38    2577    2592   -2586   -2589      38
    2565    2577   -2571   -2574      38    2562    2571   -2565   -2568      38
    2535    2547   -2541   -2544      38    2598    2610   -2604   -2607      38
    2628    2640   -2634   -2637      38    2691    2706   -2712   -2715      38
    2700    2712   -2706   -2709      37    2694    2706   -2700   -2703      38
    2691    2700   -2694   -2697      37    2664    2676   -2670   -2673      38
    2718    2730   -2724   -2727      38    2775    2787   -2781   -2784      38
    2805    2817   -2811   -2814      38    2826    2838   -2832   -2835      38
    2886    2901   -2907   -2910      38    2895    2907   -2901   -2904      37
    2889    2901   -2895   -2898      38    2886    2895   -2889   -2892      37
    2859    2871   -2865   -2868      38    2913    2925   -2919   -2922      38
    2970    2982   -2976   -2979      38    3054    3063   -3060   -3072      37
    3054    3075   -3057   -3078      37    3018    3030   -3024   -3027      38
    3066    3087   -3081   -3084      38    3105    3117   -3111   -3114      38
    3189    3213   -3219   -3222      38    3204    3219   -3213   -3216      38
    3192    3204   -3198   -3201      38    3189    3198   -3192   -3195      38
    3162    3174   -3168   -3171      38    3225    3237   -3231   -3234      38
    3282    3294   -3288   -3291      38    3330    3342   -3336   -3339      38
    3360    3372   -3366   -3369      38    3417    3426   -3423   -3435      37
    3417    3438   -3420   -3441      37    3381    3393   -3387   -3390      38
    3489    3504   -3501   -3507      37    3489    3495   -3492   -3498      37
    3474    3489   -3483   -3486      37    3429    3450   -3444   -3447      38
    3510    3522   -3516   -3519      38    3558    3579   -3585   -3588      38
    3573    3585   -3579   -3582      38    3567    3579   -3573   -3576      38
    3561    3573   -3567   -3570      38    3558    3567   -3561   -3564      38
    3531    3543   -3537   -3540      38    3618    3639   -3645   -3648      38
    3633    3645   -3639   -3642      38    3627    3639   -3633   -3636      38
    3621    3633   -3627   -3630      38    3618    3627   -3621   -3624      38
    3591    3603   -3597   -3600      38    3678    3702   -3708   -3711      38
    3693    3708   -3702   -3705      38    3681    3693   -3687   -3690      38
    3678    3687   -3681   -3684      38    3651    3663   -3657   -3660      38
    3714    3726   -3720   -3723      38    3756    3768   -3762   -3765      38
    3828    3837   -3834   -3840      37    3792    3804   -3798   -3801      38
    3843    3855   -3849   -3852      38    3873    3885   -3879   -3882      38
    3903    3915   -3909   -3912      38    3945    3957   -3951   -3954      38
    3978    3990   -3984   -3987      38    4035    4047   -4041   -4044      38
    4065    4077   -4071   -4074      38    4098    4110   -4104   -4107      38
    4182    4206   -4212   -4215      38    4197    4212   -4206   -4209      38
    4185    4197   -4191   -4194      38    4182    4191   -4185   -4188      38
    4155    4167   -4161   -4164      38    4254    4263   -4260   -4266      37
    4218    4230   -4224   -4227      38    4269    4281   -4275   -4278      38
    4362    4371   -4368   -4380      37    4362    4383   -4365   -4386      37
    4326    4338   -4332   -4335      38    4410    4419   -4416   -4422      37
    4374    4395   -4389   -4392      38    4452    4476   -4482   -4485      38
    4467    4482   -4476   -4479      38    4455    4467   -4461   -4464      38
    4452    4461   -4455   -4458      38    4425    4437   -4431   -4434      38
    4488    4500   -4494   -4497      38    4518    4530   -4524   -4527      38
    4581    4596   -4602   -4605      38    4590    4602   -4596   -4599      37
    4584    4596   -4590   -4593      38    4581    4590   -4584   -4587      37
    4554    4566   -4560   -4563      38    4608    4620   -4614   -4617      38
    4665    4677   -4671   -4674      38    4695    4707   -4701   -4704      38
    4716    4728   -4722   -4725      38    4776    4791   -4797   -4800      38
    4785    4797   -4791   -4794      37    4779    4791   -4785   -4788      38
    4776    4785   -4779   -4782      37    4749    4761   -4755   -4758      38
    4803    4815   -4809   -4812      38    4860    4872   -4866   -4869      38
    4944    4953   -4950   -4962      37    4944    4965   -4947   -4968      37
    4908    4920   -4914   -4917      38    4956    4977   -4971   -4974      38
    4995    5007   -5001   -5004      38    5079    5103   -5109   -5112      38
    5094    5109   -5103   -5106      38    5082    5094   -5088   -5091      38
    5079    5088   -5082   -5085      38    5052    5064   -5058   -5061      38
    5115    5127   -5121   -5124      38    5172    5184   -5178   -5181      38
    5220    5232   -5226   -5229      38    5250    5262   -5256   -5259      38
    5307    5316   -5313   -5325      37    5307    5328   -5310   -5331      37
    5271    5283   -5277   -5280      38    5379    5394   -5391   -5397      37
    5379    5385   -5382   -5388      37    5364    5379   -5373   -5376      37
    5319    5340   -5334   -5337      38    5400    5412   -5406   -5409      38
    5448    5469   -5475   -5478      38    5463    5475   -5469   -5472      38
    5457    5469   -5463   -5466      38    5451    5463   -5457   -5460      38
    5448    5457   -5451   -5454      38    5421    5433   -5427   -5430      38
    5508    5529   -5535   -5538      38    5523    5535   -5529   -5532      38
    5517    5529   -5523   -5526      38    5511    5523   -5517   -5520      38
    5508    5517   -5511   -5514      38    5481    5493   -5487   -5490      38
    5568    5592   -5598   -5601      38    5583    5598   -5592   -5595      38
    5571    5583   -5577   -5580      38    5568    5577   -5571   -5574      38
    5541    5553   -5547   -5550      38    5604    5616   -5610   -5613      38
    5646    5658   -5652   -5655      38    5718    5727   -5724   -5730      37
    5682    5694   -5688   -5691      38    5733    5745   -5739   -5742      38
    5763    5775   -5769   -5772      38    5793    5805   -5799   -5802      38
    5835    5847   -5841   -5844      38    5868    5880   -5874   -5877      38
    5925    5937   -5931   -5934      38    5955    5967   -5961   -5964      38
    5988    6000   -5994   -5997      38    6072    6096   -6102   -6105      38
    6087    6102   -6096   -6099      38    6075    6087   -6081   -6084      38
    6072    6081   -6075   -6078      38    6045    6057   -6051   -6054      38
    6144    6153   -6150   -6156      37    6108    6120   -6114   -6117      38
    6159    6171   -6165   -6168      38    6252    6261   -6258   -6270      37
    6252    6273   -6255   -6276      37    6216    6228   -6222   -6225      38
    6300    6309   -6306   -6312      37    6264    6285   -6279   -6282      38
    6342    6366   -6372   -6375      38    6357    6372   -6366   -6369      38
    6345    6357   -6351   -6354      38    6342    6351   -6345   -6348      38
    6315    6327   -6321   -6324      38    6378    6390   -6384   -6387      38
    6408    6420   -6414   -6417      38    6471    6486   -6492   -6495      38
    6480    6492   -6486   -6489      37    6474    6486   -6480   -6483      38
    6471    6480   -6474   -6477      37    6444    6456   -6450   -6453      38
    6498    6510   -6504   -6507      38    6555    6567   -6561   -6564      38
    6585    6597   -6591   -6594      38    6606    6618   -6612   -6615      38
    6666    6681   -6687   -6690      38    6675    6687   -6681   -6684      37
    6669    6681   -6675   -6678      38    6666    6675   -6669   -6672      37
    6639    6651   -6645   -6648      38    6693    6705   -6699   -6702      38
    6750    6762   -6756   -6759      38    6834    6843   -6840   -6852      37
    6834    6855   -6837   -6858      37    6798    6810   -6804   -6807      38
    6846    6867   -6861   -6864      38    6885    6897   -6891   -6894      38
    6969    6993   -6999   -7002      38    6984    6999   -6993   -6996      38
    6972    6984   -6978   -6981      38    6969    6978   -6972   -6975      38
    6942    6954   -6948   -6951      38    7005    7017   -7011   -7014      38
    7062    7074   -7068   -7071      38    7110    7122   -7116   -7119      38
    7140    7152   -7146   -7149      38    7197    7206   -7203   -7215      37
    7197    7218   -7200   -7221      37    7161    7173   -7167   -7170      38
    7269    7284   -7281   -7287      37    7269    7275   -7272   -7278      37
    7254    7269   -7263   -7266      37    7209    7230   -7224   -7227      38
    7290    7302   -7296   -7299      38    7338    7359   -7365   -7368      38
    7353    7365   -7359   -7362      38    7347    7359   -7353   -7356      38
    7341    7353   -7347   -7350      38    7338    7347   -7341   -7344      38
    7311    7323   -7317   -7320      38    7398    7419   -7425   -7428      38
    7413    7425   -7419   -7422      38    7407    7419   -7413   -7416      38
    7401    7413   -7407   -7410      38    7398    7407   -7401   -7404      38
    7371    7383   -7377   -7380      38    7458    7482   -7488   -7491      38
    7473    7488   -7482   -7485      38    7461    7473   -7467   -7470      38
    7458    7467   -7461   -7464      38    7431    7443   -7437   -7440      38
    7494    7506   -7500   -7503      38    7536    7548   -7542   -7545      38
%FLAG DIHEDRALS_WITHOUT_HYDROGEN                                                
%FORMAT(10I8)                                                                   
      15      12      18      24       2      12      18      24      30       1
      12      18     -24      30       4      12      18     -24      30       5
      12      18     -24      30       6      12      18      24      63       7
      12      18     -24      63       8      12      18     -24      63       9
      12      18     -24      63       6       3      12      18      24       2
      66      63      69      75       2      63      69      75      81       1
      63      69     -75      81       4      63      69     -75      81       5
      63      69     -75      81       6      63      69      75      93       7
      63      69     -75      93       8      63      69     -75      93       9
      63      69     -75      93       6      39      30      24      63      12
      30      24      63      66       3      30      24      63      69      14
      30      24     -63      69      15      30      24     -63      69       5
      30      24     -63      69       6      30      39      48      51       3
      30      39      48      54      14      30      39     -48      54      15
      30      39     -48      54       5      30      39     -48      54       6
      24      30      39      48      12      24      63      69      75       2
      18      24      30      39      12      18      24      63      66       3
      18      24      63      69      17      18      24     -63      69      18
      18      24     -63      69      19      18      24     -63      69       6
      96      93      99     105       2      93      99     105     111       1
      93      99    -105     111       4      93      99    -105     111       5
      93      99    -105     111       6      93      99     105     123       7
      93      99    -105     123       8      93      99    -105     123       9
      93      99    -105     123       6      90      81      75      93      12
      90     282     273     267      20      81      75      93      96       3
      81      75      93      99      14      81      75     -93      99      15
      81      75     -93      99       5      81      75     -93      99       6
      81      90     282     273      21      81      90    -282     273      22
      75      81      90     282      20      75      93      99     105       2
      69      75      81      90      12      69      75      93      96       3
      69      75      93      99      17      69      75     -93      99      18
      69      75     -93      99      19      69      75     -93      99       6
     126     123     129     135       2     123     129     135     141       1
     123     129    -135     141       4     123     129    -135     141       5
     123     129    -135     141       6     123     129     135     165       7
     123     129    -135     165       8     123     129    -135     165       9
     123     129    -135     165       6     120     111     105     123      12
     120     912     903     897      20     111     105     123     126       3
     111     105     123     129      14     111     105    -123     129      15
     111     105    -123     129       5     111     105    -123     129       6
     111     120     912     903      21     111     120    -912     903      22
     105     111     120     912      20     105     123     129     135       2
      99     105     111     120      12      99     105     123     126       3
      99     105     123     129      17      99     105    -123     129      18
      99     105    -123     129      19      99     105    -123     129       6
     168     165     171     177       2     165     171     177     183       1
     165     171    -177     183       4     165     171    -177     183       5
     165     171    -177     183       6     165     171     177     198       7
     165     171    -177     198       8     165     171    -177     198       9
     165     171    -177     198       6     159     141     135     165      12
     147     141     135     165      12     141     135     165     168       3
     141     135     165     171      14     141     135    -165     171      15
     141     135    -165     171       5     141     135    -165     171       6
     135     165     171     177       2     129     135     141     147      12
     129     135     141     159      12     129     135     165     168       3
     129     135     165     171      17     129     135    -165     171      18
     129     135    -165     171      19     129     135    -165     171       6
     201     198     204     210       2     198     204     210     216       1
     198     204    -210     216       4     198     204    -210     216       5
     198     204    -210     216       6     198     204     210     255       7
     198     204    -210     255       8     198     204    -210     255       9
     198     204    -210     255       6     192     183     177     198      12
     183     177     198     201       3     183     177     198     204      14
     183     177    -198     204      15     183     177    -198     204       5
     183     177    -198     204       6     177     198     204     210       2
     171     177     183     192      12     171     177     198     201       3
     171     177     198     204      17     171     177    -198     204      18
     171     177    -198     204      19     171     177    -198     204       6
     258     255     261     267       2     255     261     267     273       1
     255     261    -267     273       4     255     261    -267     273       5
     255     261    -267     273       6     255     261     267     285       7
     255     261    -267     285       8     255     261    -267     285       9
     255     261    -267     285       6     234     216     210     255      12
     222     216     210     255      12     222     216     234     243      26
     222     216    -234     243      27     222     216    -234     243      28
     216     210     255     258       3     216     210     255     261      14
     216     210    -255     261      15     216     210    -255     261       5
     216     210    -255     261       6     210     216     234     243      26
     210     216    -234     243      27     210     216    -234     243      28
     210     255     261     267       2     204     210     216     222      12
     204     210     216     234      12     204     210     255     258       3
     204     210     255     261      17     204     210    -255     261      18
     204     210    -255     261      19     204     210    -255     261       6
     288     285     291     297       2     285     291     297     303       1
     285     291    -297     303       4     285     291    -297     303       5
     285     291    -297     303       6     285     291     297     318       7
     285     291    -297     318       8     285     291    -297     318       9
     285     291    -297     318       6     282     273     267     285      12
     273     267     285     288       3     273     267     285     291      14
     273     267    -285     291      15     273     267    -285     291       5
     273     267    -285     291       6     267     285     291     297       2
     261     267     273     282      12     261     267     285     288       3
     261     267     285     291      17     261     267    -285     291      18
     261     267    -285     291      19     261     267    -285     291       6
     321     318     324     330       2     318     324     330     336       1
     318     324    -330     336       4     318     324    -330     336       5
     318     324    -330     336       6     318     324     330     375       7
     318     324    -330     375       8     318     324    -330     375       9
     318     324    -330     375       6     312     303     297     318      12
     303     297     318     321       3     303     297     318     324      14
     303     297    -318     324      15     303     297    -318     324       5
     303     297    -318     324       6     297     318     324     330       2
     291     297     303     312      12     291     297     318     321       3
     291     297     318     324      17     291     297    -318     324      18
     291     297    -318     324      19     291     297    -318     324       6
     378     375     381     387       2     375     381     387     393       1
     375     381    -387     393       4     375     381    -387     393       5
     375     381    -387     393       6     375     381     387     438       7
     375     381    -387     438       8     375     381    -387     438       9
     375     381    -387     438       6     345     336     330     375      12
     336     330     375     378       3     336     330     375     381      14
     336     330    -375     381      15     336     330    -375     381       5
     336     330    -375     381       6     330     336     345     351      26
     330     336    -345     351      27     330     336    -345     351      28
     330     336     345     363      26     330     336    -345     363      27
     330     336    -345     363      28     330     375     381     387       2
     324     330     336     345      12     324     330     375     378       3
     324     330     375     381      17     324     330    -375     381      18
     324     330    -375     381      19     324     330    -375     381       6
     441     438     444     450       2     438     444     450     456       1
     438     444    -450     456       4     438     444    -450     456       5
     438     444    -450     456       6     438     444     450     489       7
     438     444    -450     489       8     438     444    -450     489       9
     438     444    -450     489       6     420     417     426     432      29
     411     405     402     432      29     411     417    -426     432      29
     405     402     432     426      29     405     411     417     420      29
     405     411    -417     426      29     402     393     387     438      12
     402     405     411     417      29     402     432    -426     417      29
     393     387     438     441       3     393     387     438     444      14
     393     387    -438     444      15     393     387    -438     444       5
     393     387    -438     444       6     393     402     405     411      29
     393     402     432     426      29     387     393     402     405       3
     387     393     402     432       3     387     438     444     450       2
     381     387     393     402      12     381     387     438     441       3
     381     387     438     444      17     381     387    -438     444      18
     381     387    -438     444      19     381     387    -438     444       6
     492     489     495     501       2     489     495     501     507       1
     489     495    -501     507       4     489     495    -501     507       5
     489     495    -501     507       6     489     495     501     546       7
     489     495    -501     546       8     489     495    -501     546       9
     489     495    -501     546       6     465     456     450     489      12
     456     450     489     492       3     456     450     489     495      14
     456     450    -489     495      15     456     450    -489     495       5
     456     450    -489     495       6     456     465     474     477       3
     456     465     474     480      14     456     465    -474     480      15
     456     465    -474     480       5     456     465    -474     480       6
     450     456     465     474      12     450     489     495     501       2
     444     450     456     465      12     444     450     489     492       3
     444     450     489     495      17     444     450    -489     495      18
     444     450    -489     495      19     444     450    -489     495       6
     549     546     552     558       2     546     552     558     564       1
     546     552    -558     564       4     546     552    -558     564       5
     546     552    -558     564       6     546     552     558     594       7
     546     552    -558     594       8     546     552    -558     594       9
     546     552    -558     594       6     516     507     501     546      12
     507     501     546     549       3     507     501     546     552      14
     507     501    -546     552      15     507     501    -546     552       5
     507     501    -546     552       6     501     507     516     522      26
     501     507    -516     522      27     501     507    -516     522      28
     501     507     516     534      26     501     507    -516     534      27
     501     507    -516     534      28     501     546     552     558       2
     495     501     507     516      12     495     501     546     549       3
     495     501     546     552      17     495     501    -546     552      18
     495     501    -546     552      19     495     501    -546     552       6
     597     594     609     615       2     594     609     615     621       1
     594     609    -615     621       4     594     609    -615     621       5
     594     609    -615     621       6     594     609     615     645       7
     594     609    -615     645       8     594     609    -615     645       9
     594     609    -615     645       6     573     564     558     594      12
     564     558     594     597       3     564     558     594     609      14
     564     558    -594     609      15     564     558    -594     609       5
     564     558    -594     609       6     564     573     582     585       3
     564     573     582     588       3     558     564     573     582      12
     558     594     609     615       2     552     558     564     573      12
     552     558     594     597       3     552     558     594     609      17
     552     558    -594     609      18     552     558    -594     609      19
     552     558    -594     609       6     648     645     651     657       2
     645     651     657     663       1     645     651    -657     663       4
     645     651    -657     663       5     645     651    -657     663       6
     645     651     657     708       7     645     651    -657     708       8
     645     651    -657     708       9     645     651    -657     708       6
     630     621     615     645      12     621     615     645     648       3
     621     615     645     651      14     621     615    -645     651      15
     621     615    -645     651       5     621     615    -645     651       6
     615     621     630     633       3     615     621     630     636      14
     615     621    -630     636      15     615     621    -630     636       5
     615     621    -630     636       6     615     645     651     657       2
     609     615     621     630      12     609     615     645     648       3
     609     615     645     651      17     609     615    -645     651      18
     609     615    -645     651      19     609     615    -645     651       6
     711     708     714     720       2     708     714     720     726       1
     708     714    -720     726       4     708     714    -720     726       5
     708     714    -720     726       6     708     714     720     738       7
     708     714    -720     738       8     708     714    -720     738       9
     708     714    -720     738       6     690     687     696     702      29
     681     675     672     702      29     681     687    -696     702      29
     675     672     702     696      29     675     681     687     690      29
     675     681    -687     696      29     672     663     657     708      12
     672     675     681     687      29     672     702    -696     687      29
     663     657     708     711       3     663     657     708     714      14
     663     657    -708     714      15     663     657    -708     714       5
     663     657    -708     714       6     663     672     675     681      29
     663     672     702     696      29     657     663     672     675       3
     657     663     672     702       3     657     708     714     720       2
     651     657     663     672      12     651     657     708     711       3
     651     657     708     714      17     651     657    -708     714      18
     651     657    -708     714      19     651     657    -708     714       6
     741     738     744     750       2     735     726     720     738      12
     735    1467    1458    1452      20     726     720     738     741       3
     726     720     738     744      14     726     720    -738     744      15
     726     720    -738     744       5     726     720    -738     744       6
     726     735    1467    1458      21     726     735   -1467    1458      22
     720     726     735    1467      20     720     738     744     750       2
     714     720     726     735      12     714     720     738     741       3
     714     720     738     744      17     714     720    -738     744      18
     714     720    -738     744      19     714     720    -738     744       6
     777     774     780     786       2     774     780     786     792       1
     774     780    -786     792       4     774     780    -786     792       5
     774     780    -786     792       6     774     780     786     828       7
     774     780    -786     828       8     774     780    -786     828       9
     774     780    -786     828       6     765     774     780     786       2
     831     828     834     840       2     828     834     840     846       1
     828     834    -840     846       4     828     834    -840     846       5
     828     834    -840     846       6     828     834     840     885       7
     828     834    -840     885       8     828     834    -840     885       9
     828     834    -840     885       6     810     804    -801     822      33
     804     801    -822     816      34     804     810    -816     822      32
     801     792     786     828      12     801     804    -810     816      32
     801     822    -816     810      31     792     786     828     831       3
     792     786     828     834      14     792     786    -828     834      15
     792     786    -828     834       5     792     786    -828     834       6
     792     801     804     810      33     792     801     822     816      34
     786     792     801     804       3     786     792     801     822       3
     786     828     834     840       2     780     786     792     801      12
     780     786     828     831       3     780     786     828     834      17
     780     786    -828     834      18     780     786    -828     834      19
     780     786    -828     834       6     888     885     891     897       2
     885     891     897     903       1     885     891    -897     903       4
     885     891    -897     903       5     885     891    -897     903       6
     885     891     897     915       7     885     891    -897     915       8
     885     891    -897     915       9     885     891    -897     915       6
     855     846     840     885      12     846     840     885     888       3
     846     840     885     891      14     846     840    -885     891      15
     846     840    -885     891       5     846     840    -885     891       6
     840     846     855     861      26     840     846    -855     861      27
     840     846    -855     861      28     840     846     855     873      26
     840     846    -855     873      27     840     846    -855     873      28
     840     885     891     897       2     834     840     846     855      12
     834     840     885     888       3     834     840     885     891      17
     834     840    -885     891      18     834     840    -885     891      19
     834     840    -885     891       6     918     915     921     927       2
     915     921     927     936       7     915     921    -927     936       8
     915     921    -927     936       9     915     921    -927     936       6
     912     903     897     915      12     903     897     915     918       3
     903     897     915     921      14     903     897    -915     921      15
     903     897    -915     921       5     903     897    -915     921       6
     897     915     921     927       2     891     897     903     912      12
     891     897     915     918       3     891     897     915     921      17
     891     897    -915     921      18     891     897    -915     921      19
     891     897    -915     921       6     939     936     942     948       2
     936     942     948     954       1     936     942    -948     954       4
     936     942    -948     954       5     936     942    -948     954       6
     936     942     948     969       7     936     942    -948     969       8
     936     942    -948     969       9     936     942    -948     969       6
     927     936     942     948       2     921     927     936     939       3
     921     927     936     942      17     921     927    -936     942      18
     921     927    -936     942      19     921     927    -936     942       6
     972     969     975     981       2     969     975     981     987       1
     969     975    -981     987       4     969     975    -981     987       5
     969     975    -981     987       6     969     975     981    1023       7
     969     975    -981    1023       8     969     975    -981    1023       9
     969     975    -981    1023       6     963     954     948     969      12
     954     948     969     972       3     954     948     969     975      14
     954     948    -969     975      15     954     948    -969     975       5
     954     948    -969     975       6     948     969     975     981       2
     942     948     954     963      12     942     948     969     972       3
     942     948     969     975      17     942     948    -969     975      18
     942     948    -969     975      19     942     948    -969     975       6
    1026    1023    1029    1035       2    1023    1029    1035    1041       1
    1023    1029   -1035    1041       4    1023    1029   -1035    1041       5
    1023    1029   -1035    1041       6    1023    1029    1035    1080       7
    1023    1029   -1035    1080       8    1023    1029   -1035    1080       9
    1023    1029   -1035    1080       6    1005     999    -996    1017      33
     999     996   -1017    1011      34     999    1005   -1011    1017      32
     996     987     981    1023      12     996     999   -1005    1011      32
     996    1017   -1011    1005      31     987     981    1023    1026       3
     987     981    1023    1029      14     987     981   -1023    1029      15
     987     981   -1023    1029       5     987     981   -1023    1029       6
     987     996     999    1005      33     987     996    1017    1011      34
     981     987     996     999       3     981     987     996    1017       3
     981    1023    1029    1035       2     975     981     987     996      12
     975     981    1023    1026       3     975     981    1023    1029      17
     975     981   -1023    1029      18     975     981   -1023    1029      19
     975     981   -1023    1029       6    1083    1080    1086    1092       2
    1080    1086    1092    1098       1    1080    1086   -1092    1098       4
    1080    1086   -1092    1098       5    1080    1086   -1092    1098       6
    1080    1086    1092    1128       7    1080    1086   -1092    1128       8
    1080    1086   -1092    1128       9    1080    1086   -1092    1128       6
    1050    1041    1035    1080      12    1041    1035    1080    1083       3
    1041    1035    1080    1086      14    1041    1035   -1080    1086      15
    1041    1035   -1080    1086       5    1041    1035   -1080    1086       6
    1035    1041    1050    1056      26    1035    1041   -1050    1056      27
    1035    1041   -1050    1056      28    1035    1041    1050    1068      26
    1035    1041   -1050    1068      27    1035    1041   -1050    1068      28
    1035    1080    1086    1092       2    1029    1035    1041    1050      12
    1029    1035    1080    1083       3    1029    1035    1080    1086      17
    1029    1035   -1080    1086      18    1029    1035   -1080    1086      19
    1029    1035   -1080    1086       6    1131    1128    1134    1140       2
    1128    1134    1140    1146       1    1128    1134   -1140    1146       4
    1128    1134   -1140    1146       5    1128    1134   -1140    1146       6
    1128    1134    1140    1176       7    1128    1134   -1140    1176       8
    1128    1134   -1140    1176       9    1128    1134   -1140    1176       6
    1116    1098    1092    1128      12    1104    1098    1092    1128      12
    1098    1092    1128    1131       3    1098    1092    1128    1134      14
    1098    1092   -1128    1134      15    1098    1092   -1128    1134       5
    1098    1092   -1128    1134       6    1092    1128    1134    1140       2
    1086    1092    1098    1104      12    1086    1092    1098    1116      12
    1086    1092    1128    1131       3    1086    1092    1128    1134      17
    1086    1092   -1128    1134      18    1086    1092   -1128    1134      19
    1086    1092   -1128    1134       6    1179    1176    1191    1197       2
    1176    1191    1197    1203       1    1176    1191   -1197    1203       4
    1176    1191   -1197    1203       5    1176    1191   -1197    1203       6
    1176    1191    1197    1215       7    1176    1191   -1197    1215       8
    1176    1191   -1197    1215       9    1176    1191   -1197    1215       6
    1155    1146    1140    1176      12    1146    1140    1176    1179       3
    1146    1140    1176    1191      14    1146    1140   -1176    1191      15
    1146    1140   -1176    1191       5    1146    1140   -1176    1191       6
    1146    1155    1164    1167       3    1146    1155    1164    1170       3
    1140    1146    1155    1164      12    1140    1176    1191    1197       2
    1134    1140    1146    1155      12    1134    1140    1176    1179       3
    1134    1140    1176    1191      17    1134    1140   -1176    1191      18
    1134    1140   -1176    1191      19    1134    1140   -1176    1191       6
    1218    1215    1221    1227       2    1215    1221    1227    1233       1
    1215    1221   -1227    1233       4    1215    1221   -1227    1233       5
    1215    1221   -1227    1233       6    1215    1221    1227    1272       7
    1215    1221   -1227    1272       8    1215    1221   -1227    1272       9
    1215    1221   -1227    1272       6    1203    1197    1215    1218       3
    1203    1197    1215    1221      14    1203    1197   -1215    1221      15
    1203    1197   -1215    1221       5    1203    1197   -1215    1221       6
    1197    1215    1221    1227       2    1191    1197    1215    1218       3
    1191    1197    1215    1221      17    1191    1197   -1215    1221      18
    1191    1197   -1215    1221      19    1191    1197   -1215    1221       6
    1275    1272    1278    1284       2    1272    1278    1284    1290       1
    1272    1278   -1284    1290       4    1272    1278   -1284    1290       5
    1272    1278   -1284    1290       6    1272    1278    1284    1335       7
    1272    1278   -1284    1335       8    1272    1278   -1284    1335       9
    1272    1278   -1284    1335       6    1242    1233    1227    1272      12
    1233    1227    1272    1275       3    1233    1227    1272    1278      14
    1233    1227   -1272    1278      15    1233    1227   -1272    1278       5
    1233    1227   -1272    1278       6    1227    1233    1242    1248      26
    1227    1233   -1242    1248      27    1227    1233   -1242    1248      28
    1227    1233    1242    1260      26    1227    1233   -1242    1260      27
    1227    1233   -1242    1260      28    1227    1272    1278    1284       2
    1221    1227    1233    1242      12    1221    1227    1272    1275       3
    1221    1227    1272    1278      17    1221    1227   -1272    1278      18
    1221    1227   -1272    1278      19    1221    1227   -1272    1278       6
    1338    1335    1341    1347       2    1335    1341    1347    1353       1
    1335    1341   -1347    1353       4    1335    1341   -1347    1353       5
    1335    1341   -1347    1353       6    1335    1341    1347    1392       7
    1335    1341   -1347    1392       8    1335    1341   -1347    1392       9
    1335    1341   -1347    1392       6    1317    1314    1323    1329      29
    1308    1302    1299    1329      29    1308    1314   -1323    1329      29
    1302    1299    1329    1323      29    1302    1308    1314    1317      29
    1302    1308   -1314    1323      29    1299    1290    1284    1335      12
    1299    1302    1308    1314      29    1299    1329   -1323    1314      29
    1290    1284    1335    1338       3    1290    1284    1335    1341      14
    1290    1284   -1335    1341      15    1290    1284   -1335    1341       5
    1290    1284   -1335    1341       6    1290    1299    1302    1308      29
    1290    1299    1329    1323      29    1284    1290    1299    1302       3
    1284    1290    1299    1329       3    1284    1335    1341    1347       2
    1278    1284    1290    1299      12    1278    1284    1335    1338       3
    1278    1284    1335    1341      17    1278    1284   -1335    1341      18
    1278    1284   -1335    1341      19    1278    1284   -1335    1341       6
    1395    1392    1398    1404       2    1392    1398    1404    1410       1
    1392    1398   -1404    1410       4    1392    1398   -1404    1410       5
    1392    1398   -1404    1410       6    1392    1398    1404    1440       7
    1392    1398   -1404    1440       8    1392    1398   -1404    1440       9
    1392    1398   -1404    1440       6    1362    1353    1347    1392      12
    1353    1347    1392    1395       3    1353    1347    1392    1398      14
    1353    1347   -1392    1398      15    1353    1347   -1392    1398       5
    1353    1347   -1392    1398       6    1347    1353    1362    1368      26
    1347    1353   -1362    1368      27    1347    1353   -1362    1368      28
    1347    1353    1362    1380      26    1347    1353   -1362    1380      27
    1347    1353   -1362    1380      28    1347    1392    1398    1404       2
    1341    1347    1353    1362      12    1341    1347    1392    1395       3
    1341    1347    1392    1398      17    1341    1347   -1392    1398      18
    1341    1347   -1392    1398      19    1341    1347   -1392    1398       6
    1443    1440    1446    1452       2    1440    1446    1452    1458       1
    1440    1446   -1452    1458       4    1440    1446   -1452    1458       5
    1440    1446   -1452    1458       6    1440    1446    1452    1470       7
    1440    1446   -1452    1470       8    1440    1446   -1452    1470       9
    1440    1446   -1452    1470       6    1428    1410    1404    1440      12
    1416    1410    1404    1440      12    1410    1404    1440    1443       3
    1410    1404    1440    1446      14    1410    1404   -1440    1446      15
    1410    1404   -1440    1446       5    1410    1404   -1440    1446       6
    1404    1440    1446    1452       2    1398    1404    1410    1416      12
    1398    1404    1410    1428      12    1398    1404    1440    1443       3
    1398    1404    1440    1446      17    1398    1404   -1440    1446      18
    1398    1404   -1440    1446      19    1398    1404   -1440    1446       6
    1473    1470    1476    1482       2    1470    1476    1482    1491       7
    1470    1476   -1482    1491       8    1470    1476   -1482    1491       9
    1470    1476   -1482    1491       6    1467    1458    1452    1470      12
    1458    1452    1470    1473       3    1458    1452    1470    1476      14
    1458    1452   -1470    1476      15    1458    1452   -1470    1476       5
    1458    1452   -1470    1476       6    1452    1470    1476    1482       2
    1446    1452    1458    1467      12    1446    1452    1470    1473       3
    1446    1452    1470    1476      17    1446    1452   -1470    1476      18
    1446    1452   -1470    1476      19    1446    1452   -1470    1476       6
    1494    1491    1497    1503       2    1491    1497    1503    1509       1
    1491    1497   -1503    1509       4    1491    1497   -1503    1509       5
    1491    1497   -1503    1509       6    1491    1497    1503    1539       7
    1491    1497   -1503    1539       8    1491    1497   -1503    1539       9
    1491    1497   -1503    1539       6    1482    1491    1497    1503       2
    1476    1482    1491    1494       3    1476    1482    1491    1497      17
    1476    1482   -1491    1497      18    1476    1482   -1491    1497      19
    1476    1482   -1491    1497       6    1542    1539    1554    1560       2
    1539    1554    1560    1566       1    1539    1554   -1560    1566       4
    1539    1554   -1560    1566       5    1539    1554   -1560    1566       6
    1539    1554    1560    1620       7    1539    1554   -1560    1620       8
    1539    1554   -1560    1620       9    1539    1554   -1560    1620       6
    1518    1509    1503    1539      12    1509    1503    1539    1542       3
    1509    1503    1539    1554      14    1509    1503   -1539    1554      15
    1509    1503   -1539    1554       5    1509    1503   -1539    1554       6
    1509    1518    1527    1530       3    1509    1518    1527    1533       3
    1503    1509    1518    1527      12    1503    1539    1554    1560       2
    1497    1503    1509    1518      12    1497    1503    1539    1542       3
    1497    1503    1539    1554      17    1497    1503   -1539    1554      18
    1497    1503   -1539    1554      19    1497    1503   -1539    1554       6
    1623    1620    1626    1632       2    1620    1626    1632    1641       7
    1620    1626   -1632    1641       8    1620    1626   -1632    1641       9
    1620    1626   -1632    1641       6    1584    1593    1599    1602      35
    1584    1593    1599    1611      35    1575    1566    1560    1620      12
    1575    1584    1593    1599      24    1566    1560    1620    1623       3
    1566    1560    1620    1626      14    1566    1560   -1620    1626      15
    1566    1560   -1620    1626       5    1566    1560   -1620    1626       6
    1566    1575    1584    1593      12    1560    1566    1575    1584      26
    1560    1566   -1575    1584      27    1560    1566   -1575    1584      28
    1560    1620    1626    1632       2    1554    1560    1566    1575      12
    1554    1560    1620    1623       3    1554    1560    1620    1626      17
    1554    1560   -1620    1626      18    1554    1560   -1620    1626      19
    1554    1560   -1620    1626       6    1644    1641    1647    1653       2
    1641    1647    1653    1659       1    1641    1647   -1653    1659       4
    1641    1647   -1653    1659       5    1641    1647   -1653    1659       6
    1641    1647    1653    1701       7    1641    1647   -1653    1701       8
    1641    1647   -1653    1701       9    1641    1647   -1653    1701       6
    1632    1641    1647    1653       2    1626    1632    1641    1644       3
    1626    1632    1641    1647      17    1626    1632   -1641    1647      18
    1626    1632   -1641    1647      19    1626    1632   -1641    1647       6
    1704    1701    1707    1713       2    1701    1707    1713    1719       1
    1701    1707   -1713    1719       4    1701    1707   -1713    1719       5
    1701    1707   -1713    1719       6    1701    1707    1713    1761       7
    1701    1707   -1713    1761       8    1701    1707   -1713    1761       9
    1701    1707   -1713    1761       6    1677    1671    1668    1695      29
    1677    1683   -1689    1695      29    1671    1668    1695    1689      29
    1671    1677   -1683    1689      29    1668    1659    1653    1701      12
    1668    1671    1677    1683      29    1668    1695   -1689    1683      29
    1659    1653    1701    1704       3    1659    1653    1701    1707      14
    1659    1653   -1701    1707      15    1659    1653   -1701    1707       5
    1659    1653   -1701    1707       6    1659    1668    1671    1677      29
    1659    1668    1695    1689      29    1653    1659    1668    1671       3
    1653    1659    1668    1695       3    1653    1701    1707    1713       2
    1647    1653    1659    1668      12    1647    1653    1701    1704       3
    1647    1653    1701    1707      17    1647    1653   -1701    1707      18
    1647    1653   -1701    1707      19    1647    1653   -1701    1707       6
    1764    1761    1767    1773       2    1761    1767    1773    1779       1
    1761    1767   -1773    1779       4    1761    1767   -1773    1779       5
    1761    1767   -1773    1779       6    1761    1767    1773    1824       7
    1761    1767   -1773    1824       8    1761    1767   -1773    1824       9
    1761    1767   -1773    1824       6    1737    1731    1728    1755      29
    1737    1743   -1749    1755      29    1731    1728    1755    1749      29
    1731    1737   -1743    1749      29    1728    1719    1713    1761      12
    1728    1731    1737    1743      29    1728    1755   -1749    1743      29
    1719    1713    1761    1764       3    1719    1713    1761    1767      14
    1719    1713   -1761    1767      15    1719    1713   -1761    1767       5
    1719    1713   -1761    1767       6    1719    1728    1731    1737      29
    1719    1728    1755    1749      29    1713    1719    1728    1731       3
    1713    1719    1728    1755       3    1713    1761    1767    1773       2
    1707    1713    1719    1728      12    1707    1713    1761    1764       3
    1707    1713    1761    1767      17    1707    1713   -1761    1767      18
    1707    1713   -1761    1767      19    1707    1713   -1761    1767       6
    1827    1824    1830    1836       2    1824    1830    1836    1842       1
    1824    1830   -1836    1842       4    1824    1830   -1836    1842       5
    1824    1830   -1836    1842       6    1824    1830    1836    1866       7
    1824    1830   -1836    1866       8    1824    1830   -1836    1866       9
    1824    1830   -1836    1866       6    1806    1803    1812    1818      29
    1797    1791    1788    1818      29    1797    1803   -1812    1818      29
    1791    1788    1818    1812      29    1791    1797    1803    1806      29
    1791    1797   -1803    1812      29    1788    1779    1773    1824      12
    1788    1791    1797    1803      29    1788    1818   -1812    1803      29
    1779    1773    1824    1827       3    1779    1773    1824    1830      14
    1779    1773   -1824    1830      15    1779    1773   -1824    1830       5
    1779    1773   -1824    1830       6    1779    1788    1791    1797      29
    1779    1788    1818    1812      29    1773    1779    1788    1791       3
    1773    1779    1788    1818       3    1773    1824    1830    1836       2
    1767    1773    1779    1788      12    1767    1773    1824    1827       3
    1767    1773    1824    1830      17    1767    1773   -1824    1830      18
    1767    1773   -1824    1830      19    1767    1773   -1824    1830       6
    1869    1866    1872    1878       2    1860    1842    1836    1866      12
    1848    1842    1836    1866      12    1842    1836    1866    1869       3
    1842    1836    1866    1872      14    1842    1836   -1866    1872      15
    1842    1836   -1866    1872       5    1842    1836   -1866    1872       6
    1836    1866    1872    1878       2    1830    1836    1842    1848      12
    1830    1836    1842    1860      12    1830    1836    1866    1869       3
    1830    1836    1866    1872      17    1830    1836   -1866    1872      18
    1830    1836   -1866    1872      19    1830    1836   -1866    1872       6
    1905    1902    1908    1914       2    1902    1908    1914    1920       1
    1902    1908   -1914    1920       4    1902    1908   -1914    1920       5
    1902    1908   -1914    1920       6    1902    1908    1914    1953       7
    1902    1908   -1914    1953       8    1902    1908   -1914    1953       9
    1902    1908   -1914    1953       6    1893    1902    1908    1914       2
    1956    1953    1959    1965       2    1953    1959    1965    1971       1
    1953    1959   -1965    1971       4    1953    1959   -1965    1971       5
    1953    1959   -1965    1971       6    1953    1959    1965    1983       7
    1953    1959   -1965    1983       8    1953    1959   -1965    1983       9
    1953    1959   -1965    1983       6    1929    1920    1914    1953      12
    1920    1914    1953    1956       3    1920    1914    1953    1959      14
    1920    1914   -1953    1959      15    1920    1914   -1953    1959       5
    1920    1914   -1953    1959       6    1920    1929    1938    1941       3
    1920    1929    1938    1944      14    1920    1929   -1938    1944      15
    1920    1929   -1938    1944       5    1920    1929   -1938    1944       6
    1914    1920    1929    1938      12    1914    1953    1959    1965       2
    1908    1914    1920    1929      12    1908    1914    1953    1956       3
    1908    1914    1953    1959      17    1908    1914   -1953    1959      18
    1908    1914   -1953    1959      19    1908    1914   -1953    1959       6
    1986    1983    1989    1995       2    1983    1989    1995    2001       1
    1983    1989   -1995    2001       4    1983    1989   -1995    2001       5
    1983    1989   -1995    2001       6    1983    1989    1995    2013       7
    1983    1989   -1995    2013       8    1983    1989   -1995    2013       9
    1983    1989   -1995    2013       6    1980    1971    1965    1983      12
    1980    2172    2163    2157      20    1971    1965    1983    1986       3
    1971    1965    1983    1989      14    1971    1965   -1983    1989      15
    1971    1965   -1983    1989       5    1971    1965   -1983    1989       6
    1971    1980    2172    2163      21    1971    1980   -2172    2163      22
    1965    1971    1980    2172      20    1965    1983    1989    1995       2
    1959    1965    1971    1980      12    1959    1965    1983    1986       3
    1959    1965    1983    1989      17    1959    1965   -1983    1989      18
    1959    1965   -1983    1989      19    1959    1965   -1983    1989       6
    2016    2013    2019    2025       2    2013    2019    2025    2031       1
    2013    2019   -2025    2031       4    2013    2019   -2025    2031       5
    2013    2019   -2025    2031       6    2013    2019    2025    2055       7
    2013    2019   -2025    2055       8    2013    2019   -2025    2055       9
    2013    2019   -2025    2055       6    2010    2001    1995    2013      12
    2010    2802    2793    2787      20    2001    1995    2013    2016       3
    2001    1995    2013    2019      14    2001    1995   -2013    2019      15
    2001    1995   -2013    2019       5    2001    1995   -2013    2019       6
    2001    2010    2802    2793      21    2001    2010   -2802    2793      22
    1995    2001    2010    2802      20    1995    2013    2019    2025       2
    1989    1995    2001    2010      12    1989    1995    2013    2016       3
    1989    1995    2013    2019      17    1989    1995   -2013    2019      18
    1989    1995   -2013    2019      19    1989    1995   -2013    2019       6
    2058    2055    2061    2067       2    2055    2061    2067    2073       1
    2055    2061   -2067    2073       4    2055    2061   -2067    2073       5
    2055    2061   -2067    2073       6    2055    2061    2067    2088       7
    2055    2061   -2067    2088       8    2055    2061   -2067    2088       9
    2055    2061   -2067    2088       6    2049    2031    2025    2055      12
    2037    2031    2025    2055      12    2031    2025    2055    2058       3
    2031    2025    2055    2061      14    2031    2025   -2055    2061      15
    2031    2025   -2055    2061       5    2031    2025   -2055    2061       6
    2025    2055    2061    2067       2    2019    2025    2031    2037      12
    2019    2025    2031    2049      12    2019    2025    2055    2058       3
    2019    2025    2055    2061      17    2019    2025   -2055    2061      18
    2019    2025   -2055    2061      19    2019    2025   -2055    2061       6
    2091    2088    2094    2100       2    2088    2094    2100    2106       1
    2088    2094   -2100    2106       4    2088    2094   -2100    2106       5
    2088    2094   -2100    2106       6    2088    2094    2100    2145       7
    2088    2094   -2100    2145       8    2088    2094   -2100    2145       9
    2088    2094   -2100    2145       6    2082    2073    2067    2088      12
    2073    2067    2088    2091       3    2073    2067    2088    2094      14
    2073    2067   -2088    2094      15    2073    2067   -2088    2094       5
    2073    2067   -2088    2094       6    2067    2088    2094    2100       2
    2061    2067    2073    2082      12    2061    2067    2088    2091       3
    2061    2067    2088    2094      17    2061    2067   -2088    2094      18
    2061    2067   -2088    2094      19    2061    2067   -2088    2094       6
    2148    2145    2151    2157       2    2145    2151    2157    2163       1
    2145    2151   -2157    2163       4    2145    2151   -2157    2163       5
    2145    2151   -2157    2163       6    2145    2151    2157    2175       7
    2145    2151   -2157    2175       8    2145    2151   -2157    2175       9
    2145    2151   -2157    2175       6    2124    2106    2100    2145      12
    2112    2106    2100    2145      12    2112    2106    2124    2133      26
    2112    2106   -2124    2133      27    2112    2106   -2124    2133      28
    2106    2100    2145    2148       3    2106    2100    2145    2151      14
    2106    2100   -2145    2151      15    2106    2100   -2145    2151       5
    2106    2100   -2145    2151       6    2100    2106    2124    2133      26
    2100    2106   -2124    2133      27    2100    2106   -2124    2133      28
    2100    2145    2151    2157       2    2094    2100    2106    2112      12
    2094    2100    2106    2124      12    2094    2100    2145    2148       3
    2094    2100    2145    2151      17    2094    2100   -2145    2151      18
    2094    2100   -2145    2151      19    2094    2100   -2145    2151       6
    2178    2175    2181    2187       2    2175    2181    2187    2193       1
    2175    2181   -2187    2193       4    2175    2181   -2187    2193       5
    2175    2181   -2187    2193       6    2175    2181    2187    2208       7
    2175    2181   -2187    2208       8    2175    2181   -2187    2208       9
    2175    2181   -2187    2208       6    2172    2163    2157    2175      12
    2163    2157    2175    2178       3    2163    2157    2175    2181      14
    2163    2157   -2175    2181      15    2163    2157   -2175    2181       5
    2163    2157   -2175    2181       6    2157    2175    2181    2187       2
    2151    2157    2163    2172      12    2151    2157    2175    2178       3
    2151    2157    2175    2181      17    2151    2157   -2175    2181      18
    2151    2157   -2175    2181      19    2151    2157   -2175    2181       6
    2211    2208    2214    2220       2    2208    2214    2220    2226       1
    2208    2214   -2220    2226       4    2208    2214   -2220    2226       5
    2208    2214   -2220    2226       6    2208    2214    2220    2265       7
    2208    2214   -2220    2265       8    2208    2214   -2220    2265       9
    2208    2214   -2220    2265       6    2202    2193    2187    2208      12
    2193    2187    2208    2211       3    2193    2187    2208    2214      14
    2193    2187   -2208    2214      15    2193    2187   -2208    2214       5
    2193    2187   -2208    2214       6    2187    2208    2214    2220       2
    2181    2187    2193    2202      12    2181    2187    2208    2211       3
    2181    2187    2208    2214      17    2181    2187   -2208    2214      18
    2181    2187   -2208    2214      19    2181    2187   -2208    2214       6
    2268    2265    2271    2277       2    2265    2271    2277    2283       1
    2265    2271   -2277    2283       4    2265    2271   -2277    2283       5
    2265    2271   -2277    2283       6    2265    2271    2277    2328       7
    2265    2271   -2277    2328       8    2265    2271   -2277    2328       9
    2265    2271   -2277    2328       6    2235    2226    2220    2265      12
    2226    2220    2265    2268       3    2226    2220    2265    2271      14
    2226    2220   -2265    2271      15    2226    2220   -2265    2271       5
    2226    2220   -2265    2271       6    2220    2226    2235    2241      26
    2220    2226   -2235    2241      27    2220    2226   -2235    2241      28
    2220    2226    2235    2253      26    2220    2226   -2235    2253      27
    2220    2226   -2235    2253      28    2220    2265    2271    2277       2
    2214    2220    2226    2235      12    2214    2220    2265    2268       3
    2214    2220    2265    2271      17    2214    2220   -2265    2271      18
    2214    2220   -2265    2271      19    2214    2220   -2265    2271       6
    2331    2328    2334    2340       2    2328    2334    2340    2346       1
    2328    2334   -2340    2346       4    2328    2334   -2340    2346       5
    2328    2334   -2340    2346       6    2328    2334    2340    2379       7
    2328    2334   -2340    2379       8    2328    2334   -2340    2379       9
    2328    2334   -2340    2379       6    2310    2307    2316    2322      29
    2301    2295    2292    2322      29    2301    2307   -2316    2322      29
    2295    2292    2322    2316      29    2295    2301    2307    2310      29
    2295    2301   -2307    2316      29    2292    2283    2277    2328      12
    2292    2295    2301    2307      29    2292    2322   -2316    2307      29
    2283    2277    2328    2331       3    2283    2277    2328    2334      14
    2283    2277   -2328    2334      15    2283    2277   -2328    2334       5
    2283    2277   -2328    2334       6    2283    2292    2295    2301      29
    2283    2292    2322    2316      29    2277    2283    2292    2295       3
    2277    2283    2292    2322       3    2277    2328    2334    2340       2
    2271    2277    2283    2292      12    2271    2277    2328    2331       3
    2271    2277    2328    2334      17    2271    2277   -2328    2334      18
    2271    2277   -2328    2334      19    2271    2277   -2328    2334       6
    2382    2379    2385    2391       2    2379    2385    2391    2397       1
    2379    2385   -2391    2397       4    2379    2385   -2391    2397       5
    2379    2385   -2391    2397       6    2379    2385    2391    2436       7
    2379    2385   -2391    2436       8    2379    2385   -2391    2436       9
    2379    2385   -2391    2436       6    2355    2346    2340    2379      12
    2346    2340    2379    2382       3    2346    2340    2379    2385      14
    2346    2340   -2379    2385      15    2346    2340   -2379    2385       5
    2346    2340   -2379    2385       6    2346    2355    2364    2367       3
    2346    2355    2364    2370      14    2346    2355   -2364    2370      15
    2346    2355   -2364    2370       5    2346    2355   -2364    2370       6
    2340    2346    2355    2364      12    2340    2379    2385    2391       2
    2334    2340    2346    2355      12    2334    2340    2379    2382       3
    2334    2340    2379    2385      17    2334    2340   -2379    2385      18
    2334    2340   -2379    2385      19    2334    2340   -2379    2385       6
    2439    2436    2442    2448       2    2436    2442    2448    2454       1
    2436    2442   -2448    2454       4    2436    2442   -2448    2454       5
    2436    2442   -2448    2454       6    2436    2442    2448    2484       7
    2436    2442   -2448    2484       8    2436    2442   -2448    2484       9
    2436    2442   -2448    2484       6    2406    2397    2391    2436      12
    2397    2391    2436    2439       3    2397    2391    2436    2442      14
    2397    2391   -2436    2442      15    2397    2391   -2436    2442       5
    2397    2391   -2436    2442       6    2391    2397    2406    2412      26
    2391    2397   -2406    2412      27    2391    2397   -2406    2412      28
    2391    2397    2406    2424      26    2391    2397   -2406    2424      27
    2391    2397   -2406    2424      28    2391    2436    2442    2448       2
    2385    2391    2397    2406      12    2385    2391    2436    2439       3
    2385    2391    2436    2442      17    2385    2391   -2436    2442      18
    2385    2391   -2436    2442      19    2385    2391   -2436    2442       6
    2487    2484    2499    2505       2    2484    2499    2505    2511       1
    2484    2499   -2505    2511       4    2484    2499   -2505    2511       5
    2484    2499   -2505    2511       6    2484    2499    2505    2535       7
    2484    2499   -2505    2535       8    2484    2499   -2505    2535       9
    2484    2499   -2505    2535       6    2463    2454    2448    2484      12
    2454    2448    2484    2487       3    2454    2448    2484    2499      14
    2454    2448   -2484    2499      15    2454    2448   -2484    2499       5
    2454    2448   -2484    2499       6    2454    2463    2472    2475       3
    2454    2463    2472    2478       3    2448    2454    2463    2472      12
    2448    2484    2499    2505       2    2442    2448    2454    2463      12
    2442    2448    2484    2487       3    2442    2448    2484    2499      17
    2442    2448   -2484    2499      18    2442    2448   -2484    2499      19
    2442    2448   -2484    2499       6    2538    2535    2541    2547       2
    2535    2541    2547    2553       1    2535    2541   -2547    2553       4
    2535    2541   -2547    2553       5    2535    2541   -2547    2553       6
    2535    2541    2547    2598       7    2535    2541   -2547    2598       8
    2535    2541   -2547    2598       9    2535    2541   -2547    2598       6
    2520    2511    2505    2535      12    2511    2505    2535    2538       3
    2511    2505    2535    2541      14    2511    2505   -2535    2541      15
    2511    2505   -2535    2541       5    2511    2505   -2535    2541       6
    2505    2511    2520    2523       3    2505    2511    2520    2526      14
    2505    2511   -2520    2526      15    2505    2511   -2520    2526       5
    2505    2511   -2520    2526       6    2505    2535    2541    2547       2
    2499    2505    2511    2520      12    2499    2505    2535    2538       3
    2499    2505    2535    2541      17    2499    2505   -2535    2541      18
    2499    2505   -2535    2541      19    2499    2505   -2535    2541       6
    2601    2598    2604    2610       2    2598    2604    2610    2616       1
    2598    2604   -2610    2616       4    2598    2604   -2610    2616       5
    2598    2604   -2610    2616       6    2598    2604    2610    2628       7
    2598    2604   -2610    2628       8    2598    2604   -2610    2628       9
    2598    2604   -2610    2628       6    2580    2577    2586    2592      29
    2571    2565    2562    2592      29    2571    2577   -2586    2592      29
    2565    2562    2592    2586      29    2565    2571    2577    2580      29
    2565    2571   -2577    2586      29    2562    2553    2547    2598      12
    2562    2565    2571    2577      29    2562    2592   -2586    2577      29
    2553    2547    2598    2601       3    2553    2547    2598    2604      14
    2553    2547   -2598    2604      15    2553    2547   -2598    2604       5
    2553    2547   -2598    2604       6    2553    2562    2565    2571      29
    2553    2562    2592    2586      29    2547    2553    2562    2565       3
    2547    2553    2562    2592       3    2547    2598    2604    2610       2
    2541    2547    2553    2562      12    2541    2547    2598    2601       3
    2541    2547    2598    2604      17    2541    2547   -2598    2604      18
    2541    2547   -2598    2604      19    2541    2547   -2598    2604       6
    2631    2628    2634    2640       2    2625    2616    2610    2628      12
    2625    3357    3348    3342      20    2616    2610    2628    2631       3
    2616    2610    2628    2634      14    2616    2610   -2628    2634      15
    2616    2610   -2628    2634       5    2616    2610   -2628    2634       6
    2616    2625    3357    3348      21    2616    2625   -3357    3348      22
    2610    2616    2625    3357      20    2610    2628    2634    2640       2
    2604    2610    2616    2625      12    2604    2610    2628    2631       3
    2604    2610    2628    2634      17    2604    2610   -2628    2634      18
    2604    2610   -2628    2634      19    2604    2610   -2628    2634       6
    2667    2664    2670    2676       2    2664    2670    2676    2682       1
    2664    2670   -2676    2682       4    2664    2670   -2676    2682       5
    2664    2670   -2676    2682       6    2664    2670    2676    2718       7
    2664    2670   -2676    2718       8    2664    2670   -2676    2718       9
    2664    2670   -2676    2718       6    2655    2664    2670    2676       2
    2721    2718    2724    2730       2    2718    2724    2730    2736       1
    2718    2724   -2730    2736       4    2718    2724   -2730    2736       5
    2718    2724   -2730    2736       6    2718    2724    2730    2775       7
    2718    2724   -2730    2775       8    2718    2724   -2730    2775       9
    2718    2724   -2730    2775       6    2700    2694   -2691    2712      33
    2694    2691   -2712    2706      34    2694    2700   -2706    2712      32
    2691    2682    2676    2718      12    2691    2694   -2700    2706      32
    2691    2712   -2706    2700      31    2682    2676    2718    2721       3
    2682    2676    2718    2724      14    2682    2676   -2718    2724      15
    2682    2676   -2718    2724       5    2682    2676   -2718    2724       6
    2682    2691    2694    2700      33    2682    2691    2712    2706      34
    2676    2682    2691    2694       3    2676    2682    2691    2712       3
    2676    2718    2724    2730       2    2670    2676    2682    2691      12
    2670    2676    2718    2721       3    2670    2676    2718    2724      17
    2670    2676   -2718    2724      18    2670    2676   -2718    2724      19
    2670    2676   -2718    2724       6    2778    2775    2781    2787       2
    2775    2781    2787    2793       1    2775    2781   -2787    2793       4
    2775    2781   -2787    2793       5    2775    2781   -2787    2793       6
    2775    2781    2787    2805       7    2775    2781   -2787    2805       8
    2775    2781   -2787    2805       9    2775    2781   -2787    2805       6
    2745    2736    2730    2775      12    2736    2730    2775    2778       3
    2736    2730    2775    2781      14    2736    2730   -2775    2781      15
    2736    2730   -2775    2781       5    2736    2730   -2775    2781       6
    2730    2736    2745    2751      26    2730    2736   -2745    2751      27
    2730    2736   -2745    2751      28    2730    2736    2745    2763      26
    2730    2736   -2745    2763      27    2730    2736   -2745    2763      28
    2730    2775    2781    2787       2    2724    2730    2736    2745      12
    2724    2730    2775    2778       3    2724    2730    2775    2781      17
    2724    2730   -2775    2781      18    2724    2730   -2775    2781      19
    2724    2730   -2775    2781       6    2808    2805    2811    2817       2
    2805    2811    2817    2826       7    2805    2811   -2817    2826       8
    2805    2811   -2817    2826       9    2805    2811   -2817    2826       6
    2802    2793    2787    2805      12    2793    2787    2805    2808       3
    2793    2787    2805    2811      14    2793    2787   -2805    2811      15
    2793    2787   -2805    2811       5    2793    2787   -2805    2811       6
    2787    2805    2811    2817       2    2781    2787    2793    2802      12
    2781    2787    2805    2808       3    2781    2787    2805    2811      17
    2781    2787   -2805    2811      18    2781    2787   -2805    2811      19
    2781    2787   -2805    2811       6    2829    2826    2832    2838       2
    2826    2832    2838    2844       1    2826    2832   -2838    2844       4
    2826    2832   -2838    2844       5    2826    2832   -2838    2844       6
    2826    2832    2838    2859       7    2826    2832   -2838    2859       8
    2826    2832   -2838    2859       9    2826    2832   -2838    2859       6
    2817    2826    2832    2838       2    2811    2817    2826    2829       3
    2811    2817    2826    2832      17    2811    2817   -2826    2832      18
    2811    2817   -2826    2832      19    2811    2817   -2826    2832       6
    2862    2859    2865    2871       2    2859    2865    2871    2877       1
    2859    2865   -2871    2877       4    2859    2865   -2871    2877       5
    2859    2865   -2871    2877       6    2859    2865    2871    2913       7
    2859    2865   -2871    2913       8    2859    2865   -2871    2913       9
    2859    2865   -2871    2913       6    2853    2844    2838    2859      12
    2844    2838    2859    2862       3    2844    2838    2859    2865      14
    2844    2838   -2859    2865      15    2844    2838   -2859    2865       5
    2844    2838   -2859    2865       6    2838    2859    2865    2871       2
    2832    2838    2844    2853      12    2832    2838    2859    2862       3
    2832    2838    2859    2865      17    2832    2838   -2859    2865      18
    2832    2838   -2859    2865      19    2832    2838   -2859    2865       6
    2916    2913    2919    2925       2    2913    2919    2925    2931       1
    2913    2919   -2925    2931       4    2913    2919   -2925    2931       5
    2913    2919   -2925    2931       6    2913    2919    2925    2970       7
    2913    2919   -2925    2970       8    2913    2919   -2925    2970       9
    2913    2919   -2925    2970       6    2895    2889   -2886    2907      33
    2889    2886   -2907    2901      34    2889    2895   -2901    2907      32
    2886    2877    2871    2913      12    2886    2889   -2895    2901      32
    2886    2907   -2901    2895      31    2877    2871    2913    2916       3
    2877    2871    2913    2919      14    2877    2871   -2913    2919      15
    2877    2871   -2913    2919       5    2877    2871   -2913    2919       6
    2877    2886    2889    2895      33    2877    2886    2907    2901      34
    2871    2877    2886    2889       3    2871    2877    2886    2907       3
    2871    2913    2919    2925       2    2865    2871    2877    2886      12
    2865    2871    2913    2916       3    2865    2871    2913    2919      17
    2865    2871   -2913    2919      18    2865    2871   -2913    2919      19
    2865    2871   -2913    2919       6    2973    2970    2976    2982       2
    2970    2976    2982    2988       1    2970    2976   -2982    2988       4
    2970    2976   -2982    2988       5    2970    2976   -2982    2988       6
    2970    2976    2982    3018       7    2970    2976   -2982    3018       8
    2970    2976   -2982    3018       9    2970    2976   -2982    3018       6
    2940    2931    2925    2970      12    2931    2925    2970    2973       3
    2931    2925    2970    2976      14    2931    2925   -2970    2976      15
    2931    2925   -2970    2976       5    2931    2925   -2970    2976       6
    2925    2931    2940    2946      26    2925    2931   -2940    2946      27
    2925    2931   -2940    2946      28    2925    2931    2940    2958      26
    2925    2931   -2940    2958      27    2925    2931   -2940    2958      28
    2925    2970    2976    2982       2    2919    2925    2931    2940      12
    2919    2925    2970    2973       3    2919    2925    2970    2976      17
    2919    2925   -2970    2976      18    2919    2925   -2970    2976      19
    2919    2925   -2970    2976       6    3021    3018    3024    3030       2
    3018    3024    3030    3036       1    3018    3024   -3030    3036       4
    3018    3024   -3030    3036       5    3018    3024   -3030    3036       6
    3018    3024    3030    3066       7    3018    3024   -3030    3066       8
    3018    3024   -3030    3066       9    3018    3024   -3030    3066       6
    3006    2988    2982    3018      12    2994    2988    2982    3018      12
    2988    2982    3018    3021       3    2988    2982    3018    3024      14
    2988    2982   -3018    3024      15    2988    2982   -3018    3024       5
    2988    2982   -3018    3024       6    2982    3018    3024    3030       2
    2976    2982    2988    2994      12    2976    2982    2988    3006      12
    2976    2982    3018    3021       3    2976    2982    3018    3024      17
    2976    2982   -3018    3024      18    2976    2982   -3018    3024      19
    2976    2982   -3018    3024       6    3069    3066    3081    3087       2
    3066    3081    3087    3093       1    3066    3081   -3087    3093       4
    3066    3081   -3087    3093       5    3066    3081   -3087    3093       6
    3066    3081    3087    3105       7    3066    3081   -3087    3105       8
    3066    3081   -3087    3105       9    3066    3081   -3087    3105       6
    3045    3036    3030    3066      12    3036    3030    3066    3069       3
    3036    3030    3066    3081      14    3036    3030   -3066    3081      15
    3036    3030   -3066    3081       5    3036    3030   -3066    3081       6
    3036    3045    3054    3057       3    3036    3045    3054    3060       3
    3030    3036    3045    3054      12    3030    3066    3081    3087       2
    3024    3030    3036    3045      12    3024    3030    3066    3069       3
    3024    3030    3066    3081      17    3024    3030   -3066    3081      18
    3024    3030   -3066    3081      19    3024    3030   -3066    3081       6
    3108    3105    3111    3117       2    3105    3111    3117    3123       1
    3105    3111   -3117    3123       4    3105    3111   -3117    3123       5
    3105    3111   -3117    3123       6    3105    3111    3117    3162       7
    3105    3111   -3117    3162       8    3105    3111   -3117    3162       9
    3105    3111   -3117    3162       6    3093    3087    3105    3108       3
    3093    3087    3105    3111      14    3093    3087   -3105    3111      15
    3093    3087   -3105    3111       5    3093    3087   -3105    3111       6
    3087    3105    3111    3117       2    3081    3087    3105    3108       3
    3081    3087    3105    3111      17    3081    3087   -3105    3111      18
    3081    3087   -3105    3111      19    3081    3087   -3105    3111       6
    3165    3162    3168    3174       2    3162    3168    3174    3180       1
    3162    3168   -3174    3180       4    3162    3168   -3174    3180       5
    3162    3168   -3174    3180       6    3162    3168    3174    3225       7
    3162    3168   -3174    3225       8    3162    3168   -3174    3225       9
    3162    3168   -3174    3225       6    3132    3123    3117    3162      12
    3123    3117    3162    3165       3    3123    3117    3162    3168      14
    3123    3117   -3162    3168      15    3123    3117   -3162    3168       5
    3123    3117   -3162    3168       6    3117    3123    3132    3138      26
    3117    3123   -3132    3138      27    3117    3123   -3132    3138      28
    3117    3123    3132    3150      26    3117    3123   -3132    3150      27
    3117    3123   -3132    3150      28    3117    3162    3168    3174       2
    3111    3117    3123    3132      12    3111    3117    3162    3165       3
    3111    3117    3162    3168      17    3111    3117   -3162    3168      18
    3111    3117   -3162    3168      19    3111    3117   -3162    3168       6
    3228    3225    3231    3237       2    3225    3231    3237    3243       1
    3225    3231   -3237    3243       4    3225    3231   -3237    3243       5
    3225    3231   -3237    3243       6    3225    3231    3237    3282       7
    3225    3231   -3237    3282       8    3225    3231   -3237    3282       9
    3225    3231   -3237    3282       6    3207    3204    3213    3219      29
    3198    3192    3189    3219      29    3198    3204   -3213    3219      29
    3192    3189    3219    3213      29    3192    3198    3204    3207      29
    3192    3198   -3204    3213      29    3189    3180    3174    3225      12
    3189    3192    3198    3204      29    3189    3219   -3213    3204      29
    3180    3174    3225    3228       3    3180    3174    3225    3231      14
    3180    3174   -3225    3231      15    3180    3174   -3225    3231       5
    3180    3174   -3225    3231       6    3180    3189    3192    3198      29
    3180    3189    3219    3213      29    3174    3180    3189    3192       3
    3174    3180    3189    3219       3    3174    3225    3231    3237       2
    3168    3174    3180    3189      12    3168    3174    3225    3228       3
    3168    3174    3225    3231      17    3168    3174   -3225    3231      18
    3168    3174   -3225    3231      19    3168    3174   -3225    3231       6
    3285    3282    3288    3294       2    3282    3288    3294    3300       1
    3282    3288   -3294    3300       4    3282    3288   -3294    3300       5
    3282    3288   -3294    3300       6    3282    3288    3294    3330       7
    3282    3288   -3294    3330       8    3282    3288   -3294    3330       9
    3282    3288   -3294    3330       6    3252    3243    3237    3282      12
    3243    3237    3282    3285       3    3243    3237    3282    3288      14
    3243    3237   -3282    3288      15    3243    3237   -3282    3288       5
    3243    3237   -3282    3288       6    3237    3243    3252    3258      26
    3237    3243   -3252    3258      27    3237    3243   -3252    3258      28
    3237    3243    3252    3270      26    3237    3243   -3252    3270      27
    3237    3243   -3252    3270      28    3237    3282    3288    3294       2
    3231    3237    3243    3252      12    3231    3237    3282    3285       3
    3231    3237    3282    3288      17    3231    3237   -3282    3288      18
    3231    3237   -3282    3288      19    3231    3237   -3282    3288       6
    3333    3330    3336    3342       2    3330    3336    3342    3348       1
    3330    3336   -3342    3348       4    3330    3336   -3342    3348       5
    3330    3336   -3342    3348       6    3330    3336    3342    3360       7
    3330    3336   -3342    3360       8    3330    3336   -3342    3360       9
    3330    3336   -3342    3360       6    3318    3300    3294    3330      12
    3306    3300    3294    3330      12    3300    3294    3330    3333       3
    3300    3294    3330    3336      14    3300    3294   -3330    3336      15
    3300    3294   -3330    3336       5    3300    3294   -3330    3336       6
    3294    3330    3336    3342       2    3288    3294    3300    3306      12
    3288    3294    3300    3318      12    3288    3294    3330    3333       3
    3288    3294    3330    3336      17    3288    3294   -3330    3336      18
    3288    3294   -3330    3336      19    3288    3294   -3330    3336       6
    3363    3360    3366    3372       2    3360    3366    3372    3381       7
    3360    3366   -3372    3381       8    3360    3366   -3372    3381       9
    3360    3366   -3372    3381       6    3357    3348    3342    3360      12
    3348    3342    3360    3363       3    3348    3342    3360    3366      14
    3348    3342   -3360    3366      15    3348    3342   -3360    3366       5
    3348    3342   -3360    3366       6    3342    3360    3366    3372       2
    3336    3342    3348    3357      12    3336    3342    3360    3363       3
    3336    3342    3360    3366      17    3336    3342   -3360    3366      18
    3336    3342   -3360    3366      19    3336    3342   -3360    3366       6
    3384    3381    3387    3393       2    3381    3387    3393    3399       1
    3381    3387   -3393    3399       4    3381    3387   -3393    3399       5
    3381    3387   -3393    3399       6    3381    3387    3393    3429       7
    3381    3387   -3393    3429       8    3381    3387   -3393    3429       9
    3381    3387   -3393    3429       6    3372    3381    3387    3393       2
    3366    3372    3381    3384       3    3366    3372    3381    3387      17
    3366    3372   -3381    3387      18    3366    3372   -3381    3387      19
    3366    3372   -3381    3387       6    3432    3429    3444    3450       2
    3429    3444    3450    3456       1    3429    3444   -3450    3456       4
    3429    3444   -3450    3456       5    3429    3444   -3450    3456       6
    3429    3444    3450    3510       7    3429    3444   -3450    3510       8
    3429    3444   -3450    3510       9    3429    3444   -3450    3510       6
    3408    3399    3393    3429      12    3399    3393    3429    3432       3
    3399    3393    3429    3444      14    3399    3393   -3429    3444      15
    3399    3393   -3429    3444       5    3399    3393   -3429    3444       6
    3399    3408    3417    3420       3    3399    3408    3417    3423       3
    3393    3399    3408    3417      12    3393    3429    3444    3450       2
    3387    3393    3399    3408      12    3387    3393    3429    3432       3
    3387    3393    3429    3444      17    3387    3393   -3429    3444      18
    3387    3393   -3429    3444      19    3387    3393   -3429    3444       6
    3513    3510    3516    3522       2    3510    3516    3522    3531       7
    3510    3516   -3522    3531       8    3510    3516   -3522    3531       9
    3510    3516   -3522    3531       6    3474    3483    3489    3492      35
    3474    3483    3489    3501      35    3465    3456    3450    3510      12
    3465    3474    3483    3489      24    3456    3450    3510    3513       3
    3456    3450    3510    3516      14    3456    3450   -3510    3516      15
    3456    3450   -3510    3516       5    3456    3450   -3510    3516       6
    3456    3465    3474    3483      12    3450    3456    3465    3474      26
    3450    3456   -3465    3474      27    3450    3456   -3465    3474      28
    3450    3510    3516    3522       2    3444    3450    3456    3465      12
    3444    3450    3510    3513       3    3444    3450    3510    3516      17
    3444    3450   -3510    3516      18    3444    3450   -3510    3516      19
    3444    3450   -3510    3516       6    3534    3531    3537    3543       2
    3531    3537    3543    3549       1    3531    3537   -3543    3549       4
    3531    3537   -3543    3549       5    3531    3537   -3543    3549       6
    3531    3537    3543    3591       7    3531    3537   -3543    3591       8
    3531    3537   -3543    3591       9    3531    3537   -3543    3591       6
    3522    3531    3537    3543       2    3516    3522    3531    3534       3
    3516    3522    3531    3537      17    3516    3522   -3531    3537      18
    3516    3522   -3531    3537      19    3516    3522   -3531    3537       6
    3594    3591    3597    3603       2    3591    3597    3603    3609       1
    3591    3597   -3603    3609       4    3591    3597   -3603    3609       5
    3591    3597   -3603    3609       6    3591    3597    3603    3651       7
    3591    3597   -3603    3651       8    3591    3597   -3603    3651       9
    3591    3597   -3603    3651       6    3567    3561    3558    3585      29
    3567    3573   -3579    3585      29    3561    3558    3585    3579      29
    3561    3567   -3573    3579      29    3558    3549    3543    3591      12
    3558    3561    3567    3573      29    3558    3585   -3579    3573      29
    3549    3543    3591    3594       3    3549    3543    3591    3597      14
    3549    3543   -3591    3597      15    3549    3543   -3591    3597       5
    3549    3543   -3591    3597       6    3549    3558    3561    3567      29
    3549    3558    3585    3579      29    3543    3549    3558    3561       3
    3543    3549    3558    3585       3    3543    3591    3597    3603       2
    3537    3543    3549    3558      12    3537    3543    3591    3594       3
    3537    3543    3591    3597      17    3537    3543   -3591    3597      18
    3537    3543   -3591    3597      19    3537    3543   -3591    3597       6
    3654    3651    3657    3663       2    3651    3657    3663    3669       1
    3651    3657   -3663    3669       4    3651    3657   -3663    3669       5
    3651    3657   -3663    3669       6    3651    3657    3663    3714       7
    3651    3657   -3663    3714       8    3651    3657   -3663    3714       9
    3651    3657   -3663    3714       6    3627    3621    3618    3645      29
    3627    3633   -3639    3645      29    3621    3618    3645    3639      29
    3621    3627   -3633    3639      29    3618    3609    3603    3651      12
    3618    3621    3627    3633      29    3618    3645   -3639    3633      29
    3609    3603    3651    3654       3    3609    3603    3651    3657      14
    3609    3603   -3651    3657      15    3609    3603   -3651    3657       5
    3609    3603   -3651    3657       6    3609    3618    3621    3627      29
    3609    3618    3645    3639      29    3603    3609    3618    3621       3
    3603    3609    3618    3645       3    3603    3651    3657    3663       2
    3597    3603    3609    3618      12    3597    3603    3651    3654       3
    3597    3603    3651    3657      17    3597    3603   -3651    3657      18
    3597    3603   -3651    3657      19    3597    3603   -3651    3657       6
    3717    3714    3720    3726       2    3714    3720    3726    3732       1
    3714    3720   -3726    3732       4    3714    3720   -3726    3732       5
    3714    3720   -3726    3732       6    3714    3720    3726    3756       7
    3714    3720   -3726    3756       8    3714    3720   -3726    3756       9
    3714    3720   -3726    3756       6    3696    3693    3702    3708      29
    3687    3681    3678    3708      29    3687    3693   -3702    3708      29
    3681    3678    3708    3702      29    3681    3687    3693    3696      29
    3681    3687   -3693    3702      29    3678    3669    3663    3714      12
    3678    3681    3687    3693      29    3678    3708   -3702    3693      29
    3669    3663    3714    3717       3    3669    3663    3714    3720      14
    3669    3663   -3714    3720      15    3669    3663   -3714    3720       5
    3669    3663   -3714    3720       6    3669    3678    3681    3687      29
    3669    3678    3708    3702      29    3663    3669    3678    3681       3
    3663    3669    3678    3708       3    3663    3714    3720    3726       2
    3657    3663    3669    3678      12    3657    3663    3714    3717       3
    3657    3663    3714    3720      17    3657    3663   -3714    3720      18
    3657    3663   -3714    3720      19    3657    3663   -3714    3720       6
    3759    3756    3762    3768       2    3750    3732    3726    3756      12
    3738    3732    3726    3756      12    3732    3726    3756    3759       3
    3732    3726    3756    3762      14    3732    3726   -3756    3762      15
    3732    3726   -3756    3762       5    3732    3726   -3756    3762       6
    3726    3756    3762    3768       2    3720    3726    3732    3738      12
    3720    3726    3732    3750      12    3720    3726    3756    3759       3
    3720    3726    3756    3762      17    3720    3726   -3756    3762      18
    3720    3726   -3756    3762      19    3720    3726   -3756    3762       6
    3795    3792    3798    3804       2    3792    3798    3804    3810       1
    3792    3798   -3804    3810       4    3792    3798   -3804    3810       5
    3792    3798   -3804    3810       6    3792    3798    3804    3843       7
    3792    3798   -3804    3843       8    3792    3798   -3804    3843       9
    3792    3798   -3804    3843       6    3783    3792    3798    3804       2
    3846    3843    3849    3855       2    3843    3849    3855    3861       1
    3843    3849   -3855    3861       4    3843    3849   -3855    3861       5
    3843    3849   -3855    3861       6    3843    3849    3855    3873       7
    3843    3849   -3855    3873       8    3843    3849   -3855    3873       9
    3843    3849   -3855    3873       6    3819    3810    3804    3843      12
    3810    3804    3843    3846       3    3810    3804    3843    3849      14
    3810    3804   -3843    3849      15    3810    3804   -3843    3849       5
    3810    3804   -3843    3849       6    3810    3819    3828    3831       3
    3810    3819    3828    3834      14    3810    3819   -3828    3834      15
    3810    3819   -3828    3834       5    3810    3819   -3828    3834       6
    3804    3810    3819    3828      12    3804    3843    3849    3855       2
    3798    3804    3810    3819      12    3798    3804    3843    3846       3
    3798    3804    3843    3849      17    3798    3804   -3843    3849      18
    3798    3804   -3843    3849      19    3798    3804   -3843    3849       6
    3876    3873    3879    3885       2    3873    3879    3885    3891       1
    3873    3879   -3885    3891       4    3873    3879   -3885    3891       5
    3873    3879   -3885    3891       6    3873    3879    3885    3903       7
    3873    3879   -3885    3903       8    3873    3879   -3885    3903       9
    3873    3879   -3885    3903       6    3870    3861    3855    3873      12
    3870    4062    4053    4047      20    3861    3855    3873    3876       3
    3861    3855    3873    3879      14    3861    3855   -3873    3879      15
    3861    3855   -3873    3879       5    3861    3855   -3873    3879       6
    3861    3870    4062    4053      21    3861    3870   -4062    4053      22
    3855    3861    3870    4062      20    3855    3873    3879    3885       2
    3849    3855    3861    3870      12    3849    3855    3873    3876       3
    3849    3855    3873    3879      17    3849    3855   -3873    3879      18
    3849    3855   -3873    3879      19    3849    3855   -3873    3879       6
    3906    3903    3909    3915       2    3903    3909    3915    3921       1
    3903    3909   -3915    3921       4    3903    3909   -3915    3921       5
    3903    3909   -3915    3921       6    3903    3909    3915    3945       7
    3903    3909   -3915    3945       8    3903    3909   -3915    3945       9
    3903    3909   -3915    3945       6    3900    3891    3885    3903      12
    3900    4692    4683    4677      20    3891    3885    3903    3906       3
    3891    3885    3903    3909      14    3891    3885   -3903    3909      15
    3891    3885   -3903    3909       5    3891    3885   -3903    3909       6
    3891    3900    4692    4683      21    3891    3900   -4692    4683      22
    3885    3891    3900    4692      20    3885    3903    3909    3915       2
    3879    3885    3891    3900      12    3879    3885    3903    3906       3
    3879    3885    3903    3909      17    3879    3885   -3903    3909      18
    3879    3885   -3903    3909      19    3879    3885   -3903    3909       6
    3948    3945    3951    3957       2    3945    3951    3957    3963       1
    3945    3951   -3957    3963       4    3945    3951   -3957    3963       5
    3945    3951   -3957    3963       6    3945    3951    3957    3978       7
    3945    3951   -3957    3978       8    3945    3951   -3957    3978       9
    3945    3951   -3957    3978       6    3939    3921    3915    3945      12
    3927    3921    3915    3945      12    3921    3915    3945    3948       3
    3921    3915    3945    3951      14    3921    3915   -3945    3951      15
    3921    3915   -3945    3951       5    3921    3915   -3945    3951       6
    3915    3945    3951    3957       2    3909    3915    3921    3927      12
    3909    3915    3921    3939      12    3909    3915    3945    3948       3
    3909    3915    3945    3951      17    3909    3915   -3945    3951      18
    3909    3915   -3945    3951      19    3909    3915   -3945    3951       6
    3981    3978    3984    3990       2    3978    3984    3990    3996       1
    3978    3984   -3990    3996       4    3978    3984   -3990    3996       5
    3978    3984   -3990    3996       6    3978    3984    3990    4035       7
    3978    3984   -3990    4035       8    3978    3984   -3990    4035       9
    3978    3984   -3990    4035       6    3972    3963    3957    3978      12
    3963    3957    3978    3981       3    3963    3957    3978    3984      14
    3963    3957   -3978    3984      15    3963    3957   -3978    3984       5
    3963    3957   -3978    3984       6    3957    3978    3984    3990       2
    3951    3957    3963    3972      12    3951    3957    3978    3981       3
    3951    3957    3978    3984      17    3951    3957   -3978    3984      18
    3951    3957   -3978    3984      19    3951    3957   -3978    3984       6
    4038    4035    4041    4047       2    4035    4041    4047    4053       1
    4035    4041   -4047    4053       4    4035    4041   -4047    4053       5
    4035    4041   -4047    4053       6    4035    4041    4047    4065       7
    4035    4041   -4047    4065       8    4035    4041   -4047    4065       9
    4035    4041   -4047    4065       6    4014    3996    3990    4035      12
    4002    3996    3990    4035      12    4002    3996    4014    4023      26
    4002    3996   -4014    4023      27    4002    3996   -4014    4023      28
    3996    3990    4035    4038       3    3996    3990    4035    4041      14
    3996    3990   -4035    4041      15    3996    3990   -4035    4041       5
    3996    3990   -4035    4041       6    3990    3996    4014    4023      26
    3990    3996   -4014    4023      27    3990    3996   -4014    4023      28
    3990    4035    4041    4047       2    3984    3990    3996    4002      12
    3984    3990    3996    4014      12    3984    3990    4035    4038       3
    3984    3990    4035    4041      17    3984    3990   -4035    4041      18
    3984    3990   -4035    4041      19    3984    3990   -4035    4041       6
    4068    4065    4071    4077       2    4065    4071    4077    4083       1
    4065    4071   -4077    4083       4    4065    4071   -4077    4083       5
    4065    4071   -4077    4083       6    4065    4071    4077    4098       7
    4065    4071   -4077    4098       8    4065    4071   -4077    4098       9
    4065    4071   -4077    4098       6    4062    4053    4047    4065      12
    4053    4047    4065    4068       3    4053    4047    4065    4071      14
    4053    4047   -4065    4071      15    4053    4047   -4065    4071       5
    4053    4047   -4065    4071       6    4047    4065    4071    4077       2
    4041    4047    4053    4062      12    4041    4047    4065    4068       3
    4041    4047    4065    4071      17    4041    4047   -4065    4071      18
    4041    4047   -4065    4071      19    4041    4047   -4065    4071       6
    4101    4098    4104    4110       2    4098    4104    4110    4116       1
    4098    4104   -4110    4116       4    4098    4104   -4110    4116       5
    4098    4104   -4110    4116       6    4098    4104    4110    4155       7
    4098    4104   -4110    4155       8    4098    4104   -4110    4155       9
    4098    4104   -4110    4155       6    4092    4083    4077    4098      12
    4083    4077    4098    4101       3    4083    4077    4098    4104      14
    4083    4077   -4098    4104      15    4083    4077   -4098    4104       5
    4083    4077   -4098    4104       6    4077    4098    4104    4110       2
    4071    4077    4083    4092      12    4071    4077    4098    4101       3
    4071    4077    4098    4104      17    4071    4077   -4098    4104      18
    4071    4077   -4098    4104      19    4071    4077   -4098    4104       6
    4158    4155    4161    4167       2    4155    4161    4167    4173       1
    4155    4161   -4167    4173       4    4155    4161   -4167    4173       5
    4155    4161   -4167    4173       6    4155    4161    4167    4218       7
    4155    4161   -4167    4218       8    4155    4161   -4167    4218       9
    4155    4161   -4167    4218       6    4125    4116    4110    4155      12
    4116    4110    4155    4158       3    4116    4110    4155    4161      14
    4116    4110   -4155    4161      15    4116    4110   -4155    4161       5
    4116    4110   -4155    4161       6    4110    4116    4125    4131      26
    4110    4116   -4125    4131      27    4110    4116   -4125    4131      28
    4110    4116    4125    4143      26    4110    4116   -4125    4143      27
    4110    4116   -4125    4143      28    4110    4155    4161    4167       2
    4104    4110    4116    4125      12    4104    4110    4155    4158       3
    4104    4110    4155    4161      17    4104    4110   -4155    4161      18
    4104    4110   -4155    4161      19    4104    4110   -4155    4161       6
    4221    4218    4224    4230       2    4218    4224    4230    4236       1
    4218    4224   -4230    4236       4    4218    4224   -4230    4236       5
    4218    4224   -4230    4236       6    4218    4224    4230    4269       7
    4218    4224   -4230    4269       8    4218    4224   -4230    4269       9
    4218    4224   -4230    4269       6    4200    4197    4206    4212      29
    4191    4185    4182    4212      29    4191    4197   -4206    4212      29
    4185    4182    4212    4206      29    4185    4191    4197    4200      29
    4185    4191   -4197    4206      29    4182    4173    4167    4218      12
    4182    4185    4191    4197      29    4182    4212   -4206    4197      29
    4173    4167    4218    4221       3    4173    4167    4218    4224      14
    4173    4167   -4218    4224      15    4173    4167   -4218    4224       5
    4173    4167   -4218    4224       6    4173    4182    4185    4191      29
    4173    4182    4212    4206      29    4167    4173    4182    4185       3
    4167    4173    4182    4212       3    4167    4218    4224    4230       2
    4161    4167    4173    4182      12    4161    4167    4218    4221       3
    4161    4167    4218    4224      17    4161    4167   -4218    4224      18
    4161    4167   -4218    4224      19    4161    4167   -4218    4224       6
    4272    4269    4275    4281       2    4269    4275    4281    4287       1
    4269    4275   -4281    4287       4    4269    4275   -4281    4287       5
    4269    4275   -4281    4287       6    4269    4275    4281    4326       7
    4269    4275   -4281    4326       8    4269    4275   -4281    4326       9
    4269    4275   -4281    4326       6    4245    4236    4230    4269      12
    4236    4230    4269    4272       3    4236    4230    4269    4275      14
    4236    4230   -4269    4275      15    4236    4230   -4269    4275       5
    4236    4230   -4269    4275       6    4236    4245    4254    4257       3
    4236    4245    4254    4260      14    4236    4245   -4254    4260      15
    4236    4245   -4254    4260       5    4236    4245   -4254    4260       6
    4230    4236    4245    4254      12    4230    4269    4275    4281       2
    4224    4230    4236    4245      12    4224    4230    4269    4272       3
    4224    4230    4269    4275      17    4224    4230   -4269    4275      18
    4224    4230   -4269    4275      19    4224    4230   -4269    4275       6
    4329    4326    4332    4338       2    4326    4332    4338    4344       1
    4326    4332   -4338    4344       4    4326    4332   -4338    4344       5
    4326    4332   -4338    4344       6    4326    4332    4338    4374       7
    4326    4332   -4338    4374       8    4326    4332   -4338    4374       9
    4326    4332   -4338    4374       6    4296    4287    4281    4326      12
    4287    4281    4326    4329       3    4287    4281    4326    4332      14
    4287    4281   -4326    4332      15    4287    4281   -4326    4332       5
    4287    4281   -4326    4332       6    4281    4287    4296    4302      26
    4281    4287   -4296    4302      27    4281    4287   -4296    4302      28
    4281    4287    4296    4314      26    4281    4287   -4296    4314      27
    4281    4287   -4296    4314      28    4281    4326    4332    4338       2
    4275    4281    4287    4296      12    4275    4281    4326    4329       3
    4275    4281    4326    4332      17    4275    4281   -4326    4332      18
    4275    4281   -4326    4332      19    4275    4281   -4326    4332       6
    4377    4374    4389    4395       2    4374    4389    4395    4401       1
    4374    4389   -4395    4401       4    4374    4389   -4395    4401       5
    4374    4389   -4395    4401       6    4374    4389    4395    4425       7
    4374    4389   -4395    4425       8    4374    4389   -4395    4425       9
    4374    4389   -4395    4425       6    4353    4344    4338    4374      12
    4344    4338    4374    4377       3    4344    4338    4374    4389      14
    4344    4338   -4374    4389      15    4344    4338   -4374    4389       5
    4344    4338   -4374    4389       6    4344    4353    4362    4365       3
    4344    4353    4362    4368       3    4338    4344    4353    4362      12
    4338    4374    4389    4395       2    4332    4338    4344    4353      12
    4332    4338    4374    4377       3    4332    4338    4374    4389      17
    4332    4338   -4374    4389      18    4332    4338   -4374    4389      19
    4332    4338   -4374    4389       6    4428    4425    4431    4437       2
    4425    4431    4437    4443       1    4425    4431   -4437    4443       4
    4425    4431   -4437    4443       5    4425    4431   -4437    4443       6
    4425    4431    4437    4488       7    4425    4431   -4437    4488       8
    4425    4431   -4437    4488       9    4425    4431   -4437    4488       6
    4410    4401    4395    4425      12    4401    4395    4425    4428       3
    4401    4395    4425    4431      14    4401    4395   -4425    4431      15
    4401    4395   -4425    4431       5    4401    4395   -4425    4431       6
    4395    4401    4410    4413       3    4395    4401    4410    4416      14
    4395    4401   -4410    4416      15    4395    4401   -4410    4416       5
    4395    4401   -4410    4416       6    4395    4425    4431    4437       2
    4389    4395    4401    4410      12    4389    4395    4425    4428       3
    4389    4395    4425    4431      17    4389    4395   -4425    4431      18
    4389    4395   -4425    4431      19    4389    4395   -4425    4431       6
    4491    4488    4494    4500       2    4488    4494    4500    4506       1
    4488    4494   -4500    4506       4    4488    4494   -4500    4506       5
    4488    4494   -4500    4506       6    4488    4494    4500    4518       7
    4488    4494   -4500    4518       8    4488    4494   -4500    4518       9
    4488    4494   -4500    4518       6    4470    4467    4476    4482      29
    4461    4455    4452    4482      29    4461    4467   -4476    4482      29
    4455    4452    4482    4476      29    4455    4461    4467    4470      29
    4455    4461   -4467    4476      29    4452    4443    4437    4488      12
    4452    4455    4461    4467      29    4452    4482   -4476    4467      29
    4443    4437    4488    4491       3    4443    4437    4488    4494      14
    4443    4437   -4488    4494      15    4443    4437   -4488    4494       5
    4443    4437   -4488    4494       6    4443    4452    4455    4461      29
    4443    4452    4482    4476      29    4437    4443    4452    4455       3
    4437    4443    4452    4482       3    4437    4488    4494    4500       2
    4431    4437    4443    4452      12    4431    4437    4488    4491       3
    4431    4437    4488    4494      17    4431    4437   -4488    4494      18
    4431    4437   -4488    4494      19    4431    4437   -4488    4494       6
    4521    4518    4524    4530       2    4515    4506    4500    4518      12
    4515    5247    5238    5232      20    4506    4500    4518    4521       3
    4506    4500    4518    4524      14    4506    4500   -4518    4524      15
    4506    4500   -4518    4524       5    4506    4500   -4518    4524       6
    4506    4515    5247    5238      21    4506    4515   -5247    5238      22
    4500    4506    4515    5247      20    4500    4518    4524    4530       2
    4494    4500    4506    4515      12    4494    4500    4518    4521       3
    4494    4500    4518    4524      17    4494    4500   -4518    4524      18
    4494    4500   -4518    4524      19    4494    4500   -4518    4524       6
    4557    4554    4560    4566       2    4554    4560    4566    4572       1
    4554    4560   -4566    4572       4    4554    4560   -4566    4572       5
    4554    4560   -4566    4572       6    4554    4560    4566    4608       7
    4554    4560   -4566    4608       8    4554    4560   -4566    4608       9
    4554    4560   -4566    4608       6    4545    4554    4560    4566       2
    4611    4608    4614    4620       2    4608    4614    4620    4626       1
    4608    4614   -4620    4626       4    4608    4614   -4620    4626       5
    4608    4614   -4620    4626       6    4608    4614    4620    4665       7
    4608    4614   -4620    4665       8    4608    4614   -4620    4665       9
    4608    4614   -4620    4665       6    4590    4584   -4581    4602      33
    4584    4581   -4602    4596      34    4584    4590   -4596    4602      32
    4581    4572    4566    4608      12    4581    4584   -4590    4596      32
    4581    4602   -4596    4590      31    4572    4566    4608    4611       3
    4572    4566    4608    4614      14    4572    4566   -4608    4614      15
    4572    4566   -4608    4614       5    4572    4566   -4608    4614       6
    4572    4581    4584    4590      33    4572    4581    4602    4596      34
    4566    4572    4581    4584       3    4566    4572    4581    4602       3
    4566    4608    4614    4620       2    4560    4566    4572    4581      12
    4560    4566    4608    4611       3    4560    4566    4608    4614      17
    4560    4566   -4608    4614      18    4560    4566   -4608    4614      19
    4560    4566   -4608    4614       6    4668    4665    4671    4677       2
    4665    4671    4677    4683       1    4665    4671   -4677    4683       4
    4665    4671   -4677    4683       5    4665    4671   -4677    4683       6
    4665    4671    4677    4695       7    4665    4671   -4677    4695       8
    4665    4671   -4677    4695       9    4665    4671   -4677    4695       6
    4635    4626    4620    4665      12    4626    4620    4665    4668       3
    4626    4620    4665    4671      14    4626    4620   -4665    4671      15
    4626    4620   -4665    4671       5    4626    4620   -4665    4671       6
    4620    4626    4635    4641      26    4620    4626   -4635    4641      27
    4620    4626   -4635    4641      28    4620    4626    4635    4653      26
    4620    4626   -4635    4653      27    4620    4626   -4635    4653      28
    4620    4665    4671    4677       2    4614    4620    4626    4635      12
    4614    4620    4665    4668       3    4614    4620    4665    4671      17
    4614    4620   -4665    4671      18    4614    4620   -4665    4671      19
    4614    4620   -4665    4671       6    4698    4695    4701    4707       2
    4695    4701    4707    4716       7    4695    4701   -4707    4716       8
    4695    4701   -4707    4716       9    4695    4701   -4707    4716       6
    4692    4683    4677    4695      12    4683    4677    4695    4698       3
    4683    4677    4695    4701      14    4683    4677   -4695    4701      15
    4683    4677   -4695    4701       5    4683    4677   -4695    4701       6
    4677    4695    4701    4707       2    4671    4677    4683    4692      12
    4671    4677    4695    4698       3    4671    4677    4695    4701      17
    4671    4677   -4695    4701      18    4671    4677   -4695    4701      19
    4671    4677   -4695    4701       6    4719    4716    4722    4728       2
    4716    4722    4728    4734       1    4716    4722   -4728    4734       4
    4716    4722   -4728    4734       5    4716    4722   -4728    4734       6
    4716    4722    4728    4749       7    4716    4722   -4728    4749       8
    4716    4722   -4728    4749       9    4716    4722   -4728    4749       6
    4707    4716    4722    4728       2    4701    4707    4716    4719       3
    4701    4707    4716    4722      17    4701    4707   -4716    4722      18
    4701    4707   -4716    4722      19    4701    4707   -4716    4722       6
    4752    4749    4755    4761       2    4749    4755    4761    4767       1
    4749    4755   -4761    4767       4    4749    4755   -4761    4767       5
    4749    4755   -4761    4767       6    4749    4755    4761    4803       7
    4749    4755   -4761    4803       8    4749    4755   -4761    4803       9
    4749    4755   -4761    4803       6    4743    4734    4728    4749      12
    4734    4728    4749    4752       3    4734    4728    4749    4755      14
    4734    4728   -4749    4755      15    4734    4728   -4749    4755       5
    4734    4728   -4749    4755       6    4728    4749    4755    4761       2
    4722    4728    4734    4743      12    4722    4728    4749    4752       3
    4722    4728    4749    4755      17    4722    4728   -4749    4755      18
    4722    4728   -4749    4755      19    4722    4728   -4749    4755       6
    4806    4803    4809    4815       2    4803    4809    4815    4821       1
    4803    4809   -4815    4821       4    4803    4809   -4815    4821       5
    4803    4809   -4815    4821       6    4803    4809    4815    4860       7
    4803    4809   -4815    4860       8    4803    4809   -4815    4860       9
    4803    4809   -4815    4860       6    4785    4779   -4776    4797      33
    4779    4776   -4797    4791      34    4779    4785   -4791    4797      32
    4776    4767    4761    4803      12    4776    4779   -4785    4791      32
    4776    4797   -4791    4785      31    4767    4761    4803    4806       3
    4767    4761    4803    4809      14    4767    4761   -4803    4809      15
    4767    4761   -4803    4809       5    4767    4761   -4803    4809       6
    4767    4776    4779    4785      33    4767    4776    4797    4791      34
    4761    4767    4776    4779       3    4761    4767    4776    4797       3
    4761    4803    4809    4815       2    4755    4761    4767    4776      12
    4755    4761    4803    4806       3    4755    4761    4803    4809      17
    4755    4761   -4803    4809      18    4755    4761   -4803    4809      19
    4755    4761   -4803    4809       6    4863    4860    4866    4872       2
    4860    4866    4872    4878       1    4860    4866   -4872    4878       4
    4860    4866   -4872    4878       5    4860    4866   -4872    4878       6
    4860    4866    4872    4908       7    4860    4866   -4872    4908       8
    4860    4866   -4872    4908       9    4860    4866   -4872    4908       6
    4830    4821    4815    4860      12    4821    4815    4860    4863       3
    4821    4815    4860    4866      14    4821    4815   -4860    4866      15
    4821    4815   -4860    4866       5    4821    4815   -4860    4866       6
    4815    4821    4830    4836      26    4815    4821   -4830    4836      27
    4815    4821   -4830    4836      28    4815    4821    4830    4848      26
    4815    4821   -4830    4848      27    4815    4821   -4830    4848      28
    4815    4860    4866    4872       2    4809    4815    4821    4830      12
    4809    4815    4860    4863       3    4809    4815    4860    4866      17
    4809    4815   -4860    4866      18    4809    4815   -4860    4866      19
    4809    4815   -4860    4866       6    4911    4908    4914    4920       2
    4908    4914    4920    4926       1    4908    4914   -4920    4926       4
    4908    4914   -4920    4926       5    4908    4914   -4920    4926       6
    4908    4914    4920    4956       7    4908    4914   -4920    4956       8
    4908    4914   -4920    4956       9    4908    4914   -4920    4956       6
    4896    4878    4872    4908      12    4884    4878    4872    4908      12
    4878    4872    4908    4911       3    4878    4872    4908    4914      14
    4878    4872   -4908    4914      15    4878    4872   -4908    4914       5
    4878    4872   -4908    4914       6    4872    4908    4914    4920       2
    4866    4872    4878    4884      12    4866    4872    4878    4896      12
    4866    4872    4908    4911       3    4866    4872    4908    4914      17
    4866    4872   -4908    4914      18    4866    4872   -4908    4914      19
    4866    4872   -4908    4914       6    4959    4956    4971    4977       2
    4956    4971    4977    4983       1    4956    4971   -4977    4983       4
    4956    4971   -4977    4983       5    4956    4971   -4977    4983       6
    4956    4971    4977    4995       7    4956    4971   -4977    4995       8
    4956    4971   -4977    4995       9    4956    4971   -4977    4995       6
    4935    4926    4920    4956      12    4926    4920    4956    4959       3
    4926    4920    4956    4971      14    4926    4920   -4956    4971      15
    4926    4920   -4956    4971       5    4926    4920   -4956    4971       6
    4926    4935    4944    4947       3    4926    4935    4944    4950       3
    4920    4926    4935    4944      12    4920    4956    4971    4977       2
    4914    4920    4926    4935      12    4914    4920    4956    4959       3
    4914    4920    4956    4971      17    4914    4920   -4956    4971      18
    4914    4920   -4956    4971      19    4914    4920   -4956    4971       6
    4998    4995    5001    5007       2    4995    5001    5007    5013       1
    4995    5001   -5007    5013       4    4995    5001   -5007    5013       5
    4995    5001   -5007    5013       6    4995    5001    5007    5052       7
    4995    5001   -5007    5052       8    4995    5001   -5007    5052       9
    4995    5001   -5007    5052       6    4983    4977    4995    4998       3
    4983    4977    4995    5001      14    4983    4977   -4995    5001      15
    4983    4977   -4995    5001       5    4983    4977   -4995    5001       6
    4977    4995    5001    5007       2    4971    4977    4995    4998       3
    4971    4977    4995    5001      17    4971    4977   -4995    5001      18
    4971    4977   -4995    5001      19    4971    4977   -4995    5001       6
    5055    5052    5058    5064       2    5052    5058    5064    5070       1
    5052    5058   -5064    5070       4    5052    5058   -5064    5070       5
    5052    5058   -5064    5070       6    5052    5058    5064    5115       7
    5052    5058   -5064    5115       8    5052    5058   -5064    5115       9
    5052    5058   -5064    5115       6    5022    5013    5007    5052      12
    5013    5007    5052    5055       3    5013    5007    5052    5058      14
    5013    5007   -5052    5058      15    5013    5007   -5052    5058       5
    5013    5007   -5052    5058       6    5007    5013    5022    5028      26
    5007    5013   -5022    5028      27    5007    5013   -5022    5028      28
    5007    5013    5022    5040      26    5007    5013   -5022    5040      27
    5007    5013   -5022    5040      28    5007    5052    5058    5064       2
    5001    5007    5013    5022      12    5001    5007    5052    5055       3
    5001    5007    5052    5058      17    5001    5007   -5052    5058      18
    5001    5007   -5052    5058      19    5001    5007   -5052    5058       6
    5118    5115    5121    5127       2    5115    5121    5127    5133       1
    5115    5121   -5127    5133       4    5115    5121   -5127    5133       5
    5115    5121   -5127    5133       6    5115    5121    5127    5172       7
    5115    5121   -5127    5172       8    5115    5121   -5127    5172       9
    5115    5121   -5127    5172       6    5097    5094    5103    5109      29
    5088    5082    5079    5109      29    5088    5094   -5103    5109      29
    5082    5079    5109    5103      29    5082    5088    5094    5097      29
    5082    5088   -5094    5103      29    5079    5070    5064    5115      12
    5079    5082    5088    5094      29    5079    5109   -5103    5094      29
    5070    5064    5115    5118       3    5070    5064    5115    5121      14
    5070    5064   -5115    5121      15    5070    5064   -5115    5121       5
    5070    5064   -5115    5121       6    5070    5079    5082    5088      29
    5070    5079    5109    5103      29    5064    5070    5079    5082       3
    5064    5070    5079    5109       3    5064    5115    5121    5127       2
    5058    5064    5070    5079      12    5058    5064    5115    5118       3
    5058    5064    5115    5121      17    5058    5064   -5115    5121      18
    5058    5064   -5115    5121      19    5058    5064   -5115    5121       6
    5175    5172    5178    5184       2    5172    5178    5184    5190       1
    5172    5178   -5184    5190       4    5172    5178   -5184    5190       5
    5172    5178   -5184    5190       6    5172    5178    5184    5220       7
    5172    5178   -5184    5220       8    5172    5178   -5184    5220       9
    5172    5178   -5184    5220       6    5142    5133    5127    5172      12
    5133    5127    5172    5175       3    5133    5127    5172    5178      14
    5133    5127   -5172    5178      15    5133    5127   -5172    5178       5
    5133    5127   -5172    5178       6    5127    5133    5142    5148      26
    5127    5133   -5142    5148      27    5127    5133   -5142    5148      28
    5127    5133    5142    5160      26    5127    5133   -5142    5160      27
    5127    5133   -5142    5160      28    5127    5172    5178    5184       2
    5121    5127    5133    5142      12    5121    5127    5172    5175       3
    5121    5127    5172    5178      17    5121    5127   -5172    5178      18
    5121    5127   -5172    5178      19    5121    5127   -5172    5178       6
    5223    5220    5226    5232       2    5220    5226    5232    5238       1
    5220    5226   -5232    5238       4    5220    5226   -5232    5238       5
    5220    5226   -5232    5238       6    5220    5226    5232    5250       7
    5220    5226   -5232    5250       8    5220    5226   -5232    5250       9
    5220    5226   -5232    5250       6    5208    5190    5184    5220      12
    5196    5190    5184    5220      12    5190    5184    5220    5223       3
    5190    5184    5220    5226      14    5190    5184   -5220    5226      15
    5190    5184   -5220    5226       5    5190    5184   -5220    5226       6
    5184    5220    5226    5232       2    5178    5184    5190    5196      12
    5178    5184    5190    5208      12    5178    5184    5220    5223       3
    5178    5184    5220    5226      17    5178    5184   -5220    5226      18
    5178    5184   -5220    5226      19    5178    5184   -5220    5226       6
    5253    5250    5256    5262       2    5250    5256    5262    5271       7
    5250    5256   -5262    5271       8    5250    5256   -5262    5271       9
    5250    5256   -5262    5271       6    5247    5238    5232    5250      12
    5238    5232    5250    5253       3    5238    5232    5250    5256      14
    5238    5232   -5250    5256      15    5238    5232   -5250    5256       5
    5238    5232   -5250    5256       6    5232    5250    5256    5262       2
    5226    5232    5238    5247      12    5226    5232    5250    5253       3
    5226    5232    5250    5256      17    5226    5232   -5250    5256      18
    5226    5232   -5250    5256      19    5226    5232   -5250    5256       6
    5274    5271    5277    5283       2    5271    5277    5283    5289       1
    5271    5277   -5283    5289       4    5271    5277   -5283    5289       5
    5271    5277   -5283    5289       6    5271    5277    5283    5319       7
    5271    5277   -5283    5319       8    5271    5277   -5283    5319       9
    5271    5277   -5283    5319       6    5262    5271    5277    5283       2
    5256    5262    5271    5274       3    5256    5262    5271    5277      17
    5256    5262   -5271    5277      18    5256    5262   -5271    5277      19
    5256    5262   -5271    5277       6    5322    5319    5334    5340       2
    5319    5334    5340    5346       1    5319    5334   -5340    5346       4
    5319    5334   -5340    5346       5    5319    5334   -5340    5346       6
    5319    5334    5340    5400       7    5319    5334   -5340    5400       8
    5319    5334   -5340    5400       9    5319    5334   -5340    5400       6
    5298    5289    5283    5319      12    5289    5283    5319    5322       3
    5289    5283    5319    5334      14    5289    5283   -5319    5334      15
    5289    5283   -5319    5334       5    5289    5283   -5319    5334       6
    5289    5298    5307    5310       3    5289    5298    5307    5313       3
    5283    5289    5298    5307      12    5283    5319    5334    5340       2
    5277    5283    5289    5298      12    5277    5283    5319    5322       3
    5277    5283    5319    5334      17    5277    5283   -5319    5334      18
    5277    5283   -5319    5334      19    5277    5283   -5319    5334       6
    5403    5400    5406    5412       2    5400    5406    5412    5421       7
    5400    5406   -5412    5421       8    5400    5406   -5412    5421       9
    5400    5406   -5412    5421       6    5364    5373    5379    5382      35
    5364    5373    5379    5391      35    5355    5346    5340    5400      12
    5355    5364    5373    5379      24    5346    5340    5400    5403       3
    5346    5340    5400    5406      14    5346    5340   -5400    5406      15
    5346    5340   -5400    5406       5    5346    5340   -5400    5406       6
    5346    5355    5364    5373      12    5340    5346    5355    5364      26
    5340    5346   -5355    5364      27    5340    5346   -5355    5364      28
    5340    5400    5406    5412       2    5334    5340    5346    5355      12
    5334    5340    5400    5403       3    5334    5340    5400    5406      17
    5334    5340   -5400    5406      18    5334    5340   -5400    5406      19
    5334    5340   -5400    5406       6    5424    5421    5427    5433       2
    5421    5427    5433    5439       1    5421    5427   -5433    5439       4
    5421    5427   -5433    5439       5    5421    5427   -5433    5439       6
    5421    5427    5433    5481       7    5421    5427   -5433    5481       8
    5421    5427   -5433    5481       9    5421    5427   -5433    5481       6
    5412    5421    5427    5433       2    5406    5412    5421    5424       3
    5406    5412    5421    5427      17    5406    5412   -5421    5427      18
    5406    5412   -5421    5427      19    5406    5412   -5421    5427       6
    5484    5481    5487    5493       2    5481    5487    5493    5499       1
    5481    5487   -5493    5499       4    5481    5487   -5493    5499       5
    5481    5487   -5493    5499       6    5481    5487    5493    5541       7
    5481    5487   -5493    5541       8    5481    5487   -5493    5541       9
    5481    5487   -5493    5541       6    5457    5451    5448    5475      29
    5457    5463   -5469    5475      29    5451    5448    5475    5469      29
    5451    5457   -5463    5469      29    5448    5439    5433    5481      12
    5448    5451    5457    5463      29    5448    5475   -5469    5463      29
    5439    5433    5481    5484       3    5439    5433    5481    5487      14
    5439    5433   -5481    5487      15    5439    5433   -5481    5487       5
    5439    5433   -5481    5487       6    5439    5448    5451    5457      29
    5439    5448    5475    5469      29    5433    5439    5448    5451       3
    5433    5439    5448    5475       3    5433    5481    5487    5493       2
    5427    5433    5439    5448      12    5427    5433    5481    5484       3
    5427    5433    5481    5487      17    5427    5433   -5481    5487      18
    5427    5433   -5481    5487      19    5427    5433   -5481    5487       6
    5544    5541    5547    5553       2    5541    5547    5553    5559       1
    5541    5547   -5553    5559       4    5541    5547   -5553    5559       5
    5541    5547   -5553    5559       6    5541    5547    5553    5604       7
    5541    5547   -5553    5604       8    5541    5547   -5553    5604       9
    5541    5547   -5553    5604       6    5517    5511    5508    5535      29
    5517    5523   -5529    5535      29    5511    5508    5535    5529      29
    5511    5517   -5523    5529      29    5508    5499    5493    5541      12
    5508    5511    5517    5523      29    5508    5535   -5529    5523      29
    5499    5493    5541    5544       3    5499    5493    5541    5547      14
    5499    5493   -5541    5547      15    5499    5493   -5541    5547       5
    5499    5493   -5541    5547       6    5499    5508    5511    5517      29
    5499    5508    5535    5529      29    5493    5499    5508    5511       3
    5493    5499    5508    5535       3    5493    5541    5547    5553       2
    5487    5493    5499    5508      12    5487    5493    5541    5544       3
    5487    5493    5541    5547      17    5487    5493   -5541    5547      18
    5487    5493   -5541    5547      19    5487    5493   -5541    5547       6
    5607    5604    5610    5616       2    5604    5610    5616    5622       1
    5604    5610   -5616    5622       4    5604    5610   -5616    5622       5
    5604    5610   -5616    5622       6    5604    5610    5616    5646       7
    5604    5610   -5616    5646       8    5604    5610   -5616    5646       9
    5604    5610   -5616    5646       6    5586    5583    5592    5598      29
    5577    5571    5568    5598      29    5577    5583   -5592    5598      29
    5571    5568    5598    5592      29    5571    5577    5583    5586      29
    5571    5577   -5583    5592      29    5568    5559    5553    5604      12
    5568    5571    5577    5583      29    5568    5598   -5592    5583      29
    5559    5553    5604    5607       3    5559    5553    5604    5610      14
    5559    5553   -5604    5610      15    5559    5553   -5604    5610       5
    5559    5553   -5604    5610       6    5559    5568    5571    5577      29
    5559    5568    5598    5592      29    5553    5559    5568    5571       3
    5553    5559    5568    5598       3    5553    5604    5610    5616       2
    5547    5553    5559    5568      12    5547    5553    5604    5607       3
    5547    5553    5604    5610      17    5547    5553   -5604    5610      18
    5547    5553   -5604    5610      19    5547    5553   -5604    5610       6
    5649    5646    5652    5658       2    5640    5622    5616    5646      12
    5628    5622    5616    5646      12    5622    5616    5646    5649       3
    5622    5616    5646    5652      14    5622    5616   -5646    5652      15
    5622    5616   -5646    5652       5    5622    5616   -5646    5652       6
    5616    5646    5652    5658       2    5610    5616    5622    5628      12
    5610    5616    5622    5640      12    5610    5616    5646    5649       3
    5610    5616    5646    5652      17    5610    5616   -5646    5652      18
    5610    5616   -5646    5652      19    5610    5616   -5646    5652       6
    5685    5682    5688    5694       2    5682    5688    5694    5700       1
    5682    5688   -5694    5700       4    5682    5688   -5694    5700       5
    5682    5688   -5694    5700       6    5682    5688    5694    5733       7
    5682    5688   -5694    5733       8    5682    5688   -5694    5733       9
    5682    5688   -5694    5733       6    5673    5682    5688    5694       2
    5736    5733    5739    5745       2    5733    5739    5745    5751       1
    5733    5739   -5745    5751       4    5733    5739   -5745    5751       5
    5733    5739   -5745    5751       6    5733    5739    5745    5763       7
    5733    5739   -5745    5763       8    5733    5739   -5745    5763       9
    5733    5739   -5745    5763       6    5709    5700    5694    5733      12
    5700    5694    5733    5736       3    5700    5694    5733    5739      14
    5700    5694   -5733    5739      15    5700    5694   -5733    5739       5
    5700    5694   -5733    5739       6    5700    5709    5718    5721       3
    5700    5709    5718    5724      14    5700    5709   -5718    5724      15
    5700    5709   -5718    5724       5    5700    5709   -5718    5724       6
    5694    5700    5709    5718      12    5694    5733    5739    5745       2
    5688    5694    5700    5709      12    5688    5694    5733    5736       3
    5688    5694    5733    5739      17    5688    5694   -5733    5739      18
    5688    5694   -5733    5739      19    5688    5694   -5733    5739       6
    5766    5763    5769    5775       2    5763    5769    5775    5781       1
    5763    5769   -5775    5781       4    5763    5769   -5775    5781       5
    5763    5769   -5775    5781       6    5763    5769    5775    5793       7
    5763    5769   -5775    5793       8    5763    5769   -5775    5793       9
    5763    5769   -5775    5793       6    5760    5751    5745    5763      12
    5760    5952    5943    5937      20    5751    5745    5763    5766       3
    5751    5745    5763    5769      14    5751    5745   -5763    5769      15
    5751    5745   -5763    5769       5    5751    5745   -5763    5769       6
    5751    5760    5952    5943      21    5751    5760   -5952    5943      22
    5745    5751    5760    5952      20    5745    5763    5769    5775       2
    5739    5745    5751    5760      12    5739    5745    5763    5766       3
    5739    5745    5763    5769      17    5739    5745   -5763    5769      18
    5739    5745   -5763    5769      19    5739    5745   -5763    5769       6
    5796    5793    5799    5805       2    5793    5799    5805    5811       1
    5793    5799   -5805    5811       4    5793    5799   -5805    5811       5
    5793    5799   -5805    5811       6    5793    5799    5805    5835       7
    5793    5799   -5805    5835       8    5793    5799   -5805    5835       9
    5793    5799   -5805    5835       6    5790    5781    5775    5793      12
    5790    6582    6573    6567      20    5781    5775    5793    5796       3
    5781    5775    5793    5799      14    5781    5775   -5793    5799      15
    5781    5775   -5793    5799       5    5781    5775   -5793    5799       6
    5781    5790    6582    6573      21    5781    5790   -6582    6573      22
    5775    5781    5790    6582      20    5775    5793    5799    5805       2
    5769    5775    5781    5790      12    5769    5775    5793    5796       3
    5769    5775    5793    5799      17    5769    5775   -5793    5799      18
    5769    5775   -5793    5799      19    5769    5775   -5793    5799       6
    5838    5835    5841    5847       2    5835    5841    5847    5853       1
    5835    5841   -5847    5853       4    5835    5841   -5847    5853       5
    5835    5841   -5847    5853       6    5835    5841    5847    5868       7
    5835    5841   -5847    5868       8    5835    5841   -5847    5868       9
    5835    5841   -5847    5868       6    5829    5811    5805    5835      12
    5817    5811    5805    5835      12    5811    5805    5835    5838       3
    5811    5805    5835    5841      14    5811    5805   -5835    5841      15
    5811    5805   -5835    5841       5    5811    5805   -5835    5841       6
    5805    5835    5841    5847       2    5799    5805    5811    5817      12
    5799    5805    5811    5829      12    5799    5805    5835    5838       3
    5799    5805    5835    5841      17    5799    5805   -5835    5841      18
    5799    5805   -5835    5841      19    5799    5805   -5835    5841       6
    5871    5868    5874    5880       2    5868    5874    5880    5886       1
    5868    5874   -5880    5886       4    5868    5874   -5880    5886       5
    5868    5874   -5880    5886       6    5868    5874    5880    5925       7
    5868    5874   -5880    5925       8    5868    5874   -5880    5925       9
    5868    5874   -5880    5925       6    5862    5853    5847    5868      12
    5853    5847    5868    5871       3    5853    5847    5868    5874      14
    5853    5847   -5868    5874      15    5853    5847   -5868    5874       5
    5853    5847   -5868    5874       6    5847    5868    5874    5880       2
    5841    5847    5853    5862      12    5841    5847    5868    5871       3
    5841    5847    5868    5874      17    5841    5847   -5868    5874      18
    5841    5847   -5868    5874      19    5841    5847   -5868    5874       6
    5928    5925    5931    5937       2    5925    5931    5937    5943       1
    5925    5931   -5937    5943       4    5925    5931   -5937    5943       5
    5925    5931   -5937    5943       6    5925    5931    5937    5955       7
    5925    5931   -5937    5955       8    5925    5931   -5937    5955       9
    5925    5931   -5937    5955       6    5904    5886    5880    5925      12
    5892    5886    5880    5925      12    5892    5886    5904    5913      26
    5892    5886   -5904    5913      27    5892    5886   -5904    5913      28
    5886    5880    5925    5928       3    5886    5880    5925    5931      14
    5886    5880   -5925    5931      15    5886    5880   -5925    5931       5
    5886    5880   -5925    5931       6    5880    5886    5904    5913      26
    5880    5886   -5904    5913      27    5880    5886   -5904    5913      28
    5880    5925    5931    5937       2    5874    5880    5886    5892      12
    5874    5880    5886    5904      12    5874    5880    5925    5928       3
    5874    5880    5925    5931      17    5874    5880   -5925    5931      18
    5874    5880   -5925    5931      19    5874    5880   -5925    5931       6
    5958    5955    5961    5967       2    5955    5961    5967    5973       1
    5955    5961   -5967    5973       4    5955    5961   -5967    5973       5
    5955    5961   -5967    5973       6    5955    5961    5967    5988       7
    5955    5961   -5967    5988       8    5955    5961   -5967    5988       9
    5955    5961   -5967    5988       6    5952    5943    5937    5955      12
    5943    5937    5955    5958       3    5943    5937    5955    5961      14
    5943    5937   -5955    5961      15    5943    5937   -5955    5961       5
    5943    5937   -5955    5961       6    5937    5955    5961    5967       2
    5931    5937    5943    5952      12    5931    5937    5955    5958       3
    5931    5937    5955    5961      17    5931    5937   -5955    5961      18
    5931    5937   -5955    5961      19    5931    5937   -5955    5961       6
    5991    5988    5994    6000       2    5988    5994    6000    6006       1
    5988    5994   -6000    6006       4    5988    5994   -6000    6006       5
    5988    5994   -6000    6006       6    5988    5994    6000    6045       7
    5988    5994   -6000    6045       8    5988    5994   -6000    6045       9
    5988    5994   -6000    6045       6    5982    5973    5967    5988      12
    5973    5967    5988    5991       3    5973    5967    5988    5994      14
    5973    5967   -5988    5994      15    5973    5967   -5988    5994       5
    5973    5967   -5988    5994       6    5967    5988    5994    6000       2
    5961    5967    5973    5982      12    5961    5967    5988    5991       3
    5961    5967    5988    5994      17    5961    5967   -5988    5994      18
    5961    5967   -5988    5994      19    5961    5967   -5988    5994       6
    6048    6045    6051    6057       2    6045    6051    6057    6063       1
    6045    6051   -6057    6063       4    6045    6051   -6057    6063       5
    6045    6051   -6057    6063       6    6045    6051    6057    6108       7
    6045    6051   -6057    6108       8    6045    6051   -6057    6108       9
    6045    6051   -6057    6108       6    6015    6006    6000    6045      12
    6006    6000    6045    6048       3    6006    6000    6045    6051      14
    6006    6000   -6045    6051      15    6006    6000   -6045    6051       5
    6006    6000   -6045    6051       6    6000    6006    6015    6021      26
    6000    6006   -6015    6021      27    6000    6006   -6015    6021      28
    6000    6006    6015    6033      26    6000    6006   -6015    6033      27
    6000    6006   -6015    6033      28    6000    6045    6051    6057       2
    5994    6000    6006    6015      12    5994    6000    6045    6048       3
    5994    6000    6045    6051      17    5994    6000   -6045    6051      18
    5994    6000   -6045    6051      19    5994    6000   -6045    6051       6
    6111    6108    6114    6120       2    6108    6114    6120    6126       1
    6108    6114   -6120    6126       4    6108    6114   -6120    6126       5
    6108    6114   -6120    6126       6    6108    6114    6120    6159       7
    6108    6114   -6120    6159       8    6108    6114   -6120    6159       9
    6108    6114   -6120    6159       6    6090    6087    6096    6102      29
    6081    6075    6072    6102      29    6081    6087   -6096    6102      29
    6075    6072    6102    6096      29    6075    6081    6087    6090      29
    6075    6081   -6087    6096      29    6072    6063    6057    6108      12
    6072    6075    6081    6087      29    6072    6102   -6096    6087      29
    6063    6057    6108    6111       3    6063    6057    6108    6114      14
    6063    6057   -6108    6114      15    6063    6057   -6108    6114       5
    6063    6057   -6108    6114       6    6063    6072    6075    6081      29
    6063    6072    6102    6096      29    6057    6063    6072    6075       3
    6057    6063    6072    6102       3    6057    6108    6114    6120       2
    6051    6057    6063    6072      12    6051    6057    6108    6111       3
    6051    6057    6108    6114      17    6051    6057   -6108    6114      18
    6051    6057   -6108    6114      19    6051    6057   -6108    6114       6
    6162    6159    6165    6171       2    6159    6165    6171    6177       1
    6159    6165   -6171    6177       4    6159    6165   -6171    6177       5
    6159    6165   -6171    6177       6    6159    6165    6171    6216       7
    6159    6165   -6171    6216       8    6159    6165   -6171    6216       9
    6159    6165   -6171    6216       6    6135    6126    6120    6159      12
    6126    6120    6159    6162       3    6126    6120    6159    6165      14
    6126    6120   -6159    6165      15    6126    6120   -6159    6165       5
    6126    6120   -6159    6165       6    6126    6135    6144    6147       3
    6126    6135    6144    6150      14    6126    6135   -6144    6150      15
    6126    6135   -6144    6150       5    6126    6135   -6144    6150       6
    6120    6126    6135    6144      12    6120    6159    6165    6171       2
    6114    6120    6126    6135      12    6114    6120    6159    6162       3
    6114    6120    6159    6165      17    6114    6120   -6159    6165      18
    6114    6120   -6159    6165      19    6114    6120   -6159    6165       6
    6219    6216    6222    6228       2    6216    6222    6228    6234       1
    6216    6222   -6228    6234       4    6216    6222   -6228    6234       5
    6216    6222   -6228    6234       6    6216    6222    6228    6264       7
    6216    6222   -6228    6264       8    6216    6222   -6228    6264       9
    6216    6222   -6228    6264       6    6186    6177    6171    6216      12
    6177    6171    6216    6219       3    6177    6171    6216    6222      14
    6177    6171   -6216    6222      15    6177    6171   -6216    6222       5
    6177    6171   -6216    6222       6    6171    6177    6186    6192      26
    6171    6177   -6186    6192      27    6171    6177   -6186    6192      28
    6171    6177    6186    6204      26    6171    6177   -6186    6204      27
    6171    6177   -6186    6204      28    6171    6216    6222    6228       2
    6165    6171    6177    6186      12    6165    6171    6216    6219       3
    6165    6171    6216    6222      17    6165    6171   -6216    6222      18
    6165    6171   -6216    6222      19    6165    6171   -6216    6222       6
    6267    6264    6279    6285       2    6264    6279    6285    6291       1
    6264    6279   -6285    6291       4    6264    6279   -6285    6291       5
    6264    6279   -6285    6291       6    6264    6279    6285    6315       7
    6264    6279   -6285    6315       8    6264    6279   -6285    6315       9
    6264    6279   -6285    6315       6    6243    6234    6228    6264      12
    6234    6228    6264    6267       3    6234    6228    6264    6279      14
    6234    6228   -6264    6279      15    6234    6228   -6264    6279       5
    6234    6228   -6264    6279       6    6234    6243    6252    6255       3
    6234    6243    6252    6258       3    6228    6234    6243    6252      12
    6228    6264    6279    6285       2    6222    6228    6234    6243      12
    6222    6228    6264    6267       3    6222    6228    6264    6279      17
    6222    6228   -6264    6279      18    6222    6228   -6264    6279      19
    6222    6228   -6264    6279       6    6318    6315    6321    6327       2
    6315    6321    6327    6333       1    6315    6321   -6327    6333       4
    6315    6321   -6327    6333       5    6315    6321   -6327    6333       6
    6315    6321    6327    6378       7    6315    6321   -6327    6378       8
    6315    6321   -6327    6378       9    6315    6321   -6327    6378       6
    6300    6291    6285    6315      12    6291    6285    6315    6318       3
    6291    6285    6315    6321      14    6291    6285   -6315    6321      15
    6291    6285   -6315    6321       5    6291    6285   -6315    6321       6
    6285    6291    6300    6303       3    6285    6291    6300    6306      14
    6285    6291   -6300    6306      15    6285    6291   -6300    6306       5
    6285    6291   -6300    6306       6    6285    6315    6321    6327       2
    6279    6285    6291    6300      12    6279    6285    6315    6318       3
    6279    6285    6315    6321      17    6279    6285   -6315    6321      18
    6279    6285   -6315    6321      19    6279    6285   -6315    6321       6
    6381    6378    6384    6390       2    6378    6384    6390    6396       1
    6378    6384   -6390    6396       4    6378    6384   -6390    6396       5
    6378    6384   -6390    6396       6    6378    6384    6390    6408       7
    6378    6384   -6390    6408       8    6378    6384   -6390    6408       9
    6378    6384   -6390    6408       6    6360    6357    6366    6372      29
    6351    6345    6342    6372      29    6351    6357   -6366    6372      29
    6345    6342    6372    6366      29    6345    6351    6357    6360      29
    6345    6351   -6357    6366      29    6342    6333    6327    6378      12
    6342    6345    6351    6357      29    6342    6372   -6366    6357      29
    6333    6327    6378    6381       3    6333    6327    6378    6384      14
    6333    6327   -6378    6384      15    6333    6327   -6378    6384       5
    6333    6327   -6378    6384       6    6333    6342    6345    6351      29
    6333    6342    6372    6366      29    6327    6333    6342    6345       3
    6327    6333    6342    6372       3    6327    6378    6384    6390       2
    6321    6327    6333    6342      12    6321    6327    6378    6381       3
    6321    6327    6378    6384      17    6321    6327   -6378    6384      18
    6321    6327   -6378    6384      19    6321    6327   -6378    6384       6
    6411    6408    6414    6420       2    6405    6396    6390    6408      12
    6405    7137    7128    7122      20    6396    6390    6408    6411       3
    6396    6390    6408    6414      14    6396    6390   -6408    6414      15
    6396    6390   -6408    6414       5    6396    6390   -6408    6414       6
    6396    6405    7137    7128      21    6396    6405   -7137    7128      22
    6390    6396    6405    7137      20    6390    6408    6414    6420       2
    6384    6390    6396    6405      12    6384    6390    6408    6411       3
    6384    6390    6408    6414      17    6384    6390   -6408    6414      18
    6384    6390   -6408    6414      19    6384    6390   -6408    6414       6
    6447    6444    6450    6456       2    6444    6450    6456    6462       1
    6444    6450   -6456    6462       4    6444    6450   -6456    6462       5
    6444    6450   -6456    6462       6    6444    6450    6456    6498       7
    6444    6450   -6456    6498       8    6444    6450   -6456    6498       9
    6444    6450   -6456    6498       6    6435    6444    6450    6456       2
    6501    6498    6504    6510       2    6498    6504    6510    6516       1
    6498    6504   -6510    6516       4    6498    6504   -6510    6516       5
    6498    6504   -6510    6516       6    6498    6504    6510    6555       7
    6498    6504   -6510    6555       8    6498    6504   -6510    6555       9
    6498    6504   -6510    6555       6    6480    6474   -6471    6492      33
    6474    6471   -6492    6486      34    6474    6480   -6486    6492      32
    6471    6462    6456    6498      12    6471    6474   -6480    6486      32
    6471    6492   -6486    6480      31    6462    6456    6498    6501       3
    6462    6456    6498    6504      14    6462    6456   -6498    6504      15
    6462    6456   -6498    6504       5    6462    6456   -6498    6504       6
    6462    6471    6474    6480      33    6462    6471    6492    6486      34
    6456    6462    6471    6474       3    6456    6462    6471    6492       3
    6456    6498    6504    6510       2    6450    6456    6462    6471      12
    6450    6456    6498    6501       3    6450    6456    6498    6504      17
    6450    6456   -6498    6504      18    6450    6456   -6498    6504      19
    6450    6456   -6498    6504       6    6558    6555    6561    6567       2
    6555    6561    6567    6573       1    6555    6561   -6567    6573       4
    6555    6561   -6567    6573       5    6555    6561   -6567    6573       6
    6555    6561    6567    6585       7    6555    6561   -6567    6585       8
    6555    6561   -6567    6585       9    6555    6561   -6567    6585       6
    6525    6516    6510    6555      12    6516    6510    6555    6558       3
    6516    6510    6555    6561      14    6516    6510   -6555    6561      15
    6516    6510   -6555    6561       5    6516    6510   -6555    6561       6
    6510    6516    6525    6531      26    6510    6516   -6525    6531      27
    6510    6516   -6525    6531      28    6510    6516    6525    6543      26
    6510    6516   -6525    6543      27    6510    6516   -6525    6543      28
    6510    6555    6561    6567       2    6504    6510    6516    6525      12
    6504    6510    6555    6558       3    6504    6510    6555    6561      17
    6504    6510   -6555    6561      18    6504    6510   -6555    6561      19
    6504    6510   -6555    6561       6    6588    6585    6591    6597       2
    6585    6591    6597    6606       7    6585    6591   -6597    6606       8
    6585    6591   -6597    6606       9    6585    6591   -6597    6606       6
    6582    6573    6567    6585      12    6573    6567    6585    6588       3
    6573    6567    6585    6591      14    6573    6567   -6585    6591      15
    6573    6567   -6585    6591       5    6573    6567   -6585    6591       6
    6567    6585    6591    6597       2    6561    6567    6573    6582      12
    6561    6567    6585    6588       3    6561    6567    6585    6591      17
    6561    6567   -6585    6591      18    6561    6567   -6585    6591      19
    6561    6567   -6585    6591       6    6609    6606    6612    6618       2
    6606    6612    6618    6624       1    6606    6612   -6618    6624       4
    6606    6612   -6618    6624       5    6606    6612   -6618    6624       6
    6606    6612    6618    6639       7    6606    6612   -6618    6639       8
    6606    6612   -6618    6639       9    6606    6612   -6618    6639       6
    6597    6606    6612    6618       2    6591    6597    6606    6609       3
    6591    6597    6606    6612      17    6591    6597   -6606    6612      18
    6591    6597   -6606    6612      19    6591    6597   -6606    6612       6
    6642    6639    6645    6651       2    6639    6645    6651    6657       1
    6639    6645   -6651    6657       4    6639    6645   -6651    6657       5
    6639    6645   -6651    6657       6    6639    6645    6651    6693       7
    6639    6645   -6651    6693       8    6639    6645   -6651    6693       9
    6639    6645   -6651    6693       6    6633    6624    6618    6639      12
    6624    6618    6639    6642       3    6624    6618    6639    6645      14
    6624    6618   -6639    6645      15    6624    6618   -6639    6645       5
    6624    6618   -6639    6645       6    6618    6639    6645    6651       2
    6612    6618    6624    6633      12    6612    6618    6639    6642       3
    6612    6618    6639    6645      17    6612    6618   -6639    6645      18
    6612    6618   -6639    6645      19    6612    6618   -6639    6645       6
    6696    6693    6699    6705       2    6693    6699    6705    6711       1
    6693    6699   -6705    6711       4    6693    6699   -6705    6711       5
    6693    6699   -6705    6711       6    6693    6699    6705    6750       7
    6693    6699   -6705    6750       8    6693    6699   -6705    6750       9
    6693    6699   -6705    6750       6    6675    6669   -6666    6687      33
    6669    6666   -6687    6681      34    6669    6675   -6681    6687      32
    6666    6657    6651    6693      12    6666    6669   -6675    6681      32
    6666    6687   -6681    6675      31    6657    6651    6693    6696       3
    6657    6651    6693    6699      14    6657    6651   -6693    6699      15
    6657    6651   -6693    6699       5    6657    6651   -6693    6699       6
    6657    6666    6669    6675      33    6657    6666    6687    6681      34
    6651    6657    6666    6669       3    6651    6657    6666    6687       3
    6651    6693    6699    6705       2    6645    6651    6657    6666      12
    6645    6651    6693    6696       3    6645    6651    6693    6699      17
    6645    6651   -6693    6699      18    6645    6651   -6693    6699      19
    6645    6651   -6693    6699       6    6753    6750    6756    6762       2
    6750    6756    6762    6768       1    6750    6756   -6762    6768       4
    6750    6756   -6762    6768       5    6750    6756   -6762    6768       6
    6750    6756    6762    6798       7    6750    6756   -6762    6798       8
    6750    6756   -6762    6798       9    6750    6756   -6762    6798       6
    6720    6711    6705    6750      12    6711    6705    6750    6753       3
    6711    6705    6750    6756      14    6711    6705   -6750    6756      15
    6711    6705   -6750    6756       5    6711    6705   -6750    6756       6
    6705    6711    6720    6726      26    6705    6711   -6720    6726      27
    6705    6711   -6720    6726      28    6705    6711    6720    6738      26
    6705    6711   -6720    6738      27    6705    6711   -6720    6738      28
    6705    6750    6756    6762       2    6699    6705    6711    6720      12
    6699    6705    6750    6753       3    6699    6705    6750    6756      17
    6699    6705   -6750    6756      18    6699    6705   -6750    6756      19
    6699    6705   -6750    6756       6    6801    6798    6804    6810       2
    6798    6804    6810    6816       1    6798    6804   -6810    6816       4
    6798    6804   -6810    6816       5    6798    6804   -6810    6816       6
    6798    6804    6810    6846       7    6798    6804   -6810    6846       8
    6798    6804   -6810    6846       9    6798    6804   -6810    6846       6
    6786    6768    6762    6798      12    6774    6768    6762    6798      12
    6768    6762    6798    6801       3    6768    6762    6798    6804      14
    6768    6762   -6798    6804      15    6768    6762   -6798    6804       5
    6768    6762   -6798    6804       6    6762    6798    6804    6810       2
    6756    6762    6768    6774      12    6756    6762    6768    6786      12
    6756    6762    6798    6801       3    6756    6762    6798    6804      17
    6756    6762   -6798    6804      18    6756    6762   -6798    6804      19
    6756    6762   -6798    6804       6    6849    6846    6861    6867       2
    6846    6861    6867    6873       1    6846    6861   -6867    6873       4
    6846    6861   -6867    6873       5    6846    6861   -6867    6873       6
    6846    6861    6867    6885       7    6846    6861   -6867    6885       8
    6846    6861   -6867    6885       9    6846    6861   -6867    6885       6
    6825    6816    6810    6846      12    6816    6810    6846    6849       3
    6816    6810    6846    6861      14    6816    6810   -6846    6861      15
    6816    6810   -6846    6861       5    6816    6810   -6846    6861       6
    6816    6825    6834    6837       3    6816    6825    6834    6840       3
    6810    6816    6825    6834      12    6810    6846    6861    6867       2
    6804    6810    6816    6825      12    6804    6810    6846    6849       3
    6804    6810    6846    6861      17    6804    6810   -6846    6861      18
    6804    6810   -6846    6861      19    6804    6810   -6846    6861       6
    6888    6885    6891    6897       2    6885    6891    6897    6903       1
    6885    6891   -6897    6903       4    6885    6891   -6897    6903       5
    6885    6891   -6897    6903       6    6885    6891    6897    6942       7
    6885    6891   -6897    6942       8    6885    6891   -6897    6942       9
    6885    6891   -6897    6942       6    6873    6867    6885    6888       3
    6873    6867    6885    6891      14    6873    6867   -6885    6891      15
    6873    6867   -6885    6891       5    6873    6867   -6885    6891       6
    6867    6885    6891    6897       2    6861    6867    6885    6888       3
    6861    6867    6885    6891      17    6861    6867   -6885    6891      18
    6861    6867   -6885    6891      19    6861    6867   -6885    6891       6
    6945    6942    6948    6954       2    6942    6948    6954    6960       1
    6942    6948   -6954    6960       4    6942    6948   -6954    6960       5
    6942    6948   -6954    6960       6    6942    6948    6954    7005       7
    6942    6948   -6954    7005       8    6942    6948   -6954    7005       9
    6942    6948   -6954    7005       6    6912    6903    6897    6942      12
    6903    6897    6942    6945       3    6903    6897    6942    6948      14
    6903    6897   -6942    6948      15    6903    6897   -6942    6948       5
    6903    6897   -6942    6948       6    6897    6903    6912    6918      26
    6897    6903   -6912    6918      27    6897    6903   -6912    6918      28
    6897    6903    6912    6930      26    6897    6903   -6912    6930      27
    6897    6903   -6912    6930      28    6897    6942    6948    6954       2
    6891    6897    6903    6912      12    6891    6897    6942    6945       3
    6891    6897    6942    6948      17    6891    6897   -6942    6948      18
    6891    6897   -6942    6948      19    6891    6897   -6942    6948       6
    7008    7005    7011    7017       2    7005    7011    7017    7023       1
    7005    7011   -7017    7023       4    7005    7011   -7017    7023       5
    7005    7011   -7017    7023       6    7005    7011    7017    7062       7
    7005    7011   -7017    7062       8    7005    7011   -7017    7062       9
    7005    7011   -7017    7062       6    6987    6984    6993    6999      29
    6978    6972    6969    6999      29    6978    6984   -6993    6999      29
    6972    6969    6999    6993      29    6972    6978    6984    6987      29
    6972    6978   -6984    6993      29    6969    6960    6954    7005      12
    6969    6972    6978    6984      29    6969    6999   -6993    6984      29
    6960    6954    7005    7008       3    6960    6954    7005    7011      14
    6960    6954   -7005    7011      15    6960    6954   -7005    7011       5
    6960    6954   -7005    7011       6    6960    6969    6972    6978      29
    6960    6969    6999    6993      29    6954    6960    6969    6972       3
    6954    6960    6969    6999       3    6954    7005    7011    7017       2
    6948    6954    6960    6969      12    6948    6954    7005    7008       3
    6948    6954    7005    7011      17    6948    6954   -7005    7011      18
    6948    6954   -7005    7011      19    6948    6954   -7005    7011       6
    7065    7062    7068    7074       2    7062    7068    7074    7080       1
    7062    7068   -7074    7080       4    7062    7068   -7074    7080       5
    7062    7068   -7074    7080       6    7062    7068    7074    7110       7
    7062    7068   -7074    7110       8    7062    7068   -7074    7110       9
    7062    7068   -7074    7110       6    7032    7023    7017    7062      12
    7023    7017    7062    7065       3    7023    7017    7062    7068      14
    7023    7017   -7062    7068      15    7023    7017   -7062    7068       5
    7023    7017   -7062    7068       6    7017    7023    7032    7038      26
    7017    7023   -7032    7038      27    7017    7023   -7032    7038      28
    7017    7023    7032    7050      26    7017    7023   -7032    7050      27
    7017    7023   -7032    7050      28    7017    7062    7068    7074       2
    7011    7017    7023    7032      12    7011    7017    7062    7065       3
    7011    7017    7062    7068      17    7011    7017   -7062    7068      18
    7011    7017   -7062    7068      19    7011    7017   -7062    7068       6
    7113    7110    7116    7122       2    7110    7116    7122    7128       1
    7110    7116   -7122    7128       4    7110    7116   -7122    7128       5
    7110    7116   -7122    7128       6    7110    7116    7122    7140       7
    7110    7116   -7122    7140       8    7110    7116   -7122    7140       9
    7110    7116   -7122    7140       6    7098    7080    7074    7110      12
    7086    7080    7074    7110      12    7080    7074    7110    7113       3
    7080    7074    7110    7116      14    7080    7074   -7110    7116      15
    7080    7074   -7110    7116       5    7080    7074   -7110    7116       6
    7074    7110    7116    7122       2    7068    7074    7080    7086      12
    7068    7074    7080    7098      12    7068    7074    7110    7113       3
    7068    7074    7110    7116      17    7068    7074   -7110    7116      18
    7068    7074   -7110    7116      19    7068    7074   -7110    7116       6
    7143    7140    7146    7152       2    7140    7146    7152    7161       7
    7140    7146   -7152    7161       8    7140    7146   -7152    7161       9
    7140    7146   -7152    7161       6    7137    7128    7122    7140      12
    7128    7122    7140    7143       3    7128    7122    7140    7146      14
    7128    7122   -7140    7146      15    7128    7122   -7140    7146       5
    7128    7122   -7140    7146       6    7122    7140    7146    7152       2
    7116    7122    7128    7137      12    7116    7122    7140    7143       3
    7116    7122    7140    7146      17    7116    7122   -7140    7146      18
    7116    7122   -7140    7146      19    7116    7122   -7140    7146       6
    7164    7161    7167    7173       2    7161    7167    7173    7179       1
    7161    7167   -7173    7179       4    7161    7167   -7173    7179       5
    7161    7167   -7173    7179       6    7161    7167    7173    7209       7
    7161    7167   -7173    7209       8    7161    7167   -7173    7209       9
    7161    7167   -7173    7209       6    7152    7161    7167    7173       2
    7146    7152    7161    7164       3    7146    7152    7161    7167      17
    7146    7152   -7161    7167      18    7146    7152   -7161    7167      19
    7146    7152   -7161    7167       6    7212    7209    7224    7230       2
    7209    7224    7230    7236       1    7209    7224   -7230    7236       4
    7209    7224   -7230    7236       5    7209    7224   -7230    7236       6
    7209    7224    7230    7290       7    7209    7224   -7230    7290       8
    7209    7224   -7230    7290       9    7209    7224   -7230    7290       6
    7188    7179    7173    7209      12    7179    7173    7209    7212       3
    7179    7173    7209    7224      14    7179    7173   -7209    7224      15
    7179    7173   -7209    7224       5    7179    7173   -7209    7224       6
    7179    7188    7197    7200       3    7179    7188    7197    7203       3
    7173    7179    7188    7197      12    7173    7209    7224    7230       2
    7167    7173    7179    7188      12    7167    7173    7209    7212       3
    7167    7173    7209    7224      17    7167    7173   -7209    7224      18
    7167    7173   -7209    7224      19    7167    7173   -7209    7224       6
    7293    7290    7296    7302       2    7290    7296    7302    7311       7
    7290    7296   -7302    7311       8    7290    7296   -7302    7311       9
    7290    7296   -7302    7311       6    7254    7263    7269    7272      35
    7254    7263    7269    7281      35    7245    7236    7230    7290      12
    7245    7254    7263    7269      24    7236    7230    7290    7293       3
    7236    7230    7290    7296      14    7236    7230   -7290    7296      15
    7236    7230   -7290    7296       5    7236    7230   -7290    7296       6
    7236    7245    7254    7263      12    7230    7236    7245    7254      26
    7230    7236   -7245    7254      27    7230    7236   -7245    7254      28
    7230    7290    7296    7302       2    7224    7230    7236    7245      12
    7224    7230    7290    7293       3    7224    7230    7290    7296      17
    7224    7230   -7290    7296      18    7224    7230   -7290    7296      19
    7224    7230   -7290    7296       6    7314    7311    7317    7323       2
    7311    7317    7323    7329       1    7311    7317   -7323    7329       4
    7311    7317   -7323    7329       5    7311    7317   -7323    7329       6
    7311    7317    7323    7371       7    7311    7317   -7323    7371       8
    7311    7317   -7323    7371       9    7311    7317   -7323    7371       6
    7302    7311    7317    7323       2    7296    7302    7311    7314       3
    7296    7302    7311    7317      17    7296    7302   -7311    7317      18
    7296    7302   -7311    7317      19    7296    7302   -7311    7317       6
    7374    7371    7377    7383       2    7371    7377    7383    7389       1
    7371    7377   -7383    7389       4    7371    7377   -7383    7389       5
    7371    7377   -7383    7389       6    7371    7377    7383    7431       7
    7371    7377   -7383    7431       8    7371    7377   -7383    7431       9
    7371    7377   -7383    7431       6    7347    7341    7338    7365      29
    7347    7353   -7359    7365      29    7341    7338    7365    7359      29
    7341    7347   -7353    7359      29    7338    7329    7323    7371      12
    7338    7341    7347    7353      29    7338    7365   -7359    7353      29
    7329    7323    7371    7374       3    7329    7323    7371    7377      14
    7329    7323   -7371    7377      15    7329    7323   -7371    7377       5
    7329    7323   -7371    7377       6    7329    7338    7341    7347      29
    7329    7338    7365    7359      29    7323    7329    7338    7341       3
    7323    7329    7338    7365       3    7323    7371    7377    7383       2
    7317    7323    7329    7338      12    7317    7323    7371    7374       3
    7317    7323    7371    7377      17    7317    7323   -7371    7377      18
    7317    7323   -7371    7377      19    7317    7323   -7371    7377       6
    7434    7431    7437    7443       2    7431    7437    7443    7449       1
    7431    7437   -7443    7449       4    7431    7437   -7443    7449       5
    7431    7437   -7443    7449       6    7431    7437    7443    7494       7
    7431    7437   -7443    7494       8    7431    7437   -7443    7494       9
    7431    7437   -7443    7494       6    7407    7401    7398    7425      29
    7407    7413   -7419    7425      29    7401    7398    7425    7419      29
    7401    7407   -7413    7419      29    7398    7389    7383    7431      12
    7398    7401    7407    7413      29    7398    7425   -7419    7413      29
    7389    7383    7431    7434       3    7389    7383    7431    7437      14
    7389    7383   -7431    7437      15    7389    7383   -7431    7437       5
    7389    7383   -7431    7437       6    7389    7398    7401    7407      29
    7389    7398    7425    7419      29    7383    7389    7398    7401       3
    7383    7389    7398    7425       3    7383    7431    7437    7443       2
    7377    7383    7389    7398      12    7377    7383    7431    7434       3
    7377    7383    7431    7437      17    7377    7383   -7431    7437      18
    7377    7383   -7431    7437      19    7377    7383   -7431    7437       6
    7497    7494    7500    7506       2    7494    7500    7506    7512       1
    7494    7500   -7506    7512       4    7494    7500   -7506    7512       5
    7494    7500   -7506    7512       6    7494    7500    7506    7536       7
    7494    7500   -7506    7536       8    7494    7500   -7506    7536       9
    7494    7500   -7506    7536       6    7476    7473    7482    7488      29
    7467    7461    7458    7488      29    7467    7473   -7482    7488      29
    7461    7458    7488    7482      29    7461    7467    7473    7476      29
    7461    7467   -7473    7482      29    7458    7449    7443    7494      12
    7458    7461    7467    7473      29    7458    7488   -7482    7473      29
    7449    7443    7494    7497       3    7449    7443    7494    7500      14
    7449    7443   -7494    7500      15    7449    7443   -7494    7500       5
    7449    7443   -7494    7500       6    7449    7458    7461    7467      29
    7449    7458    7488    7482      29    7443    7449    7458    7461       3
    7443    7449    7458    7488       3    7443    7494    7500    7506       2
    7437    7443    7449    7458      12    7437    7443    7494    7497       3
    7437    7443    7494    7500      17    7437    7443   -7494    7500      18
    7437    7443   -7494    7500      19    7437    7443   -7494    7500       6
    7539    7536    7542    7548       2    7530    7512    7506    7536      12
    7518    7512    7506    7536      12    7512    7506    7536    7539       3
    7512    7506    7536    7542      14    7512    7506   -7536    7542      15
    7512    7506   -7536    7542       5    7512    7506   -7536    7542       6
    7506    7536    7542    7548       2    7500    7506    7512    7518      12
    7500    7506    7512    7530      12    7500    7506    7536    7539       3
    7500    7506    7536    7542      17    7500    7506   -7536    7542      18
    7500    7506   -7536    7542      19    7500    7506   -7536    7542       6
       3      18     -12     -15      36      24      69     -63     -66      36
      39      54     -48     -51      36      75      99     -93     -96      36
     105     129    -123    -126      36     135     171    -165    -168      36
     177     204    -198    -201      36     210     261    -255    -258      36
     267     291    -285    -288      36     297     324    -318    -321      36
     330     381    -375    -378      36     387     444    -438    -441      36
     411     426    -417    -420      38     405     432    -402    -393      38
     450     495    -489    -492      36     465     480    -474    -477      36
     501     552    -546    -549      36     558     609    -594    -597      36
     573     585    -582    -588      36     615     651    -645    -648      36
     621     636    -630    -633      36     657     714    -708    -711      36
     681     696    -687    -690      38     675     702    -672    -663      38
     720     744    -738    -741      36     765     780    -774    -777      36
     786     834    -828    -831      36     792     822    -801    -804      38
     840     891    -885    -888      36     897     921    -915    -918      36
     927     942    -936    -939      36     948     975    -969    -972      36
     981    1029   -1023   -1026      36     987    1017    -996    -999      38
    1035    1086   -1080   -1083      36    1092    1134   -1128   -1131      36
    1140    1191   -1176   -1179      36    1155    1167   -1164   -1170      36
    1197    1221   -1215   -1218      36    1227    1278   -1272   -1275      36
    1284    1341   -1335   -1338      36    1308    1323   -1314   -1317      38
    1302    1329   -1299   -1290      38    1347    1398   -1392   -1395      36
    1404    1446   -1440   -1443      36    1452    1476   -1470   -1473      36
    1482    1497   -1491   -1494      36    1503    1554   -1539   -1542      36
    1518    1530   -1527   -1533      36    1560    1626   -1620   -1623      36
    1593    1602   -1599   -1611      36    1632    1647   -1641   -1644      36
    1653    1707   -1701   -1704      36    1671    1695   -1668   -1659      38
    1713    1767   -1761   -1764      36    1731    1755   -1728   -1719      38
    1773    1830   -1824   -1827      36    1797    1812   -1803   -1806      38
    1791    1818   -1788   -1779      38    1836    1872   -1866   -1869      36
    1893    1908   -1902   -1905      36    1914    1959   -1953   -1956      36
    1929    1944   -1938   -1941      36    1965    1989   -1983   -1986      36
    1995    2019   -2013   -2016      36    2025    2061   -2055   -2058      36
    2067    2094   -2088   -2091      36    2100    2151   -2145   -2148      36
    2157    2181   -2175   -2178      36    2187    2214   -2208   -2211      36
    2220    2271   -2265   -2268      36    2277    2334   -2328   -2331      36
    2301    2316   -2307   -2310      38    2295    2322   -2292   -2283      38
    2340    2385   -2379   -2382      36    2355    2370   -2364   -2367      36
    2391    2442   -2436   -2439      36    2448    2499   -2484   -2487      36
    2463    2475   -2472   -2478      36    2505    2541   -2535   -2538      36
    2511    2526   -2520   -2523      36    2547    2604   -2598   -2601      36
    2571    2586   -2577   -2580      38    2565    2592   -2562   -2553      38
    2610    2634   -2628   -2631      36    2655    2670   -2664   -2667      36
    2676    2724   -2718   -2721      36    2682    2712   -2691   -2694      38
    2730    2781   -2775   -2778      36    2787    2811   -2805   -2808      36
    2817    2832   -2826   -2829      36    2838    2865   -2859   -2862      36
    2871    2919   -2913   -2916      36    2877    2907   -2886   -2889      38
    2925    2976   -2970   -2973      36    2982    3024   -3018   -3021      36
    3030    3081   -3066   -3069      36    3045    3057   -3054   -3060      36
    3087    3111   -3105   -3108      36    3117    3168   -3162   -3165      36
    3174    3231   -3225   -3228      36    3198    3213   -3204   -3207      38
    3192    3219   -3189   -3180      38    3237    3288   -3282   -3285      36
    3294    3336   -3330   -3333      36    3342    3366   -3360   -3363      36
    3372    3387   -3381   -3384      36    3393    3444   -3429   -3432      36
    3408    3420   -3417   -3423      36    3450    3516   -3510   -3513      36
    3483    3492   -3489   -3501      36    3522    3537   -3531   -3534      36
    3543    3597   -3591   -3594      36    3561    3585   -3558   -3549      38
    3603    3657   -3651   -3654      36    3621    3645   -3618   -3609      38
    3663    3720   -3714   -3717      36    3687    3702   -3693   -3696      38
    3681    3708   -3678   -3669      38    3726    3762   -3756   -3759      36
    3783    3798   -3792   -3795      36    3804    3849   -3843   -3846      36
    3819    3834   -3828   -3831      36    3855    3879   -3873   -3876      36
    3885    3909   -3903   -3906      36    3915    3951   -3945   -3948      36
    3957    3984   -3978   -3981      36    3990    4041   -4035   -4038      36
    4047    4071   -4065   -4068      36    4077    4104   -4098   -4101      36
    4110    4161   -4155   -4158      36    4167    4224   -4218   -4221      36
    4191    4206   -4197   -4200      38    4185    4212   -4182   -4173      38
    4230    4275   -4269   -4272      36    4245    4260   -4254   -4257      36
    4281    4332   -4326   -4329      36    4338    4389   -4374   -4377      36
    4353    4365   -4362   -4368      36    4395    4431   -4425   -4428      36
    4401    4416   -4410   -4413      36    4437    4494   -4488   -4491      36
    4461    4476   -4467   -4470      38    4455    4482   -4452   -4443      38
    4500    4524   -4518   -4521      36    4545    4560   -4554   -4557      36
    4566    4614   -4608   -4611      36    4572    4602   -4581   -4584      38
    4620    4671   -4665   -4668      36    4677    4701   -4695   -4698      36
    4707    4722   -4716   -4719      36    4728    4755   -4749   -4752      36
    4761    4809   -4803   -4806      36    4767    4797   -4776   -4779      38
    4815    4866   -4860   -4863      36    4872    4914   -4908   -4911      36
    4920    4971   -4956   -4959      36    4935    4947   -4944   -4950      36
    4977    5001   -4995   -4998      36    5007    5058   -5052   -5055      36
    5064    5121   -5115   -5118      36    5088    5103   -5094   -5097      38
    5082    5109   -5079   -5070      38    5127    5178   -5172   -5175      36
    5184    5226   -5220   -5223      36    5232    5256   -5250   -5253      36
    5262    5277   -5271   -5274      36    5283    5334   -5319   -5322      36
    5298    5310   -5307   -5313      36    5340    5406   -5400   -5403      36
    5373    5382   -5379   -5391      36    5412    5427   -5421   -5424      36
    5433    5487   -5481   -5484      36    5451    5475   -5448   -5439      38
    5493    5547   -5541   -5544      36    5511    5535   -5508   -5499      38
    5553    5610   -5604   -5607      36    5577    5592   -5583   -5586      38
    5571    5598   -5568   -5559      38    5616    5652   -5646   -5649      36
    5673    5688   -5682   -5685      36    5694    5739   -5733   -5736      36
    5709    5724   -5718   -5721      36    5745    5769   -5763   -5766      36
    5775    5799   -5793   -5796      36    5805    5841   -5835   -5838      36
    5847    5874   -5868   -5871      36    5880    5931   -5925   -5928      36
    5937    5961   -5955   -5958      36    5967    5994   -5988   -5991      36
    6000    6051   -6045   -6048      36    6057    6114   -6108   -6111      36
    6081    6096   -6087   -6090      38    6075    6102   -6072   -6063      38
    6120    6165   -6159   -6162      36    6135    6150   -6144   -6147      36
    6171    6222   -6216   -6219      36    6228    6279   -6264   -6267      36
    6243    6255   -6252   -6258      36    6285    6321   -6315   -6318      36
    6291    6306   -6300   -6303      36    6327    6384   -6378   -6381      36
    6351    6366   -6357   -6360      38    6345    6372   -6342   -6333      38
    6390    6414   -6408   -6411      36    6435    6450   -6444   -6447      36
    6456    6504   -6498   -6501      36    6462    6492   -6471   -6474      38
    6510    6561   -6555   -6558      36    6567    6591   -6585   -6588      36
    6597    6612   -6606   -6609      36    6618    6645   -6639   -6642      36
    6651    6699   -6693   -6696      36    6657    6687   -6666   -6669      38
    6705    6756   -6750   -6753      36    6762    6804   -6798   -6801      36
    6810    6861   -6846   -6849      36    6825    6837   -6834   -6840      36
    6867    6891   -6885   -6888      36    6897    6948   -6942   -6945      36
    6954    7011   -7005   -7008      36    6978    6993   -6984   -6987      38
    6972    6999   -6969   -6960      38    7017    7068   -7062   -7065      36
    7074    7116   -7110   -7113      36    7122    7146   -7140   -7143      36
    7152    7167   -7161   -7164      36    7173    7224   -7209   -7212      36
    7188    7200   -7197   -7203      36    7230    7296   -7290   -7293      36
    7263    7272   -7269   -7281      36    7302    7317   -7311   -7314      36
    7323    7377   -7371   -7374      36    7341    7365   -7338   -7329      38
    7383    7437   -7431   -7434      36    7401    7425   -7398   -7389      38
    7443    7500   -7494   -7497      36    7467    7482   -7473   -7476      38
    7461    7488   -7458   -7449      38    7506    7542   -7536   -7539      36
%FLAG EXCLUDED_ATOMS_LIST                                                       
%FORMAT(10I8)                                                                   
       2       3       4       5       6       7       3       4       5       6
       7       8       9       4       5       6       7       5       6       7
       6       7       8       9      10      11      22       7       8       9
       8       9      10      11      12      13      14      22      23      24
       9      10      11      22      10      11      12      13      14      15
      16      17      22      23      24      25      26      11      12      13
      14      22      23      24      12      13      14      15      16      17
      18      19      22      23      24      13      14      15      16      17
      22      14      15      16      17      22      15      16      17      18
      19      20      21      22      16      17      18      19      17      18
      19      18      19      20      21      19      20      21      20      21
      21       0      23      24      25      26      27      28      32      24
      25      26      25      26      27      28      29      30      31      32
      33      34      26      27      28      32      27      28      29      30
      31      32      33      34      35      36      95      28      29      30
      31      32      33      34      29      30      31      32      33      34
      92      95      30      31      32      95      31      32      95      32
      90      92      93      94      95      33      34      35      36      37
      38      42      34      35      36      35      36      37      38      39
      40      41      42      43      44      36      37      38      42      37
      38      39      40      41      42      43      44      45      46     305
      38      39      40      41      42      43      44      39      40      41
      42      43      44     302     305      40      41      42     305      41
      42     305      42     300     302     303     304     305      43      44
      45      46      47      48      56      44      45      46      45      46
      47      48      49      50      54      56      57      58      46      47
      48      56      47      48      49      50      51      52      53      54
      55      56      57      58      59      60      48      49      50      54
      56      57      58      49      50      51      52      53      54      55
      56      57      58      50      51      52      53      54      55      56
      51      52      53      54      55      56      52      53      54      53
      54      54      55      56       0      57      58      59      60      61
      62      67      58      59      60      59      60      61      62      63
      64      65      67      68      69      60      61      62      67      61
      62      63      64      65      66      67      68      69      70      71
      62      63      64      65      67      68      69      63      64      65
      66      67      68      69      64      65      66      67      65      66
      67      66      67       0      68      69      70      71      72      73
      86      69      70      71      70      71      72      73      74      75
      79      86      87      88      71      72      73      86      72      73
      74      75      76      77      78      79      80      81      82      86
      87      88      89      90      73      74      75      79      86      87
      88      74      75      76      77      78      79      80      81      82
      83      84      85      86      87      88      75      76      77      78
      79      80      81      82      86      76      77      78      79      80
      81      82      86      77      78      79      78      79      79      80
      81      82      83      84      85      86      81      82      83      84
      85      82      83      84      85      83      84      85      84      85
      85       0      87      88      89      90      91      92      96      88
      89      90      89      90      91      92      93      94      95      96
      97      98      90      91      92      96      91      92      93      94
      95      96      97      98      99     100      92      93      94      95
      96      97      98      93      94      95      96      97      98      94
      95      96      95      96      96      97      98      99     100     101
     102     107      98      99     100      99     100     101     102     103
     104     105     107     108     109     100     101     102     107     101
     102     103     104     105     106     107     108     109     110     111
     102     103     104     105     107     108     109     103     104     105
     106     107     108     109     104     105     106     107     105     106
     107     106     107       0     108     109     110     111     112     113
     126     109     110     111     110     111     112     113     114     115
     116     126     127     128     111     112     113     126     112     113
     114     115     116     117     118     122     126     127     128     129
     130     113     114     115     116     126     127     128     114     115
     116     117     118     119     120     121     122     123     124     125
     126     127     128     115     116     117     118     122     126     116
     117     118     122     126     117     118     119     120     121     122
     123     124     125     126     118     119     120     121     122     123
     124     125     119     120     121     122     123     124     125     120
     121     122     121     122     122     123     124     125     124     125
     125       0     127     128     129     130     131     132     147     128
     129     130     129     130     131     132     133     134     135     147
     148     149     130     131     132     147     131     132     133     134
     135     136     145     147     148     149     150     151     132     133
     134     135     147     148     149     133     134     135     136     137
     138     143     145     146     147     148     149     134     135     136
     145     147     135     136     145     147     136     137     138     139
     140     143     144     145     146     147     137     138     139     140
     141     143     145     146     138     139     140     145     139     140
     141     142     143     144     145     140     141     143     141     142
     143     144     145     146     142     143     144     145     143     144
     145     146     145     146     146       0     148     149     150     151
     152     153     164     149     150     151     150     151     152     153
     154     155     156     164     165     166     151     152     153     164
     152     153     154     155     156     157     158     159     164     165
     166     167     168     153     154     155     156     164     165     166
     154     155     156     157     158     159     160     161     164     165
     166     155     156     157     158     159     164     156     157     158
     159     164     157     158     159     160     161     162     163     164
     158     159     160     161     159     160     161     160     161     162
     163     161     162     163     162     163     163       0     165     166
     167     168     169     170     183     166     167     168     167     168
     169     170     171     172     173     183     184     185     168     169
     170     183     169     170     171     172     173     174     175     179
     183     184     185     186     187     170     171     172     173     183
     184     185     171     172     173     174     175     176     177     178
     179     180     181     182     183     184     185     172     173     174
     175     179     183     173     174     175     179     183     174     175
     176     177     178     179     180     181     182     183     175     176
     177     178     179     180     181     182     176     177     178     179
     180     181     182     177     178     179     178     179     179     180
     181     182     181     182     182       0     184     185     186     187
     188     189     199     185     186     187     186     187     188     189
     190     191     192     199     200     204     187     188     189     199
     188     189     190     191     192     193     194     195     199     200
     204     205     206     189     190     191     192     199     200     204
     190     191     192     193     194     195     196     197     199     200
     204     191     192     193     194     195     199     192     193     194
     195     199     193     194     195     196     197     198     199     201
     202     203     194     195     196     197     195     196     197     196
     197     198     201     202     203     197     198     201     202     203
     198     201     202     203     201     200     204     205     206     207
     208     216     204     205     206       0     203       0     205     206
     207     208     209     210     211     216     217     218     206     207
     208     216     207     208     209     210     211     212     213     216
     217     218     219     220     208     209     210     211     216     217
     218     209     210     211     212     213     214     215     216     217
     218     210     211     212     213     216     211     212     213     216
     212     213     214     215     216     213     214     215     214     215
     215       0     217     218     219     220     221     222     237     218
     219     220     219     220     221     222     223     224     225     237
     238     239     220     221     222     237     221     222     223     224
     225     226     235     237     238     239     240     241     222     223
     224     225     237     238     239     223     224     225     226     227
     228     233     235     236     237     238     239     224     225     226
     235     237     225     226     235     237     226     227     228     229
     230     233     234     235     236     237     227     228     229     230
     231     233     235     236     228     229     230     235     229     230
     231     232     233     234     235     230     231     233     231     232
     233     234     235     236     232     233     234     235     233     234
     235     236     235     236     236       0     238     239     240     241
     242     243     247     239     240     241     240     241     242     243
     244     245     246     247     248     249     241     242     243     247
     242     243     244     245     246     247     248     249     250     251
     490     243     244     245     246     247     248     249     244     245
     246     247     248     249     487     490     245     246     247     490
     246     247     490     247     485     487     488     489     490     248
     249     250     251     252     253     254     249     250     251     250
     251     252     253     254     251     252     253     254     252     253
     254     253     254     254       0     256     257     258     259     260
     261     257     258     259     260     261     262     263     258     259
     260     261     259     260     261     260     261     262     263     264
     265     277     261     262     263     262     263     264     265     266
     267     268     277     278     279     263     264     265     277     264
     265     266     267     268     269     275     277     278     279     280
     281     265     266     267     268     277     278     279     266     267
     268     269     270     271     273     275     276     277     278     279
     267     268     269     275     277     268     269     275     277     269
     270     271     272     273     274     275     276     277     270     271
     272     273     274     275     276     271     272     273     275     272
     273     274     275     276     273     274     275     274     275     276
     275     276     276       0     278     279     280     281     282     283
     296     279     280     281     280     281     282     283     284     285
     286     296     297     298     281     282     283     296     282     283
     284     285     286     287     288     292     296     297     298     299
     300     283     284     285     286     296     297     298     284     285
     286     287     288     289     290     291     292     293     294     295
     296     297     298     285     286     287     288     292     296     286
     287     288     292     296     287     288     289     290     291     292
     293     294     295     296     288     289     290     291     292     293
     294     295     289     290     291     292     293     294     295     290
     291     292     291     292     292     293     294     295     294     295
     295       0     297     298     299     300     301     302     306     298
     299     300     299     300     301     302     303     304     305     306
     307     308     300     301     302     306     301     302     303     304
     305     306     307     308     309     310     302     303     304     305
     306     307     308     303     304     305     306     307     308     304
     305     306     305     306     306     307     308     309     310     311
     312     313     308     309     310     309     310     311     312     313
     314     315     310     311     312     313     311     312     313     314
     315     316     317     312     313     314     315     313     314     315
     314     315     316     317     318     319     324     315     316     317
     316     317     318     319     320     321     322     324     325     326
     317     318     319     324     318     319     320     321     322     323
     324     325     326     327     328     319     320     321     322     324
     325     326     320     321     322     323     324     325     326     321
     322     323     324     322     323     324     323     324       0     325
     326     327     328     329     330     342     326     327     328     327
     328     329     330     331     332     333     342     343     344     328
     329     330     342     329     330     331     332     333     334     340
     342     343     344     345     346     330     331     332     333     342
     343     344     331     332     333     334     335     336     338     340
     341     342     343     344     332     333     334     340     342     333
     334     340     342     334     335     336     337     338     339     340
     341     342     335     336     337     338     339     340     341     336
     337     338     340     337     338     339     340     341     338     339
     340     339     340     341     340     341     341       0     343     344
     345     346     347     348     361     344     345     346     345     346
     347     348     349     350     351     361     362     363     346     347
     348     361     347     348     349     350     351     352     353     357
     361     362     363     364     365     348     349     350     351     361
     362     363     349     350     351     352     353     354     355     356
     357     358     359     360     361     362     363     350     351     352
     353     357     361     351     352     353     357     361     352     353
     354     355     356     357     358     359     360     361     353     354
     355     356     357     358     359     360     354     355     356     357
     358     359     360     355     356     357     356     357     357     358
     359     360     359     360     360       0     362     363     364     365
     366     367     377     363     364     365     364     365     366     367
     368     369     373     377     378     379     365     366     367     377
     366     367     368     369     370     371     372     373     374     375
     376     377     378     379     380     381     367     368     369     373
     377     378     379     368     369     370     371     372     373     374
     375     376     377     378     379     369     370     371     372     373
     374     375     376     377     370     371     372     373     374     375
     376     377     371     372     373     372     373     373     374     375
     376     377     375     376     376       0     378     379     380     381
     382     383     393     379     380     381     380     381     382     383
     384     385     386     393     394     398     381     382     383     393
     382     383     384     385     386     387     388     389     393     394
     398     399     400     383     384     385     386     393     394     398
     384     385     386     387     388     389     390     391     393     394
     398     385     386     387     388     389     393     386     387     388
     389     393     387     388     389     390     391     392     393     395
     396     397     388     389     390     391     389     390     391     390
     391     392     395     396     397     391     392     395     396     397
     392     395     396     397     395     394     398     399     400     401
     402     406     398     399     400       0     397       0     399     400
     401     402     403     404     405     406     407     408     400     401
     402     406     401     402     403     404     405     406     407     408
     409     410     402     403     404     405     406     407     408     403
     404     405     406     407     408     404     405     406     405     406
     406     407     408     409     410     411     412     425     408     409
     410     409     410     411     412     413     414     415     425     426
     427     410     411     412     425     411     412     413     414     415
     416     417     421     425     426     427     428     429     412     413
     414     415     425     426     427     413     414     415     416     417
     418     419     420     421     422     423     424     425     426     427
     414     415     416     417     421     425     415     416     417     421
     425     416     417     418     419     420     421     422     423     424
     425     417     418     419     420     421     422     423     424     418
     419     420     421     422     423     424     419     420     421     420
     421     421     422     423     424     423     424     424       0     426
     427     428     429     430     431     446     427     428     429     428
     429     430     431     432     433     434     446     447     448     429
     430     431     446     430     431     432     433     434     435     444
     446     447     448     449     450     431     432     433     434     446
     447     448     432     433     434     435     436     437     442     444
     445     446     447     448     433     434     435     444     446     434
     435     444     446     435     436     437     438     439     442     443
     444     445     446     436     437     438     439     440     442     444
     445     437     438     439     444     438     439     440     441     442
     443     444     439     440     442     440     441     442     443     444
     445     441     442     443     444     442     443     444     445     444
     445     445       0     447     448     449     450     451     452     465
     448     449     450     449     450     451     452     453     454     455
     465     466     467     450     451     452     465     451     452     453
     454     455     456     457     461     465     466     467     468     469
     452     453     454     455     465     466     467     453     454     455
     456     457     458     459     460     461     462     463     464     465
     466     467     454     455     456     457     461     465     455     456
     457     461     465     456     457     458     459     460     461     462
     463     464     465     457     458     459     460     461     462     463
     464     458     459     460     461     462     463     464     459     460
     461     460     461     461     462     463     464     463     464     464
       0     466     467     468     469     470     471     481     467     468
     469     468     469     470     471     472     473     477     481     482
     483     469     470     471     481     470     471     472     473     474
     475     476     477     478     479     480     481     482     483     484
     485     471     472     473     477     481     482     483     472     473
     474     475     476     477     478     479     480     481     482     483
     473     474     475     476     477     478     479     480     481     474
     475     476     477     478     479     480     481     475     476     477
     476     477     477     478     479     480     481     479     480     480
       0     482     483     484     485     486     487     491     483     484
     485     484     485     486     487     488     489     490     491     492
     493     485     486     487     491     486     487     488     489     490
     491     492     493     494     495     487     488     489     490     491
     492     493     488     489     490     491     492     493     489     490
     491     490     491     491     492     493     494     495     496     497
     498     493     494     495     494     495     496     497     498     499
     500     495     496     497     498     496     497     498     499     500
     501     502     497     498     499     500     498     499     500     499
     500     501     502     503     504     514     500     501     502     501
     502     503     504     505     506     507     514     515     519     502
     503     504     514     503     504     505     506     507     508     509
     510     514     515     519     520     521     504     505     506     507
     514     515     519     505     506     507     508     509     510     511
     512     514     515     519     506     507     508     509     510     514
     507     508     509     510     514     508     509     510     511     512
     513     514     516     517     518     509     510     511     512     510
     511     512     511     512     513     516     517     518     512     513
     516     517     518     513     516     517     518     516     515     519
     520     521     522     523     541     519     520     521       0     518
       0     520     521     522     523     524     525     526     541     542
     543     521     522     523     541     522     523     524     525     526
     527     528     529     541     542     543     544     545     523     524
     525     526     541     542     543     524     525     526     527     528
     529     530     531     532     541     542     543     525     526     527
     528     529     541     526     527     528     529     541     527     528
     529     530     531     532     533     534     541     528     529     530
     531     532     529     530     531     532     530     531     532     533
     534     535     538     531     532     533     534     532     533     534
     533     534     535     536     537     538     539     540     534     535
     538     535     536     537     538     539     540     536     537     538
     539     540     537     538     538     539     540     540       0     542
     543     544     545     546     547     548     543     544     545     544
     545     546     547     548     549     550     545     546     547     548
     546     547     548     549     550     551     552     547     548     549
     550     548     549     550     549     550     551     552     553     554
     568     550     551     552     551     552     553     554     555     556
     557     568     569     570     552     553     554     568     553     554
     555     556     557     558     566     568     569     570     571     572
     554     555     556     557     568     569     570     555     556     557
     558     559     560     564     566     567     568     569     570     556
     557     558     566     568     557     558     566     568     558     559
     560     561     562     564     565     566     567     568     559     560
     561     562     563     564     566     567     560     561     562     566
     561     562     563     564     565     566     562     563     564     563
     564     565     566     567     564     565     566     565     566     567
     566     567     567       0     569     570     571     572     573     574
     588     570     571     572     571     572     573     574     575     576
     577     588     589     590     572     573     574     588     573     574
     575     576     577     578     586     588     589     590     591     592
     574     575     576     577     588     589     590     575     576     577
     578     579     580     584     586     587     588     589     590     576
     577     578     586     588     577     578     586     588     578     579
     580     581     582     584     585     586     587     588     579     580
     581     582     583     584     586     587     580     581     582     586
     581     582     583     584     585     586     582     583     584     583
     584     585     586     587     584     585     586     585     586     587
     586     587     587       0     589     590     591     592     593     594
     609     590     591     592     591     592     593     594     595     596
     597     609     610     611     592     593     594     609     593     594
     595     596     597     598     607     609     610     611     612     613
     594     595     596     597     609     610     611     595     596     597
     598     599     600     605     607     608     609     610     611     596
     597     598     607     609     597     598     607     609     598     599
     600     601     602     605     606     607     608     609     599     600
     601     602     603     605     607     608     600     601     602     607
     601     602     603     604     605     606     607     602     603     605
     603     604     605     606     607     608     604     605     606     607
     605     606     607     608     607     608     608       0     610     611
     612     613     614     615     623     611     612     613     612     613
     614     615     616     617     621     623     624     625     613     614
     615     623     614     615     616     617     618     619     620     621
     622     623     624     625     626     627     615     616     617     621
     623     624     625     616     617     618     619     620     621     622
     623     624     625     617     618     619     620     621     622     623
     618     619     620     621     622     623     619     620     621     620
     621     621     622     623       0     624     625     626     627     628
     629     630     625     626     627     626     627     628     629     630
     627     628     629     630     628     629     630     629     630     630
       0     632     633     634     635     636     637     633     634     635
     636     637     638     639     634     635     636     637     635     636
     637     636     637     638     639     640     641     652     637     638
     639     638     639     640     641     642     643     644     652     653
     654     639     640     641     652     640     641     642     643     644
     645     646     647     652     653     654     655     656     641     642
     643     644     652     653     654     642     643     644     645     646
     647     648     649     652     653     654     643     644     645     646
     647     652     644     645     646     647     652     645     646     647
     648     649     650     651     652     646     647     648     649     647
     648     649     648     649     650     651     649     650     651     650
     651     651       0     653     654     655     656     657     658     662
     654     655     656     655     656     657     658     659     660     661
     662     663     664     656     657     658     662     657     658     659
     660     661     662     663     664     665     666     725     658     659
     660     661     662     663     664     659     660     661     662     663
     664     722     725     660     661     662     725     661     662     725
     662     720     722     723     724     725     663     664     665     666
     667     668     672     664     665     666     665     666     667     668
     669     670     671     672     673     674     666     667     668     672
     667     668     669     670     671     672     673     674     675     676
     935     668     669     670     671     672     673     674     669     670
     671     672     673     674     932     935     670     671     672     935
     671     672     935     672     930     932     933     934     935     673
     674     675     676     677     678     686     674     675     676     675
     676     677     678     679     680     684     686     687     688     676
     677     678     686     677     678     679     680     681     682     683
     684     685     686     687     688     689     690     678     679     680
     684     686     687     688     679     680     681     682     683     684
     685     686     687     688     680     681     682     683     684     685
     686     681     682     683     684     685     686     682     683     684
     683     684     684     685     686       0     687     688     689     690
     691     692     697     688     689     690     689     690     691     692
     693     694     695     697     698     699     690     691     692     697
     691     692     693     694     695     696     697     698     699     700
     701     692     693     694     695     697     698     699     693     694
     695     696     697     698     699     694     695     696     697     695
     696     697     696     697       0     698     699     700     701     702
     703     716     699     700     701     700     701     702     703     704
     705     709     716     717     718     701     702     703     716     702
     703     704     705     706     707     708     709     710     711     712
     716     717     718     719     720     703     704     705     709     716
     717     718     704     705     706     707     708     709     710     711
     712     713     714     715     716     717     718     705     706     707
     708     709     710     711     712     716     706     707     708     709
     710     711     712     716     707     708     709     708     709     709
     710     711     712     713     714     715     716     711     712     713
     714     715     712     713     714     715     713     714     715     714
     715     715       0     717     718     719     720     721     722     726
     718     719     720     719     720     721     722     723     724     725
     726     727     728     720     721     722     726     721     722     723
     724     725     726     727     728     729     730     722     723     724
     725     726     727     728     723     724     725     726     727     728
     724     725     726     725     726     726     727     728     729     730
     731     732     737     728     729     730     729     730     731     732
     733     734     735     737     738     739     730     731     732     737
     731     732     733     734     735     736     737     738     739     740
     741     732     733     734     735     737     738     739     733     734
     735     736     737     738     739     734     735     736     737     735
     736     737     736     737       0     738     739     740     741     742
     743     756     739     740     741     740     741     742     743     744
     745     746     756     757     758     741     742     743     756     742
     743     744     745     746     747     748     752     756     757     758
     759     760     743     744     745     746     756     757     758     744
     745     746     747     748     749     750     751     752     753     754
     755     756     757     758     745     746     747     748     752     756
     746     747     748     752     756     747     748     749     750     751
     752     753     754     755     756     748     749     750     751     752
     753     754     755     749     750     751     752     753     754     755
     750     751     752     751     752     752     753     754     755     754
     755     755       0     757     758     759     760     761     762     777
     758     759     760     759     760     761     762     763     764     765
     777     778     779     760     761     762     777     761     762     763
     764     765     766     775     777     778     779     780     781     762
     763     764     765     777     778     779     763     764     765     766
     767     768     773     775     776     777     778     779     764     765
     766     775     777     765     766     775     777     766     767     768
     769     770     773     774     775     776     777     767     768     769
     770     771     773     775     776     768     769     770     775     769
     770     771     772     773     774     775     770     771     773     771
     772     773     774     775     776     772     773     774     775     773
     774     775     776     775     776     776       0     778     779     780
     781     782     783     794     779     780     781     780     781     782
     783     784     785     786     794     795     796     781     782     783
     794     782     783     784     785     786     787     788     789     794
     795     796     797     798     783     784     785     786     794     795
     796     784     785     786     787     788     789     790     791     794
     795     796     785     786     787     788     789     794     786     787
     788     789     794     787     788     789     790     791     792     793
     794     788     789     790     791     789     790     791     790     791
     792     793     791     792     793     792     793     793       0     795
     796     797     798     799     800     813     796     797     798     797
     798     799     800     801     802     803     813     814     815     798
     799     800     813     799     800     801     802     803     804     805
     809     813     814     815     816     817     800     801     802     803
     813     814     815     801     802     803     804     805     806     807
     808     809     810     811     812     813     814     815     802     803
     804     805     809     813     803     804     805     809     813     804
     805     806     807     808     809     810     811     812     813     805
     806     807     808     809     810     811     812     806     807     808
     809     810     811     812     807     808     809     808     809     809
     810     811     812     811     812     812       0     814     815     816
     817     818     819     829     815     816     817     816     817     818
     819     820     821     822     829     830     834     817     818     819
     829     818     819     820     821     822     823     824     825     829
     830     834     835     836     819     820     821     822     829     830
     834     820     821     822     823     824     825     826     827     829
     830     834     821     822     823     824     825     829     822     823
     824     825     829     823     824     825     826     827     828     829
     831     832     833     824     825     826     827     825     826     827
     826     827     828     831     832     833     827     828     831     832
     833     828     831     832     833     831     830     834     835     836
     837     838     846     834     835     836       0     833       0     835
     836     837     838     839     840     841     846     847     848     836
     837     838     846     837     838     839     840     841     842     843
     846     847     848     849     850     838     839     840     841     846
     847     848     839     840     841     842     843     844     845     846
     847     848     840     841     842     843     846     841     842     843
     846     842     843     844     845     846     843     844     845     844
     845     845       0     847     848     849     850     851     852     867
     848     849     850     849     850     851     852     853     854     855
     867     868     869     850     851     852     867     851     852     853
     854     855     856     865     867     868     869     870     871     852
     853     854     855     867     868     869     853     854     855     856
     857     858     863     865     866     867     868     869     854     855
     856     865     867     855     856     865     867     856     857     858
     859     860     863     864     865     866     867     857     858     859
     860     861     863     865     866     858     859     860     865     859
     860     861     862     863     864     865     860     861     863     861
     862     863     864     865     866     862     863     864     865     863
     864     865     866     865     866     866       0     868     869     870
     871     872     873     877     869     870     871     870     871     872
     873     874     875     876     877     878     879     871     872     873
     877     872     873     874     875     876     877     878     879     880
     881    1120     873     874     875     876     877     878     879     874
     875     876     877     878     879    1117    1120     875     876     877
    1120     876     877    1120     877    1115    1117    1118    1119    1120
     878     879     880     881     882     883     884     879     880     881
     880     881     882     883     884     881     882     883     884     882
     883     884     883     884     884       0     886     887     888     889
     890     891     887     888     889     890     891     892     893     888
     889     890     891     889     890     891     890     891     892     893
     894     895     907     891     892     893     892     893     894     895
     896     897     898     907     908     909     893     894     895     907
     894     895     896     897     898     899     905     907     908     909
     910     911     895     896     897     898     907     908     909     896
     897     898     899     900     901     903     905     906     907     908
     909     897     898     899     905     907     898     899     905     907
     899     900     901     902     903     904     905     906     907     900
     901     902     903     904     905     906     901     902     903     905
     902     903     904     905     906     903     904     905     904     905
     906     905     906     906       0     908     909     910     911     912
     913     926     909     910     911     910     911     912     913     914
     915     916     926     927     928     911     912     913     926     912
     913     914     915     916     917     918     922     926     927     928
     929     930     913     914     915     916     926     927     928     914
     915     916     917     918     919     920     921     922     923     924
     925     926     927     928     915     916     917     918     922     926
     916     917     918     922     926     917     918     919     920     921
     922     923     924     925     926     918     919     920     921     922
     923     924     925     919     920     921     922     923     924     925
     920     921     922     921     922     922     923     924     925     924
     925     925       0     927     928     929     930     931     932     936
     928     929     930     929     930     931     932     933     934     935
     936     937     938     930     931     932     936     931     932     933
     934     935     936     937     938     939     940     932     933     934
     935     936     937     938     933     934     935     936     937     938
     934     935     936     935     936     936     937     938     939     940
     941     942     943     938     939     940     939     940     941     942
     943     944     945     940     941     942     943     941     942     943
     944     945     946     947     942     943     944     945     943     944
     945     944     945     946     947     948     949     954     945     946
     947     946     947     948     949     950     951     952     954     955
     956     947     948     949     954     948     949     950     951     952
     953     954     955     956     957     958     949     950     951     952
     954     955     956     950     951     952     953     954     955     956
     951     952     953     954     952     953     954     953     954       0
     955     956     957     958     959     960     972     956     957     958
     957     958     959     960     961     962     963     972     973     974
     958     959     960     972     959     960     961     962     963     964
     970     972     973     974     975     976     960     961     962     963
     972     973     974     961     962     963     964     965     966     968
     970     971     972     973     974     962     963     964     970     972
     963     964     970     972     964     965     966     967     968     969
     970     971     972     965     966     967     968     969     970     971
     966     967     968     970     967     968     969     970     971     968
     969     970     969     970     971     970     971     971       0     973
     974     975     976     977     978     991     974     975     976     975
     976     977     978     979     980     981     991     992     993     976
     977     978     991     977     978     979     980     981     982     983
     987     991     992     993     994     995     978     979     980     981
     991     992     993     979     980     981     982     983     984     985
     986     987     988     989     990     991     992     993     980     981
     982     983     987     991     981     982     983     987     991     982
     983     984     985     986     987     988     989     990     991     983
     984     985     986     987     988     989     990     984     985     986
     987     988     989     990     985     986     987     986     987     987
     988     989     990     989     990     990       0     992     993     994
     995     996     997    1007     993     994     995     994     995     996
     997     998     999    1003    1007    1008    1009     995     996     997
    1007     996     997     998     999    1000    1001    1002    1003    1004
    1005    1006    1007    1008    1009    1010    1011     997     998     999
    1003    1007    1008    1009     998     999    1000    1001    1002    1003
    1004    1005    1006    1007    1008    1009     999    1000    1001    1002
    1003    1004    1005    1006    1007    1000    1001    1002    1003    1004
    1005    1006    1007    1001    1002    1003    1002    1003    1003    1004
    1005    1006    1007    1005    1006    1006       0    1008    1009    1010
    1011    1012    1013    1023    1009    1010    1011    1010    1011    1012
    1013    1014    1015    1016    1023    1024    1028    1011    1012    1013
    1023    1012    1013    1014    1015    1016    1017    1018    1019    1023
    1024    1028    1029    1030    1013    1014    1015    1016    1023    1024
    1028    1014    1015    1016    1017    1018    1019    1020    1021    1023
    1024    1028    1015    1016    1017    1018    1019    1023    1016    1017
    1018    1019    1023    1017    1018    1019    1020    1021    1022    1023
    1025    1026    1027    1018    1019    1020    1021    1019    1020    1021
    1020    1021    1022    1025    1026    1027    1021    1022    1025    1026
    1027    1022    1025    1026    1027    1025    1024    1028    1029    1030
    1031    1032    1036    1028    1029    1030       0    1027       0    1029
    1030    1031    1032    1033    1034    1035    1036    1037    1038    1030
    1031    1032    1036    1031    1032    1033    1034    1035    1036    1037
    1038    1039    1040    1032    1033    1034    1035    1036    1037    1038
    1033    1034    1035    1036    1037    1038    1034    1035    1036    1035
    1036    1036    1037    1038    1039    1040    1041    1042    1055    1038
    1039    1040    1039    1040    1041    1042    1043    1044    1045    1055
    1056    1057    1040    1041    1042    1055    1041    1042    1043    1044
    1045    1046    1047    1051    1055    1056    1057    1058    1059    1042
    1043    1044    1045    1055    1056    1057    1043    1044    1045    1046
    1047    1048    1049    1050    1051    1052    1053    1054    1055    1056
    1057    1044    1045    1046    1047    1051    1055    1045    1046    1047
    1051    1055    1046    1047    1048    1049    1050    1051    1052    1053
    1054    1055    1047    1048    1049    1050    1051    1052    1053    1054
    1048    1049    1050    1051    1052    1053    1054    1049    1050    1051
    1050    1051    1051    1052    1053    1054    1053    1054    1054       0
    1056    1057    1058    1059    1060    1061    1076    1057    1058    1059
    1058    1059    1060    1061    1062    1063    1064    1076    1077    1078
    1059    1060    1061    1076    1060    1061    1062    1063    1064    1065
    1074    1076    1077    1078    1079    1080    1061    1062    1063    1064
    1076    1077    1078    1062    1063    1064    1065    1066    1067    1072
    1074    1075    1076    1077    1078    1063    1064    1065    1074    1076
    1064    1065    1074    1076    1065    1066    1067    1068    1069    1072
    1073    1074    1075    1076    1066    1067    1068    1069    1070    1072
    1074    1075    1067    1068    1069    1074    1068    1069    1070    1071
    1072    1073    1074    1069    1070    1072    1070    1071    1072    1073
    1074    1075    1071    1072    1073    1074    1072    1073    1074    1075
    1074    1075    1075       0    1077    1078    1079    1080    1081    1082
    1095    1078    1079    1080    1079    1080    1081    1082    1083    1084
    1085    1095    1096    1097    1080    1081    1082    1095    1081    1082
    1083    1084    1085    1086    1087    1091    1095    1096    1097    1098
    1099    1082    1083    1084    1085    1095    1096    1097    1083    1084
    1085    1086    1087    1088    1089    1090    1091    1092    1093    1094
    1095    1096    1097    1084    1085    1086    1087    1091    1095    1085
    1086    1087    1091    1095    1086    1087    1088    1089    1090    1091
    1092    1093    1094    1095    1087    1088    1089    1090    1091    1092
    1093    1094    1088    1089    1090    1091    1092    1093    1094    1089
    1090    1091    1090    1091    1091    1092    1093    1094    1093    1094
    1094       0    1096    1097    1098    1099    1100    1101    1111    1097
    1098    1099    1098    1099    1100    1101    1102    1103    1107    1111
    1112    1113    1099    1100    1101    1111    1100    1101    1102    1103
    1104    1105    1106    1107    1108    1109    1110    1111    1112    1113
    1114    1115    1101    1102    1103    1107    1111    1112    1113    1102
    1103    1104    1105    1106    1107    1108    1109    1110    1111    1112
    1113    1103    1104    1105    1106    1107    1108    1109    1110    1111
    1104    1105    1106    1107    1108    1109    1110    1111    1105    1106
    1107    1106    1107    1107    1108    1109    1110    1111    1109    1110
    1110       0    1112    1113    1114    1115    1116    1117    1121    1113
    1114    1115    1114    1115    1116    1117    1118    1119    1120    1121
    1122    1123    1115    1116    1117    1121    1116    1117    1118    1119
    1120    1121    1122    1123    1124    1125    1117    1118    1119    1120
    1121    1122    1123    1118    1119    1120    1121    1122    1123    1119
    1120    1121    1120    1121    1121    1122    1123    1124    1125    1126
    1127    1128    1123    1124    1125    1124    1125    1126    1127    1128
    1129    1130    1125    1126    1127    1128    1126    1127    1128    1129
    1130    1131    1132    1127    1128    1129    1130    1128    1129    1130
    1129    1130    1131    1132    1133    1134    1144    1130    1131    1132
    1131    1132    1133    1134    1135    1136    1137    1144    1145    1149
    1132    1133    1134    1144    1133    1134    1135    1136    1137    1138
    1139    1140    1144    1145    1149    1150    1151    1134    1135    1136
    1137    1144    1145    1149    1135    1136    1137    1138    1139    1140
    1141    1142    1144    1145    1149    1136    1137    1138    1139    1140
    1144    1137    1138    1139    1140    1144    1138    1139    1140    1141
    1142    1143    1144    1146    1147    1148    1139    1140    1141    1142
    1140    1141    1142    1141    1142    1143    1146    1147    1148    1142
    1143    1146    1147    1148    1143    1146    1147    1148    1146    1145
    1149    1150    1151    1152    1153    1171    1149    1150    1151       0
    1148       0    1150    1151    1152    1153    1154    1155    1156    1171
    1172    1173    1151    1152    1153    1171    1152    1153    1154    1155
    1156    1157    1158    1159    1171    1172    1173    1174    1175    1153
    1154    1155    1156    1171    1172    1173    1154    1155    1156    1157
    1158    1159    1160    1161    1162    1171    1172    1173    1155    1156
    1157    1158    1159    1171    1156    1157    1158    1159    1171    1157
    1158    1159    1160    1161    1162    1163    1164    1171    1158    1159
    1160    1161    1162    1159    1160    1161    1162    1160    1161    1162
    1163    1164    1165    1168    1161    1162    1163    1164    1162    1163
    1164    1163    1164    1165    1166    1167    1168    1169    1170    1164
    1165    1168    1165    1166    1167    1168    1169    1170    1166    1167
    1168    1169    1170    1167    1168    1168    1169    1170    1170       0
    1172    1173    1174    1175    1176    1177    1178    1173    1174    1175
    1174    1175    1176    1177    1178    1179    1180    1175    1176    1177
    1178    1176    1177    1178    1179    1180    1181    1182    1177    1178
    1179    1180    1178    1179    1180    1179    1180    1181    1182    1183
    1184    1198    1180    1181    1182    1181    1182    1183    1184    1185
    1186    1187    1198    1199    1200    1182    1183    1184    1198    1183
    1184    1185    1186    1187    1188    1196    1198    1199    1200    1201
    1202    1184    1185    1186    1187    1198    1199    1200    1185    1186
    1187    1188    1189    1190    1194    1196    1197    1198    1199    1200
    1186    1187    1188    1196    1198    1187    1188    1196    1198    1188
    1189    1190    1191    1192    1194    1195    1196    1197    1198    1189
    1190    1191    1192    1193    1194    1196    1197    1190    1191    1192
    1196    1191    1192    1193    1194    1195    1196    1192    1193    1194
    1193    1194    1195    1196    1197    1194    1195    1196    1195    1196
    1197    1196    1197    1197       0    1199    1200    1201    1202    1203
    1204    1218    1200    1201    1202    1201    1202    1203    1204    1205
    1206    1207    1218    1219    1220    1202    1203    1204    1218    1203
    1204    1205    1206    1207    1208    1216    1218    1219    1220    1221
    1222    1204    1205    1206    1207    1218    1219    1220    1205    1206
    1207    1208    1209    1210    1214    1216    1217    1218    1219    1220
    1206    1207    1208    1216    1218    1207    1208    1216    1218    1208
    1209    1210    1211    1212    1214    1215    1216    1217    1218    1209
    1210    1211    1212    1213    1214    1216    1217    1210    1211    1212
    1216    1211    1212    1213    1214    1215    1216    1212    1213    1214
    1213    1214    1215    1216    1217    1214    1215    1216    1215    1216
    1217    1216    1217    1217       0    1219    1220    1221    1222    1223
    1224    1239    1220    1221    1222    1221    1222    1223    1224    1225
    1226    1227    1239    1240    1241    1222    1223    1224    1239    1223
    1224    1225    1226    1227    1228    1237    1239    1240    1241    1242
    1243    1224    1225    1226    1227    1239    1240    1241    1225    1226
    1227    1228    1229    1230    1235    1237    1238    1239    1240    1241
    1226    1227    1228    1237    1239    1227    1228    1237    1239    1228
    1229    1230    1231    1232    1235    1236    1237    1238    1239    1229
    1230    1231    1232    1233    1235    1237    1238    1230    1231    1232
    1237    1231    1232    1233    1234    1235    1236    1237    1232    1233
    1235    1233    1234    1235    1236    1237    1238    1234    1235    1236
    1237    1235    1236    1237    1238    1237    1238    1238       0    1240
    1241    1242    1243    1244    1245    1253    1241    1242    1243    1242
    1243    1244    1245    1246    1247    1251    1253    1254    1255    1243
    1244    1245    1253    1244    1245    1246    1247    1248    1249    1250
    1251    1252    1253    1254    1255    1256    1257    1245    1246    1247
    1251    1253    1254    1255    1246    1247    1248    1249    1250    1251
    1252    1253    1254    1255    1247    1248    1249    1250    1251    1252
    1253    1248    1249    1250    1251    1252    1253    1249    1250    1251
    1250    1251    1251    1252    1253       0    1254    1255    1256    1257
    1258    1259    1260    1255    1256    1257    1256    1257    1258    1259
    1260    1257    1258    1259    1260    1258    1259    1260    1259    1260
    1260       0    1262    1263    1264    1265    1266    1267    1263    1264
    1265    1266    1267    1268    1269    1264    1265    1266    1267    1265
    1266    1267    1266    1267    1268    1269    1270    1271    1282    1267
    1268    1269    1268    1269    1270    1271    1272    1273    1274    1282
    1283    1284    1269    1270    1271    1282    1270    1271    1272    1273
    1274    1275    1276    1277    1282    1283    1284    1285    1286    1271
    1272    1273    1274    1282    1283    1284    1272    1273    1274    1275
    1276    1277    1278    1279    1282    1283    1284    1273    1274    1275
    1276    1277    1282    1274    1275    1276    1277    1282    1275    1276
    1277    1278    1279    1280    1281    1282    1276    1277    1278    1279
    1277    1278    1279    1278    1279    1280    1281    1279    1280    1281
    1280    1281    1281       0    1283    1284    1285    1286    1287    1288
    1292    1284    1285    1286    1285    1286    1287    1288    1289    1290
    1291    1292    1293    1294    1286    1287    1288    1292    1287    1288
    1289    1290    1291    1292    1293    1294    1295    1296    1355    1288
    1289    1290    1291    1292    1293    1294    1289    1290    1291    1292
    1293    1294    1352    1355    1290    1291    1292    1355    1291    1292
    1355    1292    1350    1352    1353    1354    1355    1293    1294    1295
    1296    1297    1298    1302    1294    1295    1296    1295    1296    1297
    1298    1299    1300    1301    1302    1303    1304    1296    1297    1298
    1302    1297    1298    1299    1300    1301    1302    1303    1304    1305
    1306    1565    1298    1299    1300    1301    1302    1303    1304    1299
    1300    1301    1302    1303    1304    1562    1565    1300    1301    1302
    1565    1301    1302    1565    1302    1560    1562    1563    1564    1565
    1303    1304    1305    1306    1307    1308    1316    1304    1305    1306
    1305    1306    1307    1308    1309    1310    1314    1316    1317    1318
    1306    1307    1308    1316    1307    1308    1309    1310    1311    1312
    1313    1314    1315    1316    1317    1318    1319    1320    1308    1309
    1310    1314    1316    1317    1318    1309    1310    1311    1312    1313
    1314    1315    1316    1317    1318    1310    1311    1312    1313    1314
    1315    1316    1311    1312    1313    1314    1315    1316    1312    1313
    1314    1313    1314    1314    1315    1316       0    1317    1318    1319
    1320    1321    1322    1327    1318    1319    1320    1319    1320    1321
    1322    1323    1324    1325    1327    1328    1329    1320    1321    1322
    1327    1321    1322    1323    1324    1325    1326    1327    1328    1329
    1330    1331    1322    1323    1324    1325    1327    1328    1329    1323
    1324    1325    1326    1327    1328    1329    1324    1325    1326    1327
    1325    1326    1327    1326    1327       0    1328    1329    1330    1331
    1332    1333    1346    1329    1330    1331    1330    1331    1332    1333
    1334    1335    1339    1346    1347    1348    1331    1332    1333    1346
    1332    1333    1334    1335    1336    1337    1338    1339    1340    1341
    1342    1346    1347    1348    1349    1350    1333    1334    1335    1339
    1346    1347    1348    1334    1335    1336    1337    1338    1339    1340
    1341    1342    1343    1344    1345    1346    1347    1348    1335    1336
    1337    1338    1339    1340    1341    1342    1346    1336    1337    1338
    1339    1340    1341    1342    1346    1337    1338    1339    1338    1339
    1339    1340    1341    1342    1343    1344    1345    1346    1341    1342
    1343    1344    1345    1342    1343    1344    1345    1343    1344    1345
    1344    1345    1345       0    1347    1348    1349    1350    1351    1352
    1356    1348    1349    1350    1349    1350    1351    1352    1353    1354
    1355    1356    1357    1358    1350    1351    1352    1356    1351    1352
    1353    1354    1355    1356    1357    1358    1359    1360    1352    1353
    1354    1355    1356    1357    1358    1353    1354    1355    1356    1357
    1358    1354    1355    1356    1355    1356    1356    1357    1358    1359
    1360    1361    1362    1367    1358    1359    1360    1359    1360    1361
    1362    1363    1364    1365    1367    1368    1369    1360    1361    1362
    1367    1361    1362    1363    1364    1365    1366    1367    1368    1369
    1370    1371    1362    1363    1364    1365    1367    1368    1369    1363
    1364    1365    1366    1367    1368    1369    1364    1365    1366    1367
    1365    1366    1367    1366    1367       0    1368    1369    1370    1371
    1372    1373    1386    1369    1370    1371    1370    1371    1372    1373
    1374    1375    1376    1386    1387    1388    1371    1372    1373    1386
    1372    1373    1374    1375    1376    1377    1378    1382    1386    1387
    1388    1389    1390    1373    1374    1375    1376    1386    1387    1388
    1374    1375    1376    1377    1378    1379    1380    1381    1382    1383
    1384    1385    1386    1387    1388    1375    1376    1377    1378    1382
    1386    1376    1377    1378    1382    1386    1377    1378    1379    1380
    1381    1382    1383    1384    1385    1386    1378    1379    1380    1381
    1382    1383    1384    1385    1379    1380    1381    1382    1383    1384
    1385    1380    1381    1382    1381    1382    1382    1383    1384    1385
    1384    1385    1385       0    1387    1388    1389    1390    1391    1392
    1407    1388    1389    1390    1389    1390    1391    1392    1393    1394
    1395    1407    1408    1409    1390    1391    1392    1407    1391    1392
    1393    1394    1395    1396    1405    1407    1408    1409    1410    1411
    1392    1393    1394    1395    1407    1408    1409    1393    1394    1395
    1396    1397    1398    1403    1405    1406    1407    1408    1409    1394
    1395    1396    1405    1407    1395    1396    1405    1407    1396    1397
    1398    1399    1400    1403    1404    1405    1406    1407    1397    1398
    1399    1400    1401    1403    1405    1406    1398    1399    1400    1405
    1399    1400    1401    1402    1403    1404    1405    1400    1401    1403
    1401    1402    1403    1404    1405    1406    1402    1403    1404    1405
    1403    1404    1405    1406    1405    1406    1406       0    1408    1409
    1410    1411    1412    1413    1424    1409    1410    1411    1410    1411
    1412    1413    1414    1415    1416    1424    1425    1426    1411    1412
    1413    1424    1412    1413    1414    1415    1416    1417    1418    1419
    1424    1425    1426    1427    1428    1413    1414    1415    1416    1424
    1425    1426    1414    1415    1416    1417    1418    1419    1420    1421
    1424    1425    1426    1415    1416    1417    1418    1419    1424    1416
    1417    1418    1419    1424    1417    1418    1419    1420    1421    1422
    1423    1424    1418    1419    1420    1421    1419    1420    1421    1420
    1421    1422    1423    1421    1422    1423    1422    1423    1423       0
    1425    1426    1427    1428    1429    1430    1443    1426    1427    1428
    1427    1428    1429    1430    1431    1432    1433    1443    1444    1445
    1428    1429    1430    1443    1429    1430    1431    1432    1433    1434
    1435    1439    1443    1444    1445    1446    1447    1430    1431    1432
    1433    1443    1444    1445    1431    1432    1433    1434    1435    1436
    1437    1438    1439    1440    1441    1442    1443    1444    1445    1432
    1433    1434    1435    1439    1443    1433    1434    1435    1439    1443
    1434    1435    1436    1437    1438    1439    1440    1441    1442    1443
    1435    1436    1437    1438    1439    1440    1441    1442    1436    1437
    1438    1439    1440    1441    1442    1437    1438    1439    1438    1439
    1439    1440    1441    1442    1441    1442    1442       0    1444    1445
    1446    1447    1448    1449    1459    1445    1446    1447    1446    1447
    1448    1449    1450    1451    1452    1459    1460    1464    1447    1448
    1449    1459    1448    1449    1450    1451    1452    1453    1454    1455
    1459    1460    1464    1465    1466    1449    1450    1451    1452    1459
    1460    1464    1450    1451    1452    1453    1454    1455    1456    1457
    1459    1460    1464    1451    1452    1453    1454    1455    1459    1452
    1453    1454    1455    1459    1453    1454    1455    1456    1457    1458
    1459    1461    1462    1463    1454    1455    1456    1457    1455    1456
    1457    1456    1457    1458    1461    1462    1463    1457    1458    1461
    1462    1463    1458    1461    1462    1463    1461    1460    1464    1465
    1466    1467    1468    1476    1464    1465    1466       0    1463       0
    1465    1466    1467    1468    1469    1470    1471    1476    1477    1478
    1466    1467    1468    1476    1467    1468    1469    1470    1471    1472
    1473    1476    1477    1478    1479    1480    1468    1469    1470    1471
    1476    1477    1478    1469    1470    1471    1472    1473    1474    1475
    1476    1477    1478    1470    1471    1472    1473    1476    1471    1472
    1473    1476    1472    1473    1474    1475    1476    1473    1474    1475
    1474    1475    1475       0    1477    1478    1479    1480    1481    1482
    1497    1478    1479    1480    1479    1480    1481    1482    1483    1484
    1485    1497    1498    1499    1480    1481    1482    1497    1481    1482
    1483    1484    1485    1486    1495    1497    1498    1499    1500    1501
    1482    1483    1484    1485    1497    1498    1499    1483    1484    1485
    1486    1487    1488    1493    1495    1496    1497    1498    1499    1484
    1485    1486    1495    1497    1485    1486    1495    1497    1486    1487
    1488    1489    1490    1493    1494    1495    1496    1497    1487    1488
    1489    1490    1491    1493    1495    1496    1488    1489    1490    1495
    1489    1490    1491    1492    1493    1494    1495    1490    1491    1493
    1491    1492    1493    1494    1495    1496    1492    1493    1494    1495
    1493    1494    1495    1496    1495    1496    1496       0    1498    1499
    1500    1501    1502    1503    1507    1499    1500    1501    1500    1501
    1502    1503    1504    1505    1506    1507    1508    1509    1501    1502
    1503    1507    1502    1503    1504    1505    1506    1507    1508    1509
    1510    1511    1750    1503    1504    1505    1506    1507    1508    1509
    1504    1505    1506    1507    1508    1509    1747    1750    1505    1506
    1507    1750    1506    1507    1750    1507    1745    1747    1748    1749
    1750    1508    1509    1510    1511    1512    1513    1514    1509    1510
    1511    1510    1511    1512    1513    1514    1511    1512    1513    1514
    1512    1513    1514    1513    1514    1514       0    1516    1517    1518
    1519    1520    1521    1517    1518    1519    1520    1521    1522    1523
    1518    1519    1520    1521    1519    1520    1521    1520    1521    1522
    1523    1524    1525    1537    1521    1522    1523    1522    1523    1524
    1525    1526    1527    1528    1537    1538    1539    1523    1524    1525
    1537    1524    1525    1526    1527    1528    1529    1535    1537    1538
    1539    1540    1541    1525    1526    1527    1528    1537    1538    1539
    1526    1527    1528    1529    1530    1531    1533    1535    1536    1537
    1538    1539    1527    1528    1529    1535    1537    1528    1529    1535
    1537    1529    1530    1531    1532    1533    1534    1535    1536    1537
    1530    1531    1532    1533    1534    1535    1536    1531    1532    1533
    1535    1532    1533    1534    1535    1536    1533    1534    1535    1534
    1535    1536    1535    1536    1536       0    1538    1539    1540    1541
    1542    1543    1556    1539    1540    1541    1540    1541    1542    1543
    1544    1545    1546    1556    1557    1558    1541    1542    1543    1556
    1542    1543    1544    1545    1546    1547    1548    1552    1556    1557
    1558    1559    1560    1543    1544    1545    1546    1556    1557    1558
    1544    1545    1546    1547    1548    1549    1550    1551    1552    1553
    1554    1555    1556    1557    1558    1545    1546    1547    1548    1552
    1556    1546    1547    1548    1552    1556    1547    1548    1549    1550
    1551    1552    1553    1554    1555    1556    1548    1549    1550    1551
    1552    1553    1554    1555    1549    1550    1551    1552    1553    1554
    1555    1550    1551    1552    1551    1552    1552    1553    1554    1555
    1554    1555    1555       0    1557    1558    1559    1560    1561    1562
    1566    1558    1559    1560    1559    1560    1561    1562    1563    1564
    1565    1566    1567    1568    1560    1561    1562    1566    1561    1562
    1563    1564    1565    1566    1567    1568    1569    1570    1562    1563
    1564    1565    1566    1567    1568    1563    1564    1565    1566    1567
    1568    1564    1565    1566    1565    1566    1566    1567    1568    1569
    1570    1571    1572    1573    1568    1569    1570    1569    1570    1571
    1572    1573    1574    1575    1570    1571    1572    1573    1571    1572
    1573    1574    1575    1576    1577    1572    1573    1574    1575    1573
    1574    1575    1574    1575    1576    1577    1578    1579    1584    1575
    1576    1577    1576    1577    1578    1579    1580    1581    1582    1584
    1585    1586    1577    1578    1579    1584    1578    1579    1580    1581
    1582    1583    1584    1585    1586    1587    1588    1579    1580    1581
    1582    1584    1585    1586    1580    1581    1582    1583    1584    1585
    1586    1581    1582    1583    1584    1582    1583    1584    1583    1584
       0    1585    1586    1587    1588    1589    1590    1602    1586    1587
    1588    1587    1588    1589    1590    1591    1592    1593    1602    1603
    1604    1588    1589    1590    1602    1589    1590    1591    1592    1593
    1594    1600    1602    1603    1604    1605    1606    1590    1591    1592
    1593    1602    1603    1604    1591    1592    1593    1594    1595    1596
    1598    1600    1601    1602    1603    1604    1592    1593    1594    1600
    1602    1593    1594    1600    1602    1594    1595    1596    1597    1598
    1599    1600    1601    1602    1595    1596    1597    1598    1599    1600
    1601    1596    1597    1598    1600    1597    1598    1599    1600    1601
    1598    1599    1600    1599    1600    1601    1600    1601    1601       0
    1603    1604    1605    1606    1607    1608    1621    1604    1605    1606
    1605    1606    1607    1608    1609    1610    1611    1621    1622    1623
    1606    1607    1608    1621    1607    1608    1609    1610    1611    1612
    1613    1617    1621    1622    1623    1624    1625    1608    1609    1610
    1611    1621    1622    1623    1609    1610    1611    1612    1613    1614
    1615    1616    1617    1618    1619    1620    1621    1622    1623    1610
    1611    1612    1613    1617    1621    1611    1612    1613    1617    1621
    1612    1613    1614    1615    1616    1617    1618    1619    1620    1621
    1613    1614    1615    1616    1617    1618    1619    1620    1614    1615
    1616    1617    1618    1619    1620    1615    1616    1617    1616    1617
    1617    1618    1619    1620    1619    1620    1620       0    1622    1623
    1624    1625    1626    1627    1637    1623    1624    1625    1624    1625
    1626    1627    1628    1629    1633    1637    1638    1639    1625    1626
    1627    1637    1626    1627    1628    1629    1630    1631    1632    1633
    1634    1635    1636    1637    1638    1639    1640    1641    1627    1628
    1629    1633    1637    1638    1639    1628    1629    1630    1631    1632
    1633    1634    1635    1636    1637    1638    1639    1629    1630    1631
    1632    1633    1634    1635    1636    1637    1630    1631    1632    1633
    1634    1635    1636    1637    1631    1632    1633    1632    1633    1633
    1634    1635    1636    1637    1635    1636    1636       0    1638    1639
    1640    1641    1642    1643    1653    1639    1640    1641    1640    1641
    1642    1643    1644    1645    1646    1653    1654    1658    1641    1642
    1643    1653    1642    1643    1644    1645    1646    1647    1648    1649
    1653    1654    1658    1659    1660    1643    1644    1645    1646    1653
    1654    1658    1644    1645    1646    1647    1648    1649    1650    1651
    1653    1654    1658    1645    1646    1647    1648    1649    1653    1646
    1647    1648    1649    1653    1647    1648    1649    1650    1651    1652
    1653    1655    1656    1657    1648    1649    1650    1651    1649    1650
    1651    1650    1651    1652    1655    1656    1657    1651    1652    1655
    1656    1657    1652    1655    1656    1657    1655    1654    1658    1659
    1660    1661    1662    1666    1658    1659    1660       0    1657       0
    1659    1660    1661    1662    1663    1664    1665    1666    1667    1668
    1660    1661    1662    1666    1661    1662    1663    1664    1665    1666
    1667    1668    1669    1670    1662    1663    1664    1665    1666    1667
    1668    1663    1664    1665    1666    1667    1668    1664    1665    1666
    1665    1666    1666    1667    1668    1669    1670    1671    1672    1685
    1668    1669    1670    1669    1670    1671    1672    1673    1674    1675
    1685    1686    1687    1670    1671    1672    1685    1671    1672    1673
    1674    1675    1676    1677    1681    1685    1686    1687    1688    1689
    1672    1673    1674    1675    1685    1686    1687    1673    1674    1675
    1676    1677    1678    1679    1680    1681    1682    1683    1684    1685
    1686    1687    1674    1675    1676    1677    1681    1685    1675    1676
    1677    1681    1685    1676    1677    1678    1679    1680    1681    1682
    1683    1684    1685    1677    1678    1679    1680    1681    1682    1683
    1684    1678    1679    1680    1681    1682    1683    1684    1679    1680
    1681    1680    1681    1681    1682    1683    1684    1683    1684    1684
       0    1686    1687    1688    1689    1690    1691    1706    1687    1688
    1689    1688    1689    1690    1691    1692    1693    1694    1706    1707
    1708    1689    1690    1691    1706    1690    1691    1692    1693    1694
    1695    1704    1706    1707    1708    1709    1710    1691    1692    1693
    1694    1706    1707    1708    1692    1693    1694    1695    1696    1697
    1702    1704    1705    1706    1707    1708    1693    1694    1695    1704
    1706    1694    1695    1704    1706    1695    1696    1697    1698    1699
    1702    1703    1704    1705    1706    1696    1697    1698    1699    1700
    1702    1704    1705    1697    1698    1699    1704    1698    1699    1700
    1701    1702    1703    1704    1699    1700    1702    1700    1701    1702
    1703    1704    1705    1701    1702    1703    1704    1702    1703    1704
    1705    1704    1705    1705       0    1707    1708    1709    1710    1711
    1712    1725    1708    1709    1710    1709    1710    1711    1712    1713
    1714    1715    1725    1726    1727    1710    1711    1712    1725    1711
    1712    1713    1714    1715    1716    1717    1721    1725    1726    1727
    1728    1729    1712    1713    1714    1715    1725    1726    1727    1713
    1714    1715    1716    1717    1718    1719    1720    1721    1722    1723
    1724    1725    1726    1727    1714    1715    1716    1717    1721    1725
    1715    1716    1717    1721    1725    1716    1717    1718    1719    1720
    1721    1722    1723    1724    1725    1717    1718    1719    1720    1721
    1722    1723    1724    1718    1719    1720    1721    1722    1723    1724
    1719    1720    1721    1720    1721    1721    1722    1723    1724    1723
    1724    1724       0    1726    1727    1728    1729    1730    1731    1741
    1727    1728    1729    1728    1729    1730    1731    1732    1733    1737
    1741    1742    1743    1729    1730    1731    1741    1730    1731    1732
    1733    1734    1735    1736    1737    1738    1739    1740    1741    1742
    1743    1744    1745    1731    1732    1733    1737    1741    1742    1743
    1732    1733    1734    1735    1736    1737    1738    1739    1740    1741
    1742    1743    1733    1734    1735    1736    1737    1738    1739    1740
    1741    1734    1735    1736    1737    1738    1739    1740    1741    1735
    1736    1737    1736    1737    1737    1738    1739    1740    1741    1739
    1740    1740       0    1742    1743    1744    1745    1746    1747    1751
    1743    1744    1745    1744    1745    1746    1747    1748    1749    1750
    1751    1752    1753    1745    1746    1747    1751    1746    1747    1748
    1749    1750    1751    1752    1753    1754    1755    1747    1748    1749
    1750    1751    1752    1753    1748    1749    1750    1751    1752    1753
    1749    1750    1751    1750    1751    1751    1752    1753    1754    1755
    1756    1757    1758    1753    1754    1755    1754    1755    1756    1757
    1758    1759    1760    1755    1756    1757    1758    1756    1757    1758
    1759    1760    1761    1762    1757    1758    1759    1760    1758    1759
    1760    1759    1760    1761    1762    1763    1764    1774    1760    1761
    1762    1761    1762    1763    1764    1765    1766    1767    1774    1775
    1779    1762    1763    1764    1774    1763    1764    1765    1766    1767
    1768    1769    1770    1774    1775    1779    1780    1781    1764    1765
    1766    1767    1774    1775    1779    1765    1766    1767    1768    1769
    1770    1771    1772    1774    1775    1779    1766    1767    1768    1769
    1770    1774    1767    1768    1769    1770    1774    1768    1769    1770
    1771    1772    1773    1774    1776    1777    1778    1769    1770    1771
    1772    1770    1771    1772    1771    1772    1773    1776    1777    1778
    1772    1773    1776    1777    1778    1773    1776    1777    1778    1776
    1775    1779    1780    1781    1782    1783    1801    1779    1780    1781
       0    1778       0    1780    1781    1782    1783    1784    1785    1786
    1801    1802    1803    1781    1782    1783    1801    1782    1783    1784
    1785    1786    1787    1788    1789    1801    1802    1803    1804    1805
    1783    1784    1785    1786    1801    1802    1803    1784    1785    1786
    1787    1788    1789    1790    1791    1792    1801    1802    1803    1785
    1786    1787    1788    1789    1801    1786    1787    1788    1789    1801
    1787    1788    1789    1790    1791    1792    1793    1794    1801    1788
    1789    1790    1791    1792    1789    1790    1791    1792    1790    1791
    1792    1793    1794    1795    1798    1791    1792    1793    1794    1792
    1793    1794    1793    1794    1795    1796    1797    1798    1799    1800
    1794    1795    1798    1795    1796    1797    1798    1799    1800    1796
    1797    1798    1799    1800    1797    1798    1798    1799    1800    1800
       0    1802    1803    1804    1805    1806    1807    1808    1803    1804
    1805    1804    1805    1806    1807    1808    1809    1810    1805    1806
    1807    1808    1806    1807    1808    1809    1810    1811    1812    1807
    1808    1809    1810    1808    1809    1810    1809    1810    1811    1812
    1813    1814    1828    1810    1811    1812    1811    1812    1813    1814
    1815    1816    1817    1828    1829    1830    1812    1813    1814    1828
    1813    1814    1815    1816    1817    1818    1826    1828    1829    1830
    1831    1832    1814    1815    1816    1817    1828    1829    1830    1815
    1816    1817    1818    1819    1820    1824    1826    1827    1828    1829
    1830    1816    1817    1818    1826    1828    1817    1818    1826    1828
    1818    1819    1820    1821    1822    1824    1825    1826    1827    1828
    1819    1820    1821    1822    1823    1824    1826    1827    1820    1821
    1822    1826    1821    1822    1823    1824    1825    1826    1822    1823
    1824    1823    1824    1825    1826    1827    1824    1825    1826    1825
    1826    1827    1826    1827    1827       0    1829    1830    1831    1832
    1833    1834    1848    1830    1831    1832    1831    1832    1833    1834
    1835    1836    1837    1848    1849    1850    1832    1833    1834    1848
    1833    1834    1835    1836    1837    1838    1846    1848    1849    1850
    1851    1852    1834    1835    1836    1837    1848    1849    1850    1835
    1836    1837    1838    1839    1840    1844    1846    1847    1848    1849
    1850    1836    1837    1838    1846    1848    1837    1838    1846    1848
    1838    1839    1840    1841    1842    1844    1845    1846    1847    1848
    1839    1840    1841    1842    1843    1844    1846    1847    1840    1841
    1842    1846    1841    1842    1843    1844    1845    1846    1842    1843
    1844    1843    1844    1845    1846    1847    1844    1845    1846    1845
    1846    1847    1846    1847    1847       0    1849    1850    1851    1852
    1853    1854    1869    1850    1851    1852    1851    1852    1853    1854
    1855    1856    1857    1869    1870    1871    1852    1853    1854    1869
    1853    1854    1855    1856    1857    1858    1867    1869    1870    1871
    1872    1873    1854    1855    1856    1857    1869    1870    1871    1855
    1856    1857    1858    1859    1860    1865    1867    1868    1869    1870
    1871    1856    1857    1858    1867    1869    1857    1858    1867    1869
    1858    1859    1860    1861    1862    1865    1866    1867    1868    1869
    1859    1860    1861    1862    1863    1865    1867    1868    1860    1861
    1862    1867    1861    1862    1863    1864    1865    1866    1867    1862
    1863    1865    1863    1864    1865    1866    1867    1868    1864    1865
    1866    1867    1865    1866    1867    1868    1867    1868    1868       0
    1870    1871    1872    1873    1874    1875    1883    1871    1872    1873
    1872    1873    1874    1875    1876    1877    1881    1883    1884    1885
    1873    1874    1875    1883    1874    1875    1876    1877    1878    1879
    1880    1881    1882    1883    1884    1885    1886    1887    1875    1876
    1877    1881    1883    1884    1885    1876    1877    1878    1879    1880
    1881    1882    1883    1884    1885    1877    1878    1879    1880    1881
    1882    1883    1878    1879    1880    1881    1882    1883    1879    1880
    1881    1880    1881    1881    1882    1883       0    1884    1885    1886
    1887    1888    1889    1890    1885    1886    1887    1886    1887    1888
    1889    1890    1887    1888    1889    1890    1888    1889    1890    1889
    1890    1890       0    1892    1893    1894    1895    1896    1897    1893
    1894    1895    1896    1897    1898    1899    1894    1895    1896    1897
    1895    1896    1897    1896    1897    1898    1899    1900    1901    1912
    1897    1898    1899    1898    1899    1900    1901    1902    1903    1904
    1912    1913    1914    1899    1900    1901    1912    1900    1901    1902
    1903    1904    1905    1906    1907    1912    1913    1914    1915    1916
    1901    1902    1903    1904    1912    1913    1914    1902    1903    1904
    1905    1906    1907    1908    1909    1912    1913    1914    1903    1904
    1905    1906    1907    1912    1904    1905    1906    1907    1912    1905
    1906    1907    1908    1909    1910    1911    1912    1906    1907    1908
    1909    1907    1908    1909    1908    1909    1910    1911    1909    1910
    1911    1910    1911    1911       0    1913    1914    1915    1916    1917
    1918    1922    1914    1915    1916    1915    1916    1917    1918    1919
    1920    1921    1922    1923    1924    1916    1917    1918    1922    1917
    1918    1919    1920    1921    1922    1923    1924    1925    1926    1985
    1918    1919    1920    1921    1922    1923    1924    1919    1920    1921
    1922    1923    1924    1982    1985    1920    1921    1922    1985    1921
    1922    1985    1922    1980    1982    1983    1984    1985    1923    1924
    1925    1926    1927    1928    1932    1924    1925    1926    1925    1926
    1927    1928    1929    1930    1931    1932    1933    1934    1926    1927
    1928    1932    1927    1928    1929    1930    1931    1932    1933    1934
    1935    1936    2195    1928    1929    1930    1931    1932    1933    1934
    1929    1930    1931    1932    1933    1934    2192    2195    1930    1931
    1932    2195    1931    1932    2195    1932    2190    2192    2193    2194
    2195    1933    1934    1935    1936    1937    1938    1946    1934    1935
    1936    1935    1936    1937    1938    1939    1940    1944    1946    1947
    1948    1936    1937    1938    1946    1937    1938    1939    1940    1941
    1942    1943    1944    1945    1946    1947    1948    1949    1950    1938
    1939    1940    1944    1946    1947    1948    1939    1940    1941    1942
    1943    1944    1945    1946    1947    1948    1940    1941    1942    1943
    1944    1945    1946    1941    1942    1943    1944    1945    1946    1942
    1943    1944    1943    1944    1944    1945    1946       0    1947    1948
    1949    1950    1951    1952    1957    1948    1949    1950    1949    1950
    1951    1952    1953    1954    1955    1957    1958    1959    1950    1951
    1952    1957    1951    1952    1953    1954    1955    1956    1957    1958
    1959    1960    1961    1952    1953    1954    1955    1957    1958    1959
    1953    1954    1955    1956    1957    1958    1959    1954    1955    1956
    1957    1955    1956    1957    1956    1957       0    1958    1959    1960
    1961    1962    1963    1976    1959    1960    1961    1960    1961    1962
    1963    1964    1965    1969    1976    1977    1978    1961    1962    1963
    1976    1962    1963    1964    1965    1966    1967    1968    1969    1970
    1971    1972    1976    1977    1978    1979    1980    1963    1964    1965
    1969    1976    1977    1978    1964    1965    1966    1967    1968    1969
    1970    1971    1972    1973    1974    1975    1976    1977    1978    1965
    1966    1967    1968    1969    1970    1971    1972    1976    1966    1967
    1968    1969    1970    1971    1972    1976    1967    1968    1969    1968
    1969    1969    1970    1971    1972    1973    1974    1975    1976    1971
    1972    1973    1974    1975    1972    1973    1974    1975    1973    1974
    1975    1974    1975    1975       0    1977    1978    1979    1980    1981
    1982    1986    1978    1979    1980    1979    1980    1981    1982    1983
    1984    1985    1986    1987    1988    1980    1981    1982    1986    1981
    1982    1983    1984    1985    1986    1987    1988    1989    1990    1982
    1983    1984    1985    1986    1987    1988    1983    1984    1985    1986
    1987    1988    1984    1985    1986    1985    1986    1986    1987    1988
    1989    1990    1991    1992    1997    1988    1989    1990    1989    1990
    1991    1992    1993    1994    1995    1997    1998    1999    1990    1991
    1992    1997    1991    1992    1993    1994    1995    1996    1997    1998
    1999    2000    2001    1992    1993    1994    1995    1997    1998    1999
    1993    1994    1995    1996    1997    1998    1999    1994    1995    1996
    1997    1995    1996    1997    1996    1997       0    1998    1999    2000
    2001    2002    2003    2016    1999    2000    2001    2000    2001    2002
    2003    2004    2005    2006    2016    2017    2018    2001    2002    2003
    2016    2002    2003    2004    2005    2006    2007    2008    2012    2016
    2017    2018    2019    2020    2003    2004    2005    2006    2016    2017
    2018    2004    2005    2006    2007    2008    2009    2010    2011    2012
    2013    2014    2015    2016    2017    2018    2005    2006    2007    2008
    2012    2016    2006    2007    2008    2012    2016    2007    2008    2009
    2010    2011    2012    2013    2014    2015    2016    2008    2009    2010
    2011    2012    2013    2014    2015    2009    2010    2011    2012    2013
    2014    2015    2010    2011    2012    2011    2012    2012    2013    2014
    2015    2014    2015    2015       0    2017    2018    2019    2020    2021
    2022    2037    2018    2019    2020    2019    2020    2021    2022    2023
    2024    2025    2037    2038    2039    2020    2021    2022    2037    2021
    2022    2023    2024    2025    2026    2035    2037    2038    2039    2040
    2041    2022    2023    2024    2025    2037    2038    2039    2023    2024
    2025    2026    2027    2028    2033    2035    2036    2037    2038    2039
    2024    2025    2026    2035    2037    2025    2026    2035    2037    2026
    2027    2028    2029    2030    2033    2034    2035    2036    2037    2027
    2028    2029    2030    2031    2033    2035    2036    2028    2029    2030
    2035    2029    2030    2031    2032    2033    2034    2035    2030    2031
    2033    2031    2032    2033    2034    2035    2036    2032    2033    2034
    2035    2033    2034    2035    2036    2035    2036    2036       0    2038
    2039    2040    2041    2042    2043    2054    2039    2040    2041    2040
    2041    2042    2043    2044    2045    2046    2054    2055    2056    2041
    2042    2043    2054    2042    2043    2044    2045    2046    2047    2048
    2049    2054    2055    2056    2057    2058    2043    2044    2045    2046
    2054    2055    2056    2044    2045    2046    2047    2048    2049    2050
    2051    2054    2055    2056    2045    2046    2047    2048    2049    2054
    2046    2047    2048    2049    2054    2047    2048    2049    2050    2051
    2052    2053    2054    2048    2049    2050    2051    2049    2050    2051
    2050    2051    2052    2053    2051    2052    2053    2052    2053    2053
       0    2055    2056    2057    2058    2059    2060    2073    2056    2057
    2058    2057    2058    2059    2060    2061    2062    2063    2073    2074
    2075    2058    2059    2060    2073    2059    2060    2061    2062    2063
    2064    2065    2069    2073    2074    2075    2076    2077    2060    2061
    2062    2063    2073    2074    2075    2061    2062    2063    2064    2065
    2066    2067    2068    2069    2070    2071    2072    2073    2074    2075
    2062    2063    2064    2065    2069    2073    2063    2064    2065    2069
    2073    2064    2065    2066    2067    2068    2069    2070    2071    2072
    2073    2065    2066    2067    2068    2069    2070    2071    2072    2066
    2067    2068    2069    2070    2071    2072    2067    2068    2069    2068
    2069    2069    2070    2071    2072    2071    2072    2072       0    2074
    2075    2076    2077    2078    2079    2089    2075    2076    2077    2076
    2077    2078    2079    2080    2081    2082    2089    2090    2094    2077
    2078    2079    2089    2078    2079    2080    2081    2082    2083    2084
    2085    2089    2090    2094    2095    2096    2079    2080    2081    2082
    2089    2090    2094    2080    2081    2082    2083    2084    2085    2086
    2087    2089    2090    2094    2081    2082    2083    2084    2085    2089
    2082    2083    2084    2085    2089    2083    2084    2085    2086    2087
    2088    2089    2091    2092    2093    2084    2085    2086    2087    2085
    2086    2087    2086    2087    2088    2091    2092    2093    2087    2088
    2091    2092    2093    2088    2091    2092    2093    2091    2090    2094
    2095    2096    2097    2098    2106    2094    2095    2096       0    2093
       0    2095    2096    2097    2098    2099    2100    2101    2106    2107
    2108    2096    2097    2098    2106    2097    2098    2099    2100    2101
    2102    2103    2106    2107    2108    2109    2110    2098    2099    2100
    2101    2106    2107    2108    2099    2100    2101    2102    2103    2104
    2105    2106    2107    2108    2100    2101    2102    2103    2106    2101
    2102    2103    2106    2102    2103    2104    2105    2106    2103    2104
    2105    2104    2105    2105       0    2107    2108    2109    2110    2111
    2112    2127    2108    2109    2110    2109    2110    2111    2112    2113
    2114    2115    2127    2128    2129    2110    2111    2112    2127    2111
    2112    2113    2114    2115    2116    2125    2127    2128    2129    2130
    2131    2112    2113    2114    2115    2127    2128    2129    2113    2114
    2115    2116    2117    2118    2123    2125    2126    2127    2128    2129
    2114    2115    2116    2125    2127    2115    2116    2125    2127    2116
    2117    2118    2119    2120    2123    2124    2125    2126    2127    2117
    2118    2119    2120    2121    2123    2125    2126    2118    2119    2120
    2125    2119    2120    2121    2122    2123    2124    2125    2120    2121
    2123    2121    2122    2123    2124    2125    2126    2122    2123    2124
    2125    2123    2124    2125    2126    2125    2126    2126       0    2128
    2129    2130    2131    2132    2133    2137    2129    2130    2131    2130
    2131    2132    2133    2134    2135    2136    2137    2138    2139    2131
    2132    2133    2137    2132    2133    2134    2135    2136    2137    2138
    2139    2140    2141    2380    2133    2134    2135    2136    2137    2138
    2139    2134    2135    2136    2137    2138    2139    2377    2380    2135
    2136    2137    2380    2136    2137    2380    2137    2375    2377    2378
    2379    2380    2138    2139    2140    2141    2142    2143    2144    2139
    2140    2141    2140    2141    2142    2143    2144    2141    2142    2143
    2144    2142    2143    2144    2143    2144    2144       0    2146    2147
    2148    2149    2150    2151    2147    2148    2149    2150    2151    2152
    2153    2148    2149    2150    2151    2149    2150    2151    2150    2151
    2152    2153    2154    2155    2167    2151    2152    2153    2152    2153
    2154    2155    2156    2157    2158    2167    2168    2169    2153    2154
    2155    2167    2154    2155    2156    2157    2158    2159    2165    2167
    2168    2169    2170    2171    2155    2156    2157    2158    2167    2168
    2169    2156    2157    2158    2159    2160    2161    2163    2165    2166
    2167    2168    2169    2157    2158    2159    2165    2167    2158    2159
    2165    2167    2159    2160    2161    2162    2163    2164    2165    2166
    2167    2160    2161    2162    2163    2164    2165    2166    2161    2162
    2163    2165    2162    2163    2164    2165    2166    2163    2164    2165
    2164    2165    2166    2165    2166    2166       0    2168    2169    2170
    2171    2172    2173    2186    2169    2170    2171    2170    2171    2172
    2173    2174    2175    2176    2186    2187    2188    2171    2172    2173
    2186    2172    2173    2174    2175    2176    2177    2178    2182    2186
    2187    2188    2189    2190    2173    2174    2175    2176    2186    2187
    2188    2174    2175    2176    2177    2178    2179    2180    2181    2182
    2183    2184    2185    2186    2187    2188    2175    2176    2177    2178
    2182    2186    2176    2177    2178    2182    2186    2177    2178    2179
    2180    2181    2182    2183    2184    2185    2186    2178    2179    2180
    2181    2182    2183    2184    2185    2179    2180    2181    2182    2183
    2184    2185    2180    2181    2182    2181    2182    2182    2183    2184
    2185    2184    2185    2185       0    2187    2188    2189    2190    2191
    2192    2196    2188    2189    2190    2189    2190    2191    2192    2193
    2194    2195    2196    2197    2198    2190    2191    2192    2196    2191
    2192    2193    2194    2195    2196    2197    2198    2199    2200    2192
    2193    2194    2195    2196    2197    2198    2193    2194    2195    2196
    2197    2198    2194    2195    2196    2195    2196    2196    2197    2198
    2199    2200    2201    2202    2203    2198    2199    2200    2199    2200
    2201    2202    2203    2204    2205    2200    2201    2202    2203    2201
    2202    2203    2204    2205    2206    2207    2202    2203    2204    2205
    2203    2204    2205    2204    2205    2206    2207    2208    2209    2214
    2205    2206    2207    2206    2207    2208    2209    2210    2211    2212
    2214    2215    2216    2207    2208    2209    2214    2208    2209    2210
    2211    2212    2213    2214    2215    2216    2217    2218    2209    2210
    2211    2212    2214    2215    2216    2210    2211    2212    2213    2214
    2215    2216    2211    2212    2213    2214    2212    2213    2214    2213
    2214       0    2215    2216    2217    2218    2219    2220    2232    2216
    2217    2218    2217    2218    2219    2220    2221    2222    2223    2232
    2233    2234    2218    2219    2220    2232    2219    2220    2221    2222
    2223    2224    2230    2232    2233    2234    2235    2236    2220    2221
    2222    2223    2232    2233    2234    2221    2222    2223    2224    2225
    2226    2228    2230    2231    2232    2233    2234    2222    2223    2224
    2230    2232    2223    2224    2230    2232    2224    2225    2226    2227
    2228    2229    2230    2231    2232    2225    2226    2227    2228    2229
    2230    2231    2226    2227    2228    2230    2227    2228    2229    2230
    2231    2228    2229    2230    2229    2230    2231    2230    2231    2231
       0    2233    2234    2235    2236    2237    2238    2251    2234    2235
    2236    2235    2236    2237    2238    2239    2240    2241    2251    2252
    2253    2236    2237    2238    2251    2237    2238    2239    2240    2241
    2242    2243    2247    2251    2252    2253    2254    2255    2238    2239
    2240    2241    2251    2252    2253    2239    2240    2241    2242    2243
    2244    2245    2246    2247    2248    2249    2250    2251    2252    2253
    2240    2241    2242    2243    2247    2251    2241    2242    2243    2247
    2251    2242    2243    2244    2245    2246    2247    2248    2249    2250
    2251    2243    2244    2245    2246    2247    2248    2249    2250    2244
    2245    2246    2247    2248    2249    2250    2245    2246    2247    2246
    2247    2247    2248    2249    2250    2249    2250    2250       0    2252
    2253    2254    2255    2256    2257    2267    2253    2254    2255    2254
    2255    2256    2257    2258    2259    2263    2267    2268    2269    2255
    2256    2257    2267    2256    2257    2258    2259    2260    2261    2262
    2263    2264    2265    2266    2267    2268    2269    2270    2271    2257
    2258    2259    2263    2267    2268    2269    2258    2259    2260    2261
    2262    2263    2264    2265    2266    2267    2268    2269    2259    2260
    2261    2262    2263    2264    2265    2266    2267    2260    2261    2262
    2263    2264    2265    2266    2267    2261    2262    2263    2262    2263
    2263    2264    2265    2266    2267    2265    2266    2266       0    2268
    2269    2270    2271    2272    2273    2283    2269    2270    2271    2270
    2271    2272    2273    2274    2275    2276    2283    2284    2288    2271
    2272    2273    2283    2272    2273    2274    2275    2276    2277    2278
    2279    2283    2284    2288    2289    2290    2273    2274    2275    2276
    2283    2284    2288    2274    2275    2276    2277    2278    2279    2280
    2281    2283    2284    2288    2275    2276    2277    2278    2279    2283
    2276    2277    2278    2279    2283    2277    2278    2279    2280    2281
    2282    2283    2285    2286    2287    2278    2279    2280    2281    2279
    2280    2281    2280    2281    2282    2285    2286    2287    2281    2282
    2285    2286    2287    2282    2285    2286    2287    2285    2284    2288
    2289    2290    2291    2292    2296    2288    2289    2290       0    2287
       0    2289    2290    2291    2292    2293    2294    2295    2296    2297
    2298    2290    2291    2292    2296    2291    2292    2293    2294    2295
    2296    2297    2298    2299    2300    2292    2293    2294    2295    2296
    2297    2298    2293    2294    2295    2296    2297    2298    2294    2295
    2296    2295    2296    2296    2297    2298    2299    2300    2301    2302
    2315    2298    2299    2300    2299    2300    2301    2302    2303    2304
    2305    2315    2316    2317    2300    2301    2302    2315    2301    2302
    2303    2304    2305    2306    2307    2311    2315    2316    2317    2318
    2319    2302    2303    2304    2305    2315    2316    2317    2303    2304
    2305    2306    2307    2308    2309    2310    2311    2312    2313    2314
    2315    2316    2317    2304    2305    2306    2307    2311    2315    2305
    2306    2307    2311    2315    2306    2307    2308    2309    2310    2311
    2312    2313    2314    2315    2307    2308    2309    2310    2311    2312
    2313    2314    2308    2309    2310    2311    2312    2313    2314    2309
    2310    2311    2310    2311    2311    2312    2313    2314    2313    2314
    2314       0    2316    2317    2318    2319    2320    2321    2336    2317
    2318    2319    2318    2319    2320    2321    2322    2323    2324    2336
    2337    2338    2319    2320    2321    2336    2320    2321    2322    2323
    2324    2325    2334    2336    2337    2338    2339    2340    2321    2322
    2323    2324    2336    2337    2338    2322    2323    2324    2325    2326
    2327    2332    2334    2335    2336    2337    2338    2323    2324    2325
    2334    2336    2324    2325    2334    2336    2325    2326    2327    2328
    2329    2332    2333    2334    2335    2336    2326    2327    2328    2329
    2330    2332    2334    2335    2327    2328    2329    2334    2328    2329
    2330    2331    2332    2333    2334    2329    2330    2332    2330    2331
    2332    2333    2334    2335    2331    2332    2333    2334    2332    2333
    2334    2335    2334    2335    2335       0    2337    2338    2339    2340
    2341    2342    2355    2338    2339    2340    2339    2340    2341    2342
    2343    2344    2345    2355    2356    2357    2340    2341    2342    2355
    2341    2342    2343    2344    2345    2346    2347    2351    2355    2356
    2357    2358    2359    2342    2343    2344    2345    2355    2356    2357
    2343    2344    2345    2346    2347    2348    2349    2350    2351    2352
    2353    2354    2355    2356    2357    2344    2345    2346    2347    2351
    2355    2345    2346    2347    2351    2355    2346    2347    2348    2349
    2350    2351    2352    2353    2354    2355    2347    2348    2349    2350
    2351    2352    2353    2354    2348    2349    2350    2351    2352    2353
    2354    2349    2350    2351    2350    2351    2351    2352    2353    2354
    2353    2354    2354       0    2356    2357    2358    2359    2360    2361
    2371    2357    2358    2359    2358    2359    2360    2361    2362    2363
    2367    2371    2372    2373    2359    2360    2361    2371    2360    2361
    2362    2363    2364    2365    2366    2367    2368    2369    2370    2371
    2372    2373    2374    2375    2361    2362    2363    2367    2371    2372
    2373    2362    2363    2364    2365    2366    2367    2368    2369    2370
    2371    2372    2373    2363    2364    2365    2366    2367    2368    2369
    2370    2371    2364    2365    2366    2367    2368    2369    2370    2371
    2365    2366    2367    2366    2367    2367    2368    2369    2370    2371
    2369    2370    2370       0    2372    2373    2374    2375    2376    2377
    2381    2373    2374    2375    2374    2375    2376    2377    2378    2379
    2380    2381    2382    2383    2375    2376    2377    2381    2376    2377
    2378    2379    2380    2381    2382    2383    2384    2385    2377    2378
    2379    2380    2381    2382    2383    2378    2379    2380    2381    2382
    2383    2379    2380    2381    2380    2381    2381    2382    2383    2384
    2385    2386    2387    2388    2383    2384    2385    2384    2385    2386
    2387    2388    2389    2390    2385    2386    2387    2388    2386    2387
    2388    2389    2390    2391    2392    2387    2388    2389    2390    2388
    2389    2390    2389    2390    2391    2392    2393    2394    2404    2390
    2391    2392    2391    2392    2393    2394    2395    2396    2397    2404
    2405    2409    2392    2393    2394    2404    2393    2394    2395    2396
    2397    2398    2399    2400    2404    2405    2409    2410    2411    2394
    2395    2396    2397    2404    2405    2409    2395    2396    2397    2398
    2399    2400    2401    2402    2404    2405    2409    2396    2397    2398
    2399    2400    2404    2397    2398    2399    2400    2404    2398    2399
    2400    2401    2402    2403    2404    2406    2407    2408    2399    2400
    2401    2402    2400    2401    2402    2401    2402    2403    2406    2407
    2408    2402    2403    2406    2407    2408    2403    2406    2407    2408
    2406    2405    2409    2410    2411    2412    2413    2431    2409    2410
    2411       0    2408       0    2410    2411    2412    2413    2414    2415
    2416    2431    2432    2433    2411    2412    2413    2431    2412    2413
    2414    2415    2416    2417    2418    2419    2431    2432    2433    2434
    2435    2413    2414    2415    2416    2431    2432    2433    2414    2415
    2416    2417    2418    2419    2420    2421    2422    2431    2432    2433
    2415    2416    2417    2418    2419    2431    2416    2417    2418    2419
    2431    2417    2418    2419    2420    2421    2422    2423    2424    2431
    2418    2419    2420    2421    2422    2419    2420    2421    2422    2420
    2421    2422    2423    2424    2425    2428    2421    2422    2423    2424
    2422    2423    2424    2423    2424    2425    2426    2427    2428    2429
    2430    2424    2425    2428    2425    2426    2427    2428    2429    2430
    2426    2427    2428    2429    2430    2427    2428    2428    2429    2430
    2430       0    2432    2433    2434    2435    2436    2437    2438    2433
    2434    2435    2434    2435    2436    2437    2438    2439    2440    2435
    2436    2437    2438    2436    2437    2438    2439    2440    2441    2442
    2437    2438    2439    2440    2438    2439    2440    2439    2440    2441
    2442    2443    2444    2458    2440    2441    2442    2441    2442    2443
    2444    2445    2446    2447    2458    2459    2460    2442    2443    2444
    2458    2443    2444    2445    2446    2447    2448    2456    2458    2459
    2460    2461    2462    2444    2445    2446    2447    2458    2459    2460
    2445    2446    2447    2448    2449    2450    2454    2456    2457    2458
    2459    2460    2446    2447    2448    2456    2458    2447    2448    2456
    2458    2448    2449    2450    2451    2452    2454    2455    2456    2457
    2458    2449    2450    2451    2452    2453    2454    2456    2457    2450
    2451    2452    2456    2451    2452    2453    2454    2455    2456    2452
    2453    2454    2453    2454    2455    2456    2457    2454    2455    2456
    2455    2456    2457    2456    2457    2457       0    2459    2460    2461
    2462    2463    2464    2478    2460    2461    2462    2461    2462    2463
    2464    2465    2466    2467    2478    2479    2480    2462    2463    2464
    2478    2463    2464    2465    2466    2467    2468    2476    2478    2479
    2480    2481    2482    2464    2465    2466    2467    2478    2479    2480
    2465    2466    2467    2468    2469    2470    2474    2476    2477    2478
    2479    2480    2466    2467    2468    2476    2478    2467    2468    2476
    2478    2468    2469    2470    2471    2472    2474    2475    2476    2477
    2478    2469    2470    2471    2472    2473    2474    2476    2477    2470
    2471    2472    2476    2471    2472    2473    2474    2475    2476    2472
    2473    2474    2473    2474    2475    2476    2477    2474    2475    2476
    2475    2476    2477    2476    2477    2477       0    2479    2480    2481
    2482    2483    2484    2499    2480    2481    2482    2481    2482    2483
    2484    2485    2486    2487    2499    2500    2501    2482    2483    2484
    2499    2483    2484    2485    2486    2487    2488    2497    2499    2500
    2501    2502    2503    2484    2485    2486    2487    2499    2500    2501
    2485    2486    2487    2488    2489    2490    2495    2497    2498    2499
    2500    2501    2486    2487    2488    2497    2499    2487    2488    2497
    2499    2488    2489    2490    2491    2492    2495    2496    2497    2498
    2499    2489    2490    2491    2492    2493    2495    2497    2498    2490
    2491    2492    2497    2491    2492    2493    2494    2495    2496    2497
    2492    2493    2495    2493    2494    2495    2496    2497    2498    2494
    2495    2496    2497    2495    2496    2497    2498    2497    2498    2498
       0    2500    2501    2502    2503    2504    2505    2513    2501    2502
    2503    2502    2503    2504    2505    2506    2507    2511    2513    2514
    2515    2503    2504    2505    2513    2504    2505    2506    2507    2508
    2509    2510    2511    2512    2513    2514    2515    2516    2517    2505
    2506    2507    2511    2513    2514    2515    2506    2507    2508    2509
    2510    2511    2512    2513    2514    2515    2507    2508    2509    2510
    2511    2512    2513    2508    2509    2510    2511    2512    2513    2509
    2510    2511    2510    2511    2511    2512    2513       0    2514    2515
    2516    2517    2518    2519    2520    2515    2516    2517    2516    2517
    2518    2519    2520    2517    2518    2519    2520    2518    2519    2520
    2519    2520    2520       0    2522    2523    2523       0    2525    2526
    2526       0    2528    2529    2529       0    2531    2532    2532       0
    2534    2535    2535       0    2537    2538    2538       0    2540    2541
    2541       0    2543    2544    2544       0    2546    2547    2547       0
    2549    2550    2550       0    2552    2553    2553       0    2555    2556
    2556       0    2558    2559    2559       0    2561    2562    2562       0
    2564    2565    2565       0    2567    2568    2568       0    2570    2571
    2571       0    2573    2574    2574       0    2576    2577    2577       0
    2579    2580    2580       0    2582    2583    2583       0    2585    2586
    2586       0    2588    2589    2589       0    2591    2592    2592       0
    2594    2595    2595       0    2597    2598    2598       0    2600    2601
    2601       0    2603    2604    2604       0    2606    2607    2607       0
    2609    2610    2610       0    2612    2613    2613       0    2615    2616
    2616       0    2618    2619    2619       0    2621    2622    2622       0
    2624    2625    2625       0    2627    2628    2628       0    2630    2631
    2631       0    2633    2634    2634       0    2636    2637    2637       0
    2639    2640    2640       0    2642    2643    2643       0    2645    2646
    2646       0    2648    2649    2649       0    2651    2652    2652       0
    2654    2655    2655       0    2657    2658    2658       0    2660    2661
    2661       0    2663    2664    2664       0    2666    2667    2667       0
    2669    2670    2670       0    2672    2673    2673       0    2675    2676
    2676       0    2678    2679    2679       0    2681    2682    2682       0
    2684    2685    2685       0    2687    2688    2688       0    2690    2691
    2691       0    2693    2694    2694       0    2696    2697    2697       0
    2699    2700    2700       0    2702    2703    2703       0    2705    2706
    2706       0    2708    2709    2709       0    2711    2712    2712       0
    2714    2715    2715       0    2717    2718    2718       0    2720    2721
    2721       0    2723    2724    2724       0    2726    2727    2727       0
    2729    2730    2730       0    2732    2733    2733       0    2735    2736
    2736       0    2738    2739    2739       0    2741    2742    2742       0
    2744    2745    2745       0    2747    2748    2748       0    2750    2751
    2751       0    2753    2754    2754       0    2756    2757    2757       0
    2759    2760    2760       0    2762    2763    2763       0    2765    2766
    2766       0    2768    2769    2769       0    2771    2772    2772       0
    2774    2775    2775       0    2777    2778    2778       0    2780    2781
    2781       0    2783    2784    2784       0    2786    2787    2787       0
    2789    2790    2790       0    2792    2793    2793       0    2795    2796
    2796       0    2798    2799    2799       0    2801    2802    2802       0
    2804    2805    2805       0    2807    2808    2808       0    2810    2811
    2811       0    2813    2814    2814       0    2816    2817    2817       0
    2819    2820    2820       0    2822    2823    2823       0    2825    2826
    2826       0    2828    2829    2829       0    2831    2832    2832       0
    2834    2835    2835       0    2837    2838    2838       0    2840    2841
    2841       0    2843    2844    2844       0    2846    2847    2847       0
    2849    2850    2850       0    2852    2853    2853       0    2855    2856
    2856       0    2858    2859    2859       0    2861    2862    2862       0
    2864    2865    2865       0    2867    2868    2868       0    2870    2871
    2871       0    2873    2874    2874       0    2876    2877    2877       0
    2879    2880    2880       0    2882    2883    2883       0    2885    2886
    2886       0    2888    2889    2889       0    2891    2892    2892       0
    2894    2895    2895       0    2897    2898    2898       0    2900    2901
    2901       0    2903    2904    2904       0    2906    2907    2907       0
    2909    2910    2910       0    2912    2913    2913       0    2915    2916
    2916       0    2918    2919    2919       0    2921    2922    2922       0
    2924    2925    2925       0    2927    2928    2928       0    2930    2931
    2931       0    2933    2934    2934       0    2936    2937    2937       0
    2939    2940    2940       0    2942    2943    2943       0    2945    2946
    2946       0    2948    2949    2949       0    2951    2952    2952       0
    2954    2955    2955       0    2957    2958    2958       0    2960    2961
    2961       0    2963    2964    2964       0    2966    2967    2967       0
    2969    2970    2970       0    2972    2973    2973       0    2975    2976
    2976       0    2978    2979    2979       0    2981    2982    2982       0
    2984    2985    2985       0    2987    2988    2988       0    2990    2991
    2991       0    2993    2994    2994       0    2996    2997    2997       0
    2999    3000    3000       0    3002    3003    3003       0    3005    3006
    3006       0    3008    3009    3009       0    3011    3012    3012       0
    3014    3015    3015       0    3017    3018    3018       0    3020    3021
    3021       0    3023    3024    3024       0    3026    3027    3027       0
    3029    3030    3030       0    3032    3033    3033       0    3035    3036
    3036       0    3038    3039    3039       0    3041    3042    3042       0
    3044    3045    3045       0    3047    3048    3048       0    3050    3051
    3051       0    3053    3054    3054       0    3056    3057    3057       0
    3059    3060    3060       0    3062    3063    3063       0    3065    3066
    3066       0    3068    3069    3069       0    3071    3072    3072       0
    3074    3075    3075       0    3077    3078    3078       0    3080    3081
    3081       0    3083    3084    3084       0    3086    3087    3087       0
    3089    3090    3090       0    3092    3093    3093       0    3095    3096
    3096       0    3098    3099    3099       0    3101    3102    3102       0
    3104    3105    3105       0    3107    3108    3108       0    3110    3111
    3111       0    3113    3114    3114       0    3116    3117    3117       0
    3119    3120    3120       0    3122    3123    3123       0    3125    3126
    3126       0    3128    3129    3129       0    3131    3132    3132       0
    3134    3135    3135       0    3137    3138    3138       0    3140    3141
    3141       0    3143    3144    3144       0    3146    3147    3147       0
    3149    3150    3150       0    3152    3153    3153       0    3155    3156
    3156       0    3158    3159    3159       0    3161    3162    3162       0
    3164    3165    3165       0    3167    3168    3168       0    3170    3171
    3171       0    3173    3174    3174       0    3176    3177    3177       0
    3179    3180    3180       0    3182    3183    3183       0    3185    3186
    3186       0    3188    3189    3189       0    3191    3192    3192       0
    3194    3195    3195       0    3197    3198    3198       0    3200    3201
    3201       0    3203    3204    3204       0    3206    3207    3207       0
    3209    3210    3210       0    3212    3213    3213       0    3215    3216
    3216       0    3218    3219    3219       0    3221    3222    3222       0
    3224    3225    3225       0    3227    3228    3228       0    3230    3231
    3231       0    3233    3234    3234       0    3236    3237    3237       0
    3239    3240    3240       0    3242    3243    3243       0    3245    3246
    3246       0    3248    3249    3249       0    3251    3252    3252       0
    3254    3255    3255       0    3257    3258    3258       0    3260    3261
    3261       0    3263    3264    3264       0    3266    3267    3267       0
    3269    3270    3270       0    3272    3273    3273       0    3275    3276
    3276       0    3278    3279    3279       0    3281    3282    3282       0
    3284    3285    3285       0    3287    3288    3288       0    3290    3291
    3291       0    3293    3294    3294       0    3296    3297    3297       0
    3299    3300    3300       0    3302    3303    3303       0    3305    3306
    3306       0    3308    3309    3309       0    3311    3312    3312       0
    3314    3315    3315       0    3317    3318    3318       0    3320    3321
    3321       0    3323    3324    3324       0    3326    3327    3327       0
    3329    3330    3330       0    3332    3333    3333       0    3335    3336
    3336       0    3338    3339    3339       0    3341    3342    3342       0
    3344    3345    3345       0    3347    3348    3348       0    3350    3351
    3351       0    3353    3354    3354       0    3356    3357    3357       0
    3359    3360    3360       0    3362    3363    3363       0    3365    3366
    3366       0    3368    3369    3369       0    3371    3372    3372       0
    3374    3375    3375       0    3377    3378    3378       0    3380    3381
    3381       0    3383    3384    3384       0    3386    3387    3387       0
    3389    3390    3390       0    3392    3393    3393       0    3395    3396
    3396       0    3398    3399    3399       0    3401    3402    3402       0
    3404    3405    3405       0    3407    3408    3408       0    3410    3411
    3411       0    3413    3414    3414       0    3416    3417    3417       0
    3419    3420    3420       0    3422    3423    3423       0    3425    3426
    3426       0    3428    3429    3429       0    3431    3432    3432       0
    3434    3435    3435       0    3437    3438    3438       0    3440    3441
    3441       0    3443    3444    3444       0    3446    3447    3447       0
    3449    3450    3450       0    3452    3453    3453       0    3455    3456
    3456       0    3458    3459    3459       0    3461    3462    3462       0
    3464    3465    3465       0    3467    3468    3468       0    3470    3471
    3471       0    3473    3474    3474       0    3476    3477    3477       0
    3479    3480    3480       0    3482    3483    3483       0    3485    3486
    3486       0    3488    3489    3489       0    3491    3492    3492       0
    3494    3495    3495       0    3497    3498    3498       0    3500    3501
    3501       0    3503    3504    3504       0    3506    3507    3507       0
    3509    3510    3510       0    3512    3513    3513       0    3515    3516
    3516       0    3518    3519    3519       0    3521    3522    3522       0
    3524    3525    3525       0    3527    3528    3528       0    3530    3531
    3531       0    3533    3534    3534       0    3536    3537    3537       0
    3539    3540    3540       0    3542    3543    3543       0    3545    3546
    3546       0    3548    3549    3549       0    3551    3552    3552       0
    3554    3555    3555       0    3557    3558    3558       0    3560    3561
    3561       0    3563    3564    3564       0    3566    3567    3567       0
    3569    3570    3570       0    3572    3573    3573       0    3575    3576
    3576       0    3578    3579    3579       0    3581    3582    3582       0
    3584    3585    3585       0    3587    3588    3588       0    3590    3591
    3591       0    3593    3594    3594       0    3596    3597    3597       0
    3599    3600    3600       0    3602    3603    3603       0    3605    3606
    3606       0    3608    3609    3609       0    3611    3612    3612       0
    3614    3615    3615       0    3617    3618    3618       0    3620    3621
    3621       0    3623    3624    3624       0    3626    3627    3627       0
    3629    3630    3630       0    3632    3633    3633       0    3635    3636
    3636       0    3638    3639    3639       0    3641    3642    3642       0
    3644    3645    3645       0    3647    3648    3648       0    3650    3651
    3651       0    3653    3654    3654       0    3656    3657    3657       0
    3659    3660    3660       0    3662    3663    3663       0    3665    3666
    3666       0    3668    3669    3669       0    3671    3672    3672       0
    3674    3675    3675       0    3677    3678    3678       0    3680    3681
    3681       0    3683    3684    3684       0    3686    3687    3687       0
    3689    3690    3690       0    3692    3693    3693       0    3695    3696
    3696       0    3698    3699    3699       0    3701    3702    3702       0
    3704    3705    3705       0    3707    3708    3708       0    3710    3711
    3711       0    3713    3714    3714       0    3716    3717    3717       0
    3719    3720    3720       0    3722    3723    3723       0    3725    3726
    3726       0    3728    3729    3729       0    3731    3732    3732       0
    3734    3735    3735       0    3737    3738    3738       0    3740    3741
    3741       0    3743    3744    3744       0    3746    3747    3747       0
    3749    3750    3750       0    3752    3753    3753       0    3755    3756
    3756       0    3758    3759    3759       0    3761    3762    3762       0
    3764    3765    3765       0    3767    3768    3768       0    3770    3771
    3771       0    3773    3774    3774       0    3776    3777    3777       0
    3779    3780    3780       0    3782    3783    3783       0    3785    3786
    3786       0    3788    3789    3789       0    3791    3792    3792       0
    3794    3795    3795       0    3797    3798    3798       0    3800    3801
    3801       0    3803    3804    3804       0    3806    3807    3807       0
    3809    3810    3810       0    3812    3813    3813       0    3815    3816
    3816       0    3818    3819    3819       0    3821    3822    3822       0
    3824    3825    3825       0    3827    3828    3828       0    3830    3831
    3831       0    3833    3834    3834       0    3836    3837    3837       0
    3839    3840    3840       0    3842    3843    3843       0    3845    3846
    3846       0    3848    3849    3849       0    3851    3852    3852       0
    3854    3855    3855       0    3857    3858    3858       0    3860    3861
    3861       0    3863    3864    3864       0    3866    3867    3867       0
    3869    3870    3870       0    3872    3873    3873       0    3875    3876
    3876       0    3878    3879    3879       0    3881    3882    3882       0
    3884    3885    3885       0    3887    3888    3888       0    3890    3891
    3891       0    3893    3894    3894       0    3896    3897    3897       0
    3899    3900    3900       0    3902    3903    3903       0    3905    3906
    3906       0    3908    3909    3909       0    3911    3912    3912       0
    3914    3915    3915       0    3917    3918    3918       0    3920    3921
    3921       0    3923    3924    3924       0    3926    3927    3927       0
    3929    3930    3930       0    3932    3933    3933       0    3935    3936
    3936       0    3938    3939    3939       0    3941    3942    3942       0
    3944    3945    3945       0    3947    3948    3948       0    3950    3951
    3951       0    3953    3954    3954       0    3956    3957    3957       0
    3959    3960    3960       0    3962    3963    3963       0    3965    3966
    3966       0    3968    3969    3969       0    3971    3972    3972       0
    3974    3975    3975       0    3977    3978    3978       0    3980    3981
    3981       0    3983    3984    3984       0    3986    3987    3987       0
    3989    3990    3990       0    3992    3993    3993       0    3995    3996
    3996       0    3998    3999    3999       0    4001    4002    4002       0
    4004    4005    4005       0    4007    4008    4008       0    4010    4011
    4011       0    4013    4014    4014       0    4016    4017    4017       0
    4019    4020    4020       0    4022    4023    4023       0    4025    4026
    4026       0    4028    4029    4029       0    4031    4032    4032       0
    4034    4035    4035       0    4037    4038    4038       0    4040    4041
    4041       0    4043    4044    4044       0    4046    4047    4047       0
    4049    4050    4050       0    4052    4053    4053       0    4055    4056
    4056       0    4058    4059    4059       0    4061    4062    4062       0
    4064    4065    4065       0    4067    4068    4068       0    4070    4071
    4071       0    4073    4074    4074       0    4076    4077    4077       0
    4079    4080    4080       0    4082    4083    4083       0    4085    4086
    4086       0    4088    4089    4089       0    4091    4092    4092       0
    4094    4095    4095       0    4097    4098    4098       0    4100    4101
    4101       0    4103    4104    4104       0    4106    4107    4107       0
    4109    4110    4110       0    4112    4113    4113       0    4115    4116
    4116       0    4118    4119    4119       0    4121    4122    4122       0
    4124    4125    4125       0    4127    4128    4128       0    4130    4131
    4131       0    4133    4134    4134       0    4136    4137    4137       0
    4139    4140    4140       0    4142    4143    4143       0    4145    4146
    4146       0    4148    4149    4149       0    4151    4152    4152       0
    4154    4155    4155       0    4157    4158    4158       0    4160    4161
    4161       0    4163    4164    4164       0    4166    4167    4167       0
    4169    4170    4170       0    4172    4173    4173       0    4175    4176
    4176       0    4178    4179    4179       0    4181    4182    4182       0
    4184    4185    4185       0    4187    4188    4188       0    4190    4191
    4191       0    4193    4194    4194       0    4196    4197    4197       0
    4199    4200    4200       0    4202    4203    4203       0    4205    4206
    4206       0    4208    4209    4209       0    4211    4212    4212       0
    4214    4215    4215       0    4217    4218    4218       0    4220    4221
    4221       0    4223    4224    4224       0    4226    4227    4227       0
    4229    4230    4230       0    4232    4233    4233       0    4235    4236
    4236       0    4238    4239    4239       0    4241    4242    4242       0
    4244    4245    4245       0    4247    4248    4248       0    4250    4251
    4251       0    4253    4254    4254       0    4256    4257    4257       0
    4259    4260    4260       0    4262    4263    4263       0    4265    4266
    4266       0    4268    4269    4269       0    4271    4272    4272       0
    4274    4275    4275       0    4277    4278    4278       0    4280    4281
    4281       0    4283    4284    4284       0    4286    4287    4287       0
    4289    4290    4290       0    4292    4293    4293       0    4295    4296
    4296       0    4298    4299    4299       0    4301    4302    4302       0
    4304    4305    4305       0    4307    4308    4308       0    4310    4311
    4311       0    4313    4314    4314       0    4316    4317    4317       0
    4319    4320    4320       0    4322    4323    4323       0    4325    4326
    4326       0    4328    4329    4329       0    4331    4332    4332       0
    4334    4335    4335       0    4337    4338    4338       0    4340    4341
    4341       0    4343    4344    4344       0    4346    4347    4347       0
    4349    4350    4350       0    4352    4353    4353       0    4355    4356
    4356       0    4358    4359    4359       0    4361    4362    4362       0
    4364    4365    4365       0    4367    4368    4368       0    4370    4371
    4371       0    4373    4374    4374       0    4376    4377    4377       0
    4379    4380    4380       0    4382    4383    4383       0    4385    4386
    4386       0    4388    4389    4389       0    4391    4392    4392       0
    4394    4395    4395       0    4397    4398    4398       0    4400    4401
    4401       0    4403    4404    4404       0    4406    4407    4407       0
    4409    4410    4410       0    4412    4413    4413       0    4415    4416
    4416       0    4418    4419    4419       0    4421    4422    4422       0
    4424    4425    4425       0    4427    4428    4428       0    4430    4431
    4431       0    4433    4434    4434       0    4436    4437    4437       0
    4439    4440    4440       0    4442    4443    4443       0    4445    4446
    4446       0    4448    4449    4449       0    4451    4452    4452       0
    4454    4455    4455       0    4457    4458    4458       0    4460    4461
    4461       0    4463    4464    4464       0    4466    4467    4467       0
    4469    4470    4470       0    4472    4473    4473       0    4475    4476
    4476       0    4478    4479    4479       0    4481    4482    4482       0
    4484    4485    4485       0    4487    4488    4488       0    4490    4491
    4491       0    4493    4494    4494       0    4496    4497    4497       0
    4499    4500    4500       0    4502    4503    4503       0    4505    4506
    4506       0    4508    4509    4509       0    4511    4512    4512       0
    4514    4515    4515       0    4517    4518    4518       0    4520    4521
    4521       0    4523    4524    4524       0    4526    4527    4527       0
    4529    4530    4530       0    4532    4533    4533       0    4535    4536
    4536       0    4538    4539    4539       0    4541    4542    4542       0
    4544    4545    4545       0    4547    4548    4548       0    4550    4551
    4551       0    4553    4554    4554       0    4556    4557    4557       0
    4559    4560    4560       0    4562    4563    4563       0    4565    4566
    4566       0    4568    4569    4569       0    4571    4572    4572       0
    4574    4575    4575       0    4577    4578    4578       0    4580    4581
    4581       0    4583    4584    4584       0    4586    4587    4587       0
    4589    4590    4590       0    4592    4593    4593       0    4595    4596
    4596       0    4598    4599    4599       0    4601    4602    4602       0
    4604    4605    4605       0    4607    4608    4608       0    4610    4611
    4611       0    4613    4614    4614       0    4616    4617    4617       0
    4619    4620    4620       0    4622    4623    4623       0    4625    4626
    4626       0    4628    4629    4629       0    4631    4632    4632       0
    4634    4635    4635       0    4637    4638    4638       0    4640    4641
    4641       0    4643    4644    4644       0    4646    4647    4647       0
    4649    4650    4650       0    4652    4653    4653       0    4655    4656
    4656       0    4658    4659    4659       0    4661    4662    4662       0
    4664    4665    4665       0    4667    4668    4668       0    4670    4671
    4671       0    4673    4674    4674       0    4676    4677    4677       0
    4679    4680    4680       0    4682    4683    4683       0    4685    4686
    4686       0    4688    4689    4689       0    4691    4692    4692       0
    4694    4695    4695       0    4697    4698    4698       0    4700    4701
    4701       0    4703    4704    4704       0    4706    4707    4707       0
    4709    4710    4710       0    4712    4713    4713       0    4715    4716
    4716       0    4718    4719    4719       0    4721    4722    4722       0
    4724    4725    4725       0    4727    4728    4728       0    4730    4731
    4731       0    4733    4734    4734       0    4736    4737    4737       0
    4739    4740    4740       0    4742    4743    4743       0    4745    4746
    4746       0    4748    4749    4749       0    4751    4752    4752       0
    4754    4755    4755       0    4757    4758    4758       0    4760    4761
    4761       0    4763    4764    4764       0    4766    4767    4767       0
    4769    4770    4770       0    4772    4773    4773       0    4775    4776
    4776       0    4778    4779    4779       0    4781    4782    4782       0
    4784    4785    4785       0    4787    4788    4788       0    4790    4791
    4791       0    4793    4794    4794       0    4796    4797    4797       0
    4799    4800    4800       0    4802    4803    4803       0    4805    4806
    4806       0    4808    4809    4809       0    4811    4812    4812       0
    4814    4815    4815       0    4817    4818    4818       0    4820    4821
    4821       0    4823    4824    4824       0    4826    4827    4827       0
    4829    4830    4830       0    4832    4833    4833       0    4835    4836
    4836       0    4838    4839    4839       0    4841    4842    4842       0
    4844    4845    4845       0    4847    4848    4848       0    4850    4851
    4851       0    4853    4854    4854       0    4856    4857    4857       0
    4859    4860    4860       0    4862    4863    4863       0    4865    4866
    4866       0    4868    4869    4869       0    4871    4872    4872       0
    4874    4875    4875       0    4877    4878    4878       0    4880    4881
    4881       0    4883    4884    4884       0    4886    4887    4887       0
    4889    4890    4890       0    4892    4893    4893       0    4895    4896
    4896       0    4898    4899    4899       0    4901    4902    4902       0
    4904    4905    4905       0    4907    4908    4908       0    4910    4911
    4911       0    4913    4914    4914       0    4916    4917    4917       0
    4919    4920    4920       0    4922    4923    4923       0    4925    4926
    4926       0    4928    4929    4929       0    4931    4932    4932       0
    4934    4935    4935       0    4937    4938    4938       0    4940    4941
    4941       0    4943    4944    4944       0    4946    4947    4947       0
    4949    4950    4950       0    4952    4953    4953       0    4955    4956
    4956       0    4958    4959    4959       0    4961    4962    4962       0
    4964    4965    4965       0    4967    4968    4968       0    4970    4971
    4971       0    4973    4974    4974       0    4976    4977    4977       0
    4979    4980    4980       0    4982    4983    4983       0    4985    4986
    4986       0    4988    4989    4989       0    4991    4992    4992       0
    4994    4995    4995       0    4997    4998    4998       0    5000    5001
    5001       0    5003    5004    5004       0    5006    5007    5007       0
    5009    5010    5010       0    5012    5013    5013       0    5015    5016
    5016       0    5018    5019    5019       0    5021    5022    5022       0
    5024    5025    5025       0    5027    5028    5028       0    5030    5031
    5031       0    5033    5034    5034       0    5036    5037    5037       0
    5039    5040    5040       0    5042    5043    5043       0    5045    5046
    5046       0    5048    5049    5049       0    5051    5052    5052       0
    5054    5055    5055       0    5057    5058    5058       0    5060    5061
    5061       0    5063    5064    5064       0    5066    5067    5067       0
    5069    5070    5070       0    5072    5073    5073       0    5075    5076
    5076       0    5078    5079    5079       0    5081    5082    5082       0
    5084    5085    5085       0    5087    5088    5088       0    5090    5091
    5091       0    5093    5094    5094       0    5096    5097    5097       0
    5099    5100    5100       0    5102    5103    5103       0    5105    5106
    5106       0    5108    5109    5109       0    5111    5112    5112       0
    5114    5115    5115       0    5117    5118    5118       0    5120    5121
    5121       0    5123    5124    5124       0    5126    5127    5127       0
    5129    5130    5130       0    5132    5133    5133       0    5135    5136
    5136       0    5138    5139    5139       0    5141    5142    5142       0
    5144    5145    5145       0    5147    5148    5148       0    5150    5151
    5151       0    5153    5154    5154       0    5156    5157    5157       0
    5159    5160    5160       0    5162    5163    5163       0    5165    5166
    5166       0    5168    5169    5169       0    5171    5172    5172       0
    5174    5175    5175       0    5177    5178    5178       0    5180    5181
    5181       0    5183    5184    5184       0    5186    5187    5187       0
    5189    5190    5190       0    5192    5193    5193       0    5195    5196
    5196       0    5198    5199    5199       0    5201    5202    5202       0
    5204    5205    5205       0    5207    5208    5208       0    5210    5211
    5211       0    5213    5214    5214       0    5216    5217    5217       0
    5219    5220    5220       0    5222    5223    5223       0    5225    5226
    5226       0    5228    5229    5229       0    5231    5232    5232       0
    5234    5235    5235       0    5237    5238    5238       0    5240    5241
    5241       0    5243    5244    5244       0    5246    5247    5247       0
    5249    5250    5250       0    5252    5253    5253       0    5255    5256
    5256       0    5258    5259    5259       0    5261    5262    5262       0
    5264    5265    5265       0    5267    5268    5268       0    5270    5271
    5271       0    5273    5274    5274       0    5276    5277    5277       0
    5279    5280    5280       0    5282    5283    5283       0    5285    5286
    5286       0    5288    5289    5289       0    5291    5292    5292       0
    5294    5295    5295       0    5297    5298    5298       0    5300    5301
    5301       0    5303    5304    5304       0    5306    5307    5307       0
    5309    5310    5310       0    5312    5313    5313       0    5315    5316
    5316       0    5318    5319    5319       0    5321    5322    5322       0
    5324    5325    5325       0    5327    5328    5328       0    5330    5331
    5331       0    5333    5334    5334       0    5336    5337    5337       0
    5339    5340    5340       0    5342    5343    5343       0    5345    5346
    5346       0    5348    5349    5349       0    5351    5352    5352       0
    5354    5355    5355       0    5357    5358    5358       0    5360    5361
    5361       0    5363    5364    5364       0    5366    5367    5367       0
    5369    5370    5370       0    5372    5373    5373       0    5375    5376
    5376       0    5378    5379    5379       0    5381    5382    5382       0
    5384    5385    5385       0    5387    5388    5388       0    5390    5391
    5391       0    5393    5394    5394       0    5396    5397    5397       0
    5399    5400    5400       0    5402    5403    5403       0    5405    5406
    5406       0    5408    5409    5409       0    5411    5412    5412       0
    5414    5415    5415       0    5417    5418    5418       0    5420    5421
    5421       0    5423    5424    5424       0    5426    5427    5427       0
    5429    5430    5430       0    5432    5433    5433       0    5435    5436
    5436       0    5438    5439    5439       0    5441    5442    5442       0
    5444    5445    5445       0    5447    5448    5448       0    5450    5451
    5451       0    5453    5454    5454       0    5456    5457    5457       0
    5459    5460    5460       0    5462    5463    5463       0    5465    5466
    5466       0    5468    5469    5469       0    5471    5472    5472       0
    5474    5475    5475       0    5477    5478    5478       0    5480    5481
    5481       0    5483    5484    5484       0    5486    5487    5487       0
    5489    5490    5490       0    5492    5493    5493       0    5495    5496
    5496       0    5498    5499    5499       0    5501    5502    5502       0
    5504    5505    5505       0    5507    5508    5508       0    5510    5511
    5511       0    5513    5514    5514       0    5516    5517    5517       0
    5519    5520    5520       0    5522    5523    5523       0    5525    5526
    5526       0    5528    5529    5529       0    5531    5532    5532       0
    5534    5535    5535       0    5537    5538    5538       0    5540    5541
    5541       0    5543    5544    5544       0    5546    5547    5547       0
    5549    5550    5550       0    5552    5553    5553       0    5555    5556
    5556       0    5558    5559    5559       0    5561    5562    5562       0
    5564    5565    5565       0    5567    5568    5568       0    5570    5571
    5571       0    5573    5574    5574       0    5576    5577    5577       0
    5579    5580    5580       0    5582    5583    5583       0    5585    5586
    5586       0    5588    5589    5589       0    5591    5592    5592       0
    5594    5595    5595       0    5597    5598    5598       0    5600    5601
    5601       0    5603    5604    5604       0    5606    5607    5607       0
    5609    5610    5610       0    5612    5613    5613       0    5615    5616
    5616       0    5618    5619    5619       0    5621    5622    5622       0
    5624    5625    5625       0    5627    5628    5628       0    5630    5631
    5631       0    5633    5634    5634       0    5636    5637    5637       0
    5639    5640    5640       0    5642    5643    5643       0    5645    5646
    5646       0    5648    5649    5649       0    5651    5652    5652       0
    5654    5655    5655       0    5657    5658    5658       0    5660    5661
    5661       0    5663    5664    5664       0    5666    5667    5667       0
    5669    5670    5670       0    5672    5673    5673       0    5675    5676
    5676       0    5678    5679    5679       0    5681    5682    5682       0
    5684    5685    5685       0    5687    5688    5688       0    5690    5691
    5691       0    5693    5694    5694       0    5696    5697    5697       0
    5699    5700    5700       0    5702    5703    5703       0    5705    5706
    5706       0    5708    5709    5709       0    5711    5712    5712       0
    5714    5715    5715       0    5717    5718    5718       0    5720    5721
    5721       0    5723    5724    5724       0    5726    5727    5727       0
    5729    5730    5730       0    5732    5733    5733       0    5735    5736
    5736       0    5738    5739    5739       0    5741    5742    5742       0
    5744    5745    5745       0    5747    5748    5748       0    5750    5751
    5751       0    5753    5754    5754       0    5756    5757    5757       0
    5759    5760    5760       0    5762    5763    5763       0    5765    5766
    5766       0    5768    5769    5769       0    5771    5772    5772       0
    5774    5775    5775       0    5777    5778    5778       0    5780    5781
    5781       0    5783    5784    5784       0    5786    5787    5787       0
    5789    5790    5790       0    5792    5793    5793       0    5795    5796
    5796       0    5798    5799    5799       0    5801    5802    5802       0
    5804    5805    5805       0    5807    5808    5808       0    5810    5811
    5811       0    5813    5814    5814       0    5816    5817    5817       0
    5819    5820    5820       0    5822    5823    5823       0    5825    5826
    5826       0    5828    5829    5829       0    5831    5832    5832       0
    5834    5835    5835       0    5837    5838    5838       0    5840    5841
    5841       0    5843    5844    5844       0    5846    5847    5847       0
    5849    5850    5850       0    5852    5853    5853       0    5855    5856
    5856       0    5858    5859    5859       0    5861    5862    5862       0
    5864    5865    5865       0    5867    5868    5868       0    5870    5871
    5871       0    5873    5874    5874       0    5876    5877    5877       0
    5879    5880    5880       0    5882    5883    5883       0    5885    5886
    5886       0    5888    5889    5889       0    5891    5892    5892       0
    5894    5895    5895       0    5897    5898    5898       0    5900    5901
    5901       0    5903    5904    5904       0    5906    5907    5907       0
    5909    5910    5910       0    5912    5913    5913       0    5915    5916
    5916       0    5918    5919    5919       0    5921    5922    5922       0
    5924    5925    5925       0    5927    5928    5928       0    5930    5931
    5931       0    5933    5934    5934       0    5936    5937    5937       0
    5939    5940    5940       0    5942    5943    5943       0    5945    5946
    5946       0    5948    5949    5949       0    5951    5952    5952       0
    5954    5955    5955       0    5957    5958    5958       0    5960    5961
    5961       0    5963    5964    5964       0    5966    5967    5967       0
    5969    5970    5970       0    5972    5973    5973       0    5975    5976
    5976       0    5978    5979    5979       0    5981    5982    5982       0
    5984    5985    5985       0    5987    5988    5988       0    5990    5991
    5991       0    5993    5994    5994       0    5996    5997    5997       0
    5999    6000    6000       0    6002    6003    6003       0    6005    6006
    6006       0    6008    6009    6009       0    6011    6012    6012       0
    6014    6015    6015       0    6017    6018    6018       0    6020    6021
    6021       0    6023    6024    6024       0    6026    6027    6027       0
    6029    6030    6030       0    6032    6033    6033       0    6035    6036
    6036       0    6038    6039    6039       0    6041    6042    6042       0
    6044    6045    6045       0    6047    6048    6048       0    6050    6051
    6051       0    6053    6054    6054       0    6056    6057    6057       0
    6059    6060    6060       0    6062    6063    6063       0    6065    6066
    6066       0    6068    6069    6069       0    6071    6072    6072       0
    6074    6075    6075       0    6077    6078    6078       0    6080    6081
    6081       0    6083    6084    6084       0    6086    6087    6087       0
    6089    6090    6090       0    6092    6093    6093       0    6095    6096
    6096       0    6098    6099    6099       0    6101    6102    6102       0
    6104    6105    6105       0    6107    6108    6108       0    6110    6111
    6111       0    6113    6114    6114       0    6116    6117    6117       0
    6119    6120    6120       0    6122    6123    6123       0    6125    6126
    6126       0    6128    6129    6129       0    6131    6132    6132       0
    6134    6135    6135       0    6137    6138    6138       0    6140    6141
    6141       0    6143    6144    6144       0    6146    6147    6147       0
    6149    6150    6150       0    6152    6153    6153       0    6155    6156
    6156       0    6158    6159    6159       0    6161    6162    6162       0
    6164    6165    6165       0    6167    6168    6168       0    6170    6171
    6171       0    6173    6174    6174       0    6176    6177    6177       0
    6179    6180    6180       0    6182    6183    6183       0    6185    6186
    6186       0    6188    6189    6189       0    6191    6192    6192       0
    6194    6195    6195       0    6197    6198    6198       0    6200    6201
    6201       0    6203    6204    6204       0    6206    6207    6207       0
    6209    6210    6210       0    6212    6213    6213       0    6215    6216
    6216       0    6218    6219    6219       0    6221    6222    6222       0
    6224    6225    6225       0    6227    6228    6228       0    6230    6231
    6231       0    6233    6234    6234       0    6236    6237    6237       0
    6239    6240    6240       0    6242    6243    6243       0    6245    6246
    6246       0    6248    6249    6249       0    6251    6252    6252       0
    6254    6255    6255       0    6257    6258    6258       0    6260    6261
    6261       0    6263    6264    6264       0    6266    6267    6267       0
    6269    6270    6270       0    6272    6273    6273       0    6275    6276
    6276       0    6278    6279    6279       0    6281    6282    6282       0
    6284    6285    6285       0    6287    6288    6288       0    6290    6291
    6291       0    6293    6294    6294       0    6296    6297    6297       0
    6299    6300    6300       0    6302    6303    6303       0    6305    6306
    6306       0    6308    6309    6309       0    6311    6312    6312       0
    6314    6315    6315       0    6317    6318    6318       0    6320    6321
    6321       0    6323    6324    6324       0    6326    6327    6327       0
    6329    6330    6330       0    6332    6333    6333       0    6335    6336
    6336       0    6338    6339    6339       0    6341    6342    6342       0
    6344    6345    6345       0    6347    6348    6348       0    6350    6351
    6351       0    6353    6354    6354       0    6356    6357    6357       0
    6359    6360    6360       0    6362    6363    6363       0    6365    6366
    6366       0    6368    6369    6369       0    6371    6372    6372       0
    6374    6375    6375       0    6377    6378    6378       0    6380    6381
    6381       0    6383    6384    6384       0    6386    6387    6387       0
    6389    6390    6390       0    6392    6393    6393       0    6395    6396
    6396       0    6398    6399    6399       0    6401    6402    6402       0
    6404    6405    6405       0    6407    6408    6408       0    6410    6411
    6411       0    6413    6414    6414       0    6416    6417    6417       0
    6419    6420    6420       0    6422    6423    6423       0    6425    6426
    6426       0    6428    6429    6429       0    6431    6432    6432       0
    6434    6435    6435       0    6437    6438    6438       0    6440    6441
    6441       0    6443    6444    6444       0    6446    6447    6447       0
    6449    6450    6450       0    6452    6453    6453       0    6455    6456
    6456       0    6458    6459    6459       0    6461    6462    6462       0
    6464    6465    6465       0    6467    6468    6468       0    6470    6471
    6471       0    6473    6474    6474       0    6476    6477    6477       0
    6479    6480    6480       0    6482    6483    6483       0    6485    6486
    6486       0    6488    6489    6489       0    6491    6492    6492       0
    6494    6495    6495       0    6497    6498    6498       0    6500    6501
    6501       0    6503    6504    6504       0    6506    6507    6507       0
    6509    6510    6510       0    6512    6513    6513       0    6515    6516
    6516       0    6518    6519    6519       0    6521    6522    6522       0
    6524    6525    6525       0    6527    6528    6528       0    6530    6531
    6531       0    6533    6534    6534       0    6536    6537    6537       0
    6539    6540    6540       0    6542    6543    6543       0    6545    6546
    6546       0    6548    6549    6549       0    6551    6552    6552       0
    6554    6555    6555       0    6557    6558    6558       0    6560    6561
    6561       0    6563    6564    6564       0    6566    6567    6567       0
    6569    6570    6570       0    6572    6573    6573       0    6575    6576
    6576       0    6578    6579    6579       0    6581    6582    6582       0
    6584    6585    6585       0    6587    6588    6588       0    6590    6591
    6591       0    6593    6594    6594       0    6596    6597    6597       0
    6599    6600    6600       0    6602    6603    6603       0    6605    6606
    6606       0    6608    6609    6609       0    6611    6612    6612       0
    6614    6615    6615       0    6617    6618    6618       0    6620    6621
    6621       0    6623    6624    6624       0    6626    6627    6627       0
    6629    6630    6630       0    6632    6633    6633       0    6635    6636
    6636       0    6638    6639    6639       0    6641    6642    6642       0
    6644    6645    6645       0    6647    6648    6648       0    6650    6651
    6651       0    6653    6654    6654       0    6656    6657    6657       0
    6659    6660    6660       0    6662    6663    6663       0    6665    6666
    6666       0    6668    6669    6669       0    6671    6672    6672       0
    6674    6675    6675       0    6677    6678    6678       0    6680    6681
    6681       0    6683    6684    6684       0    6686    6687    6687       0
    6689    6690    6690       0    6692    6693    6693       0    6695    6696
    6696       0    6698    6699    6699       0    6701    6702    6702       0
    6704    6705    6705       0    6707    6708    6708       0    6710    6711
    6711       0    6713    6714    6714       0    6716    6717    6717       0
    6719    6720    6720       0    6722    6723    6723       0    6725    6726
    6726       0    6728    6729    6729       0    6731    6732    6732       0
    6734    6735    6735       0    6737    6738    6738       0    6740    6741
    6741       0    6743    6744    6744       0    6746    6747    6747       0
    6749    6750    6750       0    6752    6753    6753       0    6755    6756
    6756       0    6758    6759    6759       0    6761    6762    6762       0
    6764    6765    6765       0    6767    6768    6768       0    6770    6771
    6771       0    6773    6774    6774       0    6776    6777    6777       0
    6779    6780    6780       0    6782    6783    6783       0    6785    6786
    6786       0    6788    6789    6789       0    6791    6792    6792       0
    6794    6795    6795       0    6797    6798    6798       0    6800    6801
    6801       0    6803    6804    6804       0    6806    6807    6807       0
    6809    6810    6810       0    6812    6813    6813       0    6815    6816
    6816       0    6818    6819    6819       0    6821    6822    6822       0
    6824    6825    6825       0    6827    6828    6828       0    6830    6831
    6831       0    6833    6834    6834       0    6836    6837    6837       0
    6839    6840    6840       0    6842    6843    6843       0    6845    6846
    6846       0    6848    6849    6849       0    6851    6852    6852       0
    6854    6855    6855       0    6857    6858    6858       0    6860    6861
    6861       0    6863    6864    6864       0    6866    6867    6867       0
    6869    6870    6870       0    6872    6873    6873       0    6875    6876
    6876       0    6878    6879    6879       0    6881    6882    6882       0
    6884    6885    6885       0    6887    6888    6888       0    6890    6891
    6891       0    6893    6894    6894       0    6896    6897    6897       0
    6899    6900    6900       0    6902    6903    6903       0    6905    6906
    6906       0    6908    6909    6909       0    6911    6912    6912       0
    6914    6915    6915       0    6917    6918    6918       0    6920    6921
    6921       0    6923    6924    6924       0    6926    6927    6927       0
    6929    6930    6930       0    6932    6933    6933       0    6935    6936
    6936       0    6938    6939    6939       0    6941    6942    6942       0
    6944    6945    6945       0    6947    6948    6948       0    6950    6951
    6951       0    6953    6954    6954       0    6956    6957    6957       0
    6959    6960    6960       0    6962    6963    6963       0    6965    6966
    6966       0    6968    6969    6969       0    6971    6972    6972       0
    6974    6975    6975       0    6977    6978    6978       0    6980    6981
    6981       0    6983    6984    6984       0    6986    6987    6987       0
    6989    6990    6990       0    6992    6993    6993       0    6995    6996
    6996       0    6998    6999    6999       0    7001    7002    7002       0
    7004    7005    7005       0    7007    7008    7008       0    7010    7011
    7011       0    7013    7014    7014       0    7016    7017    7017       0
    7019    7020    7020       0    7022    7023    7023       0    7025    7026
    7026       0    7028    7029    7029       0    7031    7032    7032       0
    7034    7035    7035       0    7037    7038    7038       0    7040    7041
    7041       0    7043    7044    7044       0    7046    7047    7047       0
    7049    7050    7050       0    7052    7053    7053       0    7055    7056
    7056       0    7058    7059    7059       0    7061    7062    7062       0
    7064    7065    7065       0    7067    7068    7068       0    7070    7071
    7071       0    7073    7074    7074       0    7076    7077    7077       0
    7079    7080    7080       0    7082    7083    7083       0    7085    7086
    7086       0    7088    7089    7089       0    7091    7092    7092       0
    7094    7095    7095       0    7097    7098    7098       0    7100    7101
    7101       0    7103    7104    7104       0    7106    7107    7107       0
    7109    7110    7110       0    7112    7113    7113       0    7115    7116
    7116       0    7118    7119    7119       0    7121    7122    7122       0
    7124    7125    7125       0    7127    7128    7128       0    7130    7131
    7131       0    7133    7134    7134       0    7136    7137    7137       0
    7139    7140    7140       0    7142    7143    7143       0    7145    7146
    7146       0    7148    7149    7149       0    7151    7152    7152       0
    7154    7155    7155       0    7157    7158    7158       0    7160    7161
    7161       0    7163    7164    7164       0    7166    7167    7167       0
    7169    7170    7170       0    7172    7173    7173       0    7175    7176
    7176       0    7178    7179    7179       0    7181    7182    7182       0
    7184    7185    7185       0    7187    7188    7188       0    7190    7191
    7191       0    7193    7194    7194       0    7196    7197    7197       0
    7199    7200    7200       0    7202    7203    7203       0    7205    7206
    7206       0    7208    7209    7209       0    7211    7212    7212       0
    7214    7215    7215       0    7217    7218    7218       0    7220    7221
    7221       0    7223    7224    7224       0    7226    7227    7227       0
    7229    7230    7230       0    7232    7233    7233       0    7235    7236
    7236       0    7238    7239    7239       0    7241    7242    7242       0
    7244    7245    7245       0    7247    7248    7248       0    7250    7251
    7251       0    7253    7254    7254       0    7256    7257    7257       0
    7259    7260    7260       0    7262    7263    7263       0    7265    7266
    7266       0    7268    7269    7269       0    7271    7272    7272       0
    7274    7275    7275       0    7277    7278    7278       0    7280    7281
    7281       0    7283    7284    7284       0    7286    7287    7287       0
    7289    7290    7290       0    7292    7293    7293       0    7295    7296
    7296       0    7298    7299    7299       0    7301    7302    7302       0
    7304    7305    7305       0    7307    7308    7308       0    7310    7311
    7311       0    7313    7314    7314       0    7316    7317    7317       0
    7319    7320    7320       0    7322    7323    7323       0    7325    7326
    7326       0    7328    7329    7329       0    7331    7332    7332       0
    7334    7335    7335       0    7337    7338    7338       0    7340    7341
    7341       0    7343    7344    7344       0    7346    7347    7347       0
    7349    7350    7350       0    7352    7353    7353       0    7355    7356
    7356       0    7358    7359    7359       0    7361    7362    7362       0
    7364    7365    7365       0    7367    7368    7368       0    7370    7371
    7371       0    7373    7374    7374       0    7376    7377    7377       0
    7379    7380    7380       0    7382    7383    7383       0    7385    7386
    7386       0    7388    7389    7389       0    7391    7392    7392       0
    7394    7395    7395       0    7397    7398    7398       0    7400    7401
    7401       0    7403    7404    7404       0    7406    7407    7407       0
    7409    7410    7410       0    7412    7413    7413       0    7415    7416
    7416       0    7418    7419    7419       0    7421    7422    7422       0
    7424    7425    7425       0    7427    7428    7428       0    7430    7431
    7431       0    7433    7434    7434       0    7436    7437    7437       0
    7439    7440    7440       0    7442    7443    7443       0    7445    7446
    7446       0    7448    7449    7449       0    7451    7452    7452       0
    7454    7455    7455       0    7457    7458    7458       0    7460    7461
    7461       0    7463    7464    7464       0    7466    7467    7467       0
    7469    7470    7470       0    7472    7473    7473       0    7475    7476
    7476       0    7478    7479    7479       0    7481    7482    7482       0
    7484    7485    7485       0    7487    7488    7488       0    7490    7491
    7491       0    7493    7494    7494       0    7496    7497    7497       0
    7499    7500    7500       0    7502    7503    7503       0    7505    7506
    7506       0    7508    7509    7509       0    7511    7512    7512       0
    7514    7515    7515       0    7517    7518    7518       0    7520    7521
    7521       0    7523    7524    7524       0    7526    7527    7527       0
    7529    7530    7530       0    7532    7533    7533       0    7535    7536
    7536       0    7538    7539    7539       0    7541    7542    7542       0
    7544    7545    7545       0    7547    7548    7548       0    7550    7551
    7551       0    7553    7554    7554       0    7556    7557    7557       0
    7559    7560    7560       0    7562    7563    7563       0    7565    7566
    7566       0    7568    7569    7569       0    7571    7572    7572       0
    7574    7575    7575       0    7577    7578    7578       0    7580    7581
    7581       0    7583    7584    7584       0    7586    7587    7587       0
    7589    7590    7590       0    7592    7593    7593       0    7595    7596
    7596       0    7598    7599    7599       0    7601    7602    7602       0
    7604    7605    7605       0    7607    7608    7608       0    7610    7611
    7611       0    7613    7614    7614       0    7616    7617    7617       0
    7619    7620    7620       0    7622    7623    7623       0    7625    7626
    7626       0    7628    7629    7629       0    7631    7632    7632       0
    7634    7635    7635       0    7637    7638    7638       0    7640    7641
    7641       0    7643    7644    7644       0    7646    7647    7647       0
    7649    7650    7650       0    7652    7653    7653       0    7655    7656
    7656       0    7658    7659    7659       0    7661    7662    7662       0
    7664    7665    7665       0    7667    7668    7668       0    7670    7671
    7671       0    7673    7674    7674       0    7676    7677    7677       0
    7679    7680    7680       0    7682    7683    7683       0    7685    7686
    7686       0    7688    7689    7689       0    7691    7692    7692       0
    7694    7695    7695       0    7697    7698    7698       0    7700    7701
    7701       0    7703    7704    7704       0    7706    7707    7707       0
    7709    7710    7710       0    7712    7713    7713       0    7715    7716
    7716       0    7718    7719    7719       0    7721    7722    7722       0
    7724    7725    7725       0    7727    7728    7728       0    7730    7731
    7731       0    7733    7734    7734       0    7736    7737    7737       0
    7739    7740    7740       0    7742    7743    7743       0    7745    7746
    7746       0    7748    7749    7749       0    7751    7752    7752       0
    7754    7755    7755       0    7757    7758    7758       0    7760    7761
    7761       0    7763    7764    7764       0    7766    7767    7767       0
    7769    7770    7770       0    7772    7773    7773       0    7775    7776
    7776       0    7778    7779    7779       0    7781    7782    7782       0
    7784    7785    7785       0    7787    7788    7788       0    7790    7791
    7791       0    7793    7794    7794       0    7796    7797    7797       0
    7799    7800    7800       0    7802    7803    7803       0    7805    7806
    7806       0    7808    7809    7809       0    7811    7812    7812       0
    7814    7815    7815       0    7817    7818    7818       0    7820    7821
    7821       0    7823    7824    7824       0    7826    7827    7827       0
    7829    7830    7830       0    7832    7833    7833       0    7835    7836
    7836       0    7838    7839    7839       0    7841    7842    7842       0
    7844    7845    7845       0    7847    7848    7848       0    7850    7851
    7851       0    7853    7854    7854       0    7856    7857    7857       0
    7859    7860    7860       0    7862    7863    7863       0    7865    7866
    7866       0    7868    7869    7869       0    7871    7872    7872       0
    7874    7875    7875       0    7877    7878    7878       0    7880    7881
    7881       0    7883    7884    7884       0    7886    7887    7887       0
    7889    7890    7890       0    7892    7893    7893       0    7895    7896
    7896       0    7898    7899    7899       0    7901    7902    7902       0
    7904    7905    7905       0    7907    7908    7908       0    7910    7911
    7911       0    7913    7914    7914       0    7916    7917    7917       0
    7919    7920    7920       0    7922    7923    7923       0    7925    7926
    7926       0    7928    7929    7929       0    7931    7932    7932       0
    7934    7935    7935       0    7937    7938    7938       0    7940    7941
    7941       0    7943    7944    7944       0    7946    7947    7947       0
    7949    7950    7950       0    7952    7953    7953       0    7955    7956
    7956       0    7958    7959    7959       0    7961    7962    7962       0
    7964    7965    7965       0    7967    7968    7968       0    7970    7971
    7971       0    7973    7974    7974       0    7976    7977    7977       0
    7979    7980    7980       0    7982    7983    7983       0    7985    7986
    7986       0    7988    7989    7989       0    7991    7992    7992       0
    7994    7995    7995       0    7997    7998    7998       0    8000    8001
    8001       0    8003    8004    8004       0    8006    8007    8007       0
    8009    8010    8010       0    8012    8013    8013       0    8015    8016
    8016       0    8018    8019    8019       0    8021    8022    8022       0
    8024    8025    8025       0    8027    8028    8028       0    8030    8031
    8031       0    8033    8034    8034       0    8036    8037    8037       0
    8039    8040    8040       0    8042    8043    8043       0    8045    8046
    8046       0    8048    8049    8049       0    8051    8052    8052       0
    8054    8055    8055       0    8057    8058    8058       0    8060    8061
    8061       0    8063    8064    8064       0    8066    8067    8067       0
    8069    8070    8070       0    8072    8073    8073       0    8075    8076
    8076       0    8078    8079    8079       0    8081    8082    8082       0
    8084    8085    8085       0    8087    8088    8088       0    8090    8091
    8091       0    8093    8094    8094       0    8096    8097    8097       0
    8099    8100    8100       0    8102    8103    8103       0    8105    8106
    8106       0    8108    8109    8109       0    8111    8112    8112       0
    8114    8115    8115       0    8117    8118    8118       0    8120    8121
    8121       0    8123    8124    8124       0    8126    8127    8127       0
    8129    8130    8130       0    8132    8133    8133       0    8135    8136
    8136       0    8138    8139    8139       0    8141    8142    8142       0
    8144    8145    8145       0    8147    8148    8148       0    8150    8151
    8151       0    8153    8154    8154       0    8156    8157    8157       0
    8159    8160    8160       0    8162    8163    8163       0    8165    8166
    8166       0    8168    8169    8169       0    8171    8172    8172       0
    8174    8175    8175       0    8177    8178    8178       0    8180    8181
    8181       0    8183    8184    8184       0    8186    8187    8187       0
    8189    8190    8190       0    8192    8193    8193       0    8195    8196
    8196       0    8198    8199    8199       0    8201    8202    8202       0
    8204    8205    8205       0    8207    8208    8208       0    8210    8211
    8211       0    8213    8214    8214       0    8216    8217    8217       0
    8219    8220    8220       0    8222    8223    8223       0    8225    8226
    8226       0    8228    8229    8229       0    8231    8232    8232       0
    8234    8235    8235       0    8237    8238    8238       0    8240    8241
    8241       0    8243    8244    8244       0    8246    8247    8247       0
    8249    8250    8250       0    8252    8253    8253       0    8255    8256
    8256       0    8258    8259    8259       0    8261    8262    8262       0
    8264    8265    8265       0    8267    8268    8268       0    8270    8271
    8271       0    8273    8274    8274       0    8276    8277    8277       0
    8279    8280    8280       0    8282    8283    8283       0    8285    8286
    8286       0    8288    8289    8289       0    8291    8292    8292       0
    8294    8295    8295       0    8297    8298    8298       0    8300    8301
    8301       0    8303    8304    8304       0    8306    8307    8307       0
    8309    8310    8310       0    8312    8313    8313       0    8315    8316
    8316       0    8318    8319    8319       0    8321    8322    8322       0
    8324    8325    8325       0    8327    8328    8328       0    8330    8331
    8331       0    8333    8334    8334       0    8336    8337    8337       0
    8339    8340    8340       0    8342    8343    8343       0    8345    8346
    8346       0    8348    8349    8349       0    8351    8352    8352       0
    8354    8355    8355       0    8357    8358    8358       0    8360    8361
    8361       0    8363    8364    8364       0    8366    8367    8367       0
    8369    8370    8370       0    8372    8373    8373       0    8375    8376
    8376       0    8378    8379    8379       0    8381    8382    8382       0
    8384    8385    8385       0    8387    8388    8388       0    8390    8391
    8391       0    8393    8394    8394       0    8396    8397    8397       0
    8399    8400    8400       0    8402    8403    8403       0    8405    8406
    8406       0    8408    8409    8409       0    8411    8412    8412       0
    8414    8415    8415       0    8417    8418    8418       0    8420    8421
    8421       0    8423    8424    8424       0    8426    8427    8427       0
    8429    8430    8430       0    8432    8433    8433       0    8435    8436
    8436       0    8438    8439    8439       0    8441    8442    8442       0
    8444    8445    8445       0    8447    8448    8448       0    8450    8451
    8451       0    8453    8454    8454       0    8456    8457    8457       0
    8459    8460    8460       0    8462    8463    8463       0    8465    8466
    8466       0    8468    8469    8469       0    8471    8472    8472       0
    8474    8475    8475       0    8477    8478    8478       0    8480    8481
    8481       0    8483    8484    8484       0    8486    8487    8487       0
    8489    8490    8490       0    8492    8493    8493       0    8495    8496
    8496       0    8498    8499    8499       0    8501    8502    8502       0
    8504    8505    8505       0    8507    8508    8508       0    8510    8511
    8511       0    8513    8514    8514       0    8516    8517    8517       0
    8519    8520    8520       0    8522    8523    8523       0    8525    8526
    8526       0    8528    8529    8529       0    8531    8532    8532       0
    8534    8535    8535       0    8537    8538    8538       0    8540    8541
    8541       0    8543    8544    8544       0    8546    8547    8547       0
    8549    8550    8550       0    8552    8553    8553       0    8555    8556
    8556       0    8558    8559    8559       0    8561    8562    8562       0
    8564    8565    8565       0    8567    8568    8568       0    8570    8571
    8571       0    8573    8574    8574       0    8576    8577    8577       0
    8579    8580    8580       0    8582    8583    8583       0    8585    8586
    8586       0    8588    8589    8589       0    8591    8592    8592       0
    8594    8595    8595       0    8597    8598    8598       0    8600    8601
    8601       0    8603    8604    8604       0    8606    8607    8607       0
    8609    8610    8610       0    8612    8613    8613       0    8615    8616
    8616       0    8618    8619    8619       0    8621    8622    8622       0
    8624    8625    8625       0    8627    8628    8628       0    8630    8631
    8631       0    8633    8634    8634       0    8636    8637    8637       0
    8639    8640    8640       0    8642    8643    8643       0    8645    8646
    8646       0    8648    8649    8649       0    8651    8652    8652       0
    8654    8655    8655       0    8657    8658    8658       0    8660    8661
    8661       0    8663    8664    8664       0    8666    8667    8667       0
    8669    8670    8670       0    8672    8673    8673       0    8675    8676
    8676       0    8678    8679    8679       0    8681    8682    8682       0
    8684    8685    8685       0    8687    8688    8688       0    8690    8691
    8691       0    8693    8694    8694       0    8696    8697    8697       0
    8699    8700    8700       0    8702    8703    8703       0    8705    8706
    8706       0    8708    8709    8709       0    8711    8712    8712       0
    8714    8715    8715       0    8717    8718    8718       0    8720    8721
    8721       0    8723    8724    8724       0    8726    8727    8727       0
    8729    8730    8730       0    8732    8733    8733       0    8735    8736
    8736       0    8738    8739    8739       0    8741    8742    8742       0
    8744    8745    8745       0    8747    8748    8748       0    8750    8751
    8751       0    8753    8754    8754       0    8756    8757    8757       0
    8759    8760    8760       0    8762    8763    8763       0    8765    8766
    8766       0    8768    8769    8769       0    8771    8772    8772       0
    8774    8775    8775       0    8777    8778    8778       0    8780    8781
    8781       0    8783    8784    8784       0    8786    8787    8787       0
    8789    8790    8790       0    8792    8793    8793       0    8795    8796
    8796       0    8798    8799    8799       0    8801    8802    8802       0
    8804    8805    8805       0    8807    8808    8808       0    8810    8811
    8811       0    8813    8814    8814       0    8816    8817    8817       0
    8819    8820    8820       0    8822    8823    8823       0    8825    8826
    8826       0    8828    8829    8829       0    8831    8832    8832       0
    8834    8835    8835       0    8837    8838    8838       0    8840    8841
    8841       0    8843    8844    8844       0    8846    8847    8847       0
    8849    8850    8850       0    8852    8853    8853       0    8855    8856
    8856       0    8858    8859    8859       0    8861    8862    8862       0
    8864    8865    8865       0    8867    8868    8868       0    8870    8871
    8871       0    8873    8874    8874       0    8876    8877    8877       0
    8879    8880    8880       0    8882    8883    8883       0    8885    8886
    8886       0    8888    8889    8889       0    8891    8892    8892       0
    8894    8895    8895       0    8897    8898    8898       0    8900    8901
    8901       0    8903    8904    8904       0    8906    8907    8907       0
    8909    8910    8910       0    8912    8913    8913       0    8915    8916
    8916       0    8918    8919    8919       0    8921    8922    8922       0
    8924    8925    8925       0    8927    8928    8928       0    8930    8931
    8931       0    8933    8934    8934       0    8936    8937    8937       0
    8939    8940    8940       0    8942    8943    8943       0    8945    8946
    8946       0    8948    8949    8949       0    8951    8952    8952       0
    8954    8955    8955       0    8957    8958    8958       0    8960    8961
    8961       0    8963    8964    8964       0    8966    8967    8967       0
    8969    8970    8970       0    8972    8973    8973       0    8975    8976
    8976       0    8978    8979    8979       0    8981    8982    8982       0
    8984    8985    8985       0    8987    8988    8988       0    8990    8991
    8991       0    8993    8994    8994       0    8996    8997    8997       0
    8999    9000    9000       0    9002    9003    9003       0    9005    9006
    9006       0    9008    9009    9009       0    9011    9012    9012       0
    9014    9015    9015       0    9017    9018    9018       0    9020    9021
    9021       0    9023    9024    9024       0    9026    9027    9027       0
    9029    9030    9030       0    9032    9033    9033       0    9035    9036
    9036       0    9038    9039    9039       0    9041    9042    9042       0
    9044    9045    9045       0    9047    9048    9048       0    9050    9051
    9051       0    9053    9054    9054       0    9056    9057    9057       0
    9059    9060    9060       0    9062    9063    9063       0    9065    9066
    9066       0    9068    9069    9069       0    9071    9072    9072       0
    9074    9075    9075       0    9077    9078    9078       0    9080    9081
    9081       0    9083    9084    9084       0    9086    9087    9087       0
    9089    9090    9090       0    9092    9093    9093       0    9095    9096
    9096       0    9098    9099    9099       0    9101    9102    9102       0
    9104    9105    9105       0    9107    9108    9108       0    9110    9111
    9111       0    9113    9114    9114       0    9116    9117    9117       0
    9119    9120    9120       0    9122    9123    9123       0    9125    9126
    9126       0    9128    9129    9129       0    9131    9132    9132       0
    9134    9135    9135       0    9137    9138    9138       0    9140    9141
    9141       0    9143    9144    9144       0    9146    9147    9147       0
    9149    9150    9150       0    9152    9153    9153       0    9155    9156
    9156       0    9158    9159    9159       0    9161    9162    9162       0
    9164    9165    9165       0    9167    9168    9168       0    9170    9171
    9171       0    9173    9174    9174       0    9176    9177    9177       0
    9179    9180    9180       0    9182    9183    9183       0    9185    9186
    9186       0    9188    9189    9189       0    9191    9192    9192       0
    9194    9195    9195       0    9197    9198    9198       0    9200    9201
    9201       0    9203    9204    9204       0    9206    9207    9207       0
    9209    9210    9210       0    9212    9213    9213       0    9215    9216
    9216       0    9218    9219    9219       0    9221    9222    9222       0
    9224    9225    9225       0    9227    9228    9228       0    9230    9231
    9231       0    9233    9234    9234       0    9236    9237    9237       0
    9239    9240    9240       0    9242    9243    9243       0    9245    9246
    9246       0    9248    9249    9249       0    9251    9252    9252       0
    9254    9255    9255       0    9257    9258    9258       0    9260    9261
    9261       0    9263    9264    9264       0    9266    9267    9267       0
    9269    9270    9270       0    9272    9273    9273       0    9275    9276
    9276       0    9278    9279    9279       0    9281    9282    9282       0
    9284    9285    9285       0    9287    9288    9288       0    9290    9291
    9291       0    9293    9294    9294       0    9296    9297    9297       0
    9299    9300    9300       0    9302    9303    9303       0    9305    9306
    9306       0    9308    9309    9309       0    9311    9312    9312       0
    9314    9315    9315       0    9317    9318    9318       0    9320    9321
    9321       0    9323    9324    9324       0    9326    9327    9327       0
    9329    9330    9330       0    9332    9333    9333       0    9335    9336
    9336       0    9338    9339    9339       0    9341    9342    9342       0
    9344    9345    9345       0    9347    9348    9348       0    9350    9351
    9351       0    9353    9354    9354       0    9356    9357    9357       0
    9359    9360    9360       0    9362    9363    9363       0    9365    9366
    9366       0    9368    9369    9369       0    9371    9372    9372       0
    9374    9375    9375       0    9377    9378    9378       0    9380    9381
    9381       0    9383    9384    9384       0    9386    9387    9387       0
    9389    9390    9390       0    9392    9393    9393       0    9395    9396
    9396       0    9398    9399    9399       0    9401    9402    9402       0
    9404    9405    9405       0    9407    9408    9408       0    9410    9411
    9411       0    9413    9414    9414       0    9416    9417    9417       0
    9419    9420    9420       0    9422    9423    9423       0    9425    9426
    9426       0    9428    9429    9429       0    9431    9432    9432       0
    9434    9435    9435       0    9437    9438    9438       0    9440    9441
    9441       0    9443    9444    9444       0    9446    9447    9447       0
    9449    9450    9450       0    9452    9453    9453       0    9455    9456
    9456       0    9458    9459    9459       0    9461    9462    9462       0
    9464    9465    9465       0    9467    9468    9468       0    9470    9471
    9471       0    9473    9474    9474       0    9476    9477    9477       0
    9479    9480    9480       0    9482    9483    9483       0    9485    9486
    9486       0    9488    9489    9489       0    9491    9492    9492       0
    9494    9495    9495       0    9497    9498    9498       0    9500    9501
    9501       0    9503    9504    9504       0    9506    9507    9507       0
    9509    9510    9510       0    9512    9513    9513       0    9515    9516
    9516       0    9518    9519    9519       0    9521    9522    9522       0
    9524    9525    9525       0    9527    9528    9528       0    9530    9531
    9531       0    9533    9534    9534       0    9536    9537    9537       0
    9539    9540    9540       0    9542    9543    9543       0    9545    9546
    9546       0    9548    9549    9549       0    9551    9552    9552       0
    9554    9555    9555       0    9557    9558    9558       0    9560    9561
    9561       0    9563    9564    9564       0    9566    9567    9567       0
    9569    9570    9570       0    9572    9573    9573       0    9575    9576
    9576       0    9578    9579    9579       0    9581    9582    9582       0
    9584    9585    9585       0    9587    9588    9588       0    9590    9591
    9591       0    9593    9594    9594       0    9596    9597    9597       0
    9599    9600    9600       0    9602    9603    9603       0    9605    9606
    9606       0    9608    9609    9609       0    9611    9612    9612       0
    9614    9615    9615       0    9617    9618    9618       0    9620    9621
    9621       0    9623    9624    9624       0    9626    9627    9627       0
    9629    9630    9630       0    9632    9633    9633       0    9635    9636
    9636       0    9638    9639    9639       0    9641    9642    9642       0
    9644    9645    9645       0    9647    9648    9648       0    9650    9651
    9651       0    9653    9654    9654       0    9656    9657    9657       0
    9659    9660    9660       0    9662    9663    9663       0    9665    9666
    9666       0    9668    9669    9669       0    9671    9672    9672       0
    9674    9675    9675       0    9677    9678    9678       0    9680    9681
    9681       0    9683    9684    9684       0    9686    9687    9687       0
    9689    9690    9690       0    9692    9693    9693       0    9695    9696
    9696       0    9698    9699    9699       0    9701    9702    9702       0
    9704    9705    9705       0    9707    9708    9708       0    9710    9711
    9711       0    9713    9714    9714       0    9716    9717    9717       0
    9719    9720    9720       0    9722    9723    9723       0    9725    9726
    9726       0    9728    9729    9729       0    9731    9732    9732       0
    9734    9735    9735       0    9737    9738    9738       0    9740    9741
    9741       0    9743    9744    9744       0    9746    9747    9747       0
    9749    9750    9750       0    9752    9753    9753       0    9755    9756
    9756       0    9758    9759    9759       0    9761    9762    9762       0
    9764    9765    9765       0    9767    9768    9768       0    9770    9771
    9771       0    9773    9774    9774       0    9776    9777    9777       0
    9779    9780    9780       0    9782    9783    9783       0    9785    9786
    9786       0    9788    9789    9789       0    9791    9792    9792       0
    9794    9795    9795       0    9797    9798    9798       0    9800    9801
    9801       0    9803    9804    9804       0    9806    9807    9807       0
    9809    9810    9810       0    9812    9813    9813       0    9815    9816
    9816       0    9818    9819    9819       0    9821    9822    9822       0
    9824    9825    9825       0    9827    9828    9828       0    9830    9831
    9831       0    9833    9834    9834       0    9836    9837    9837       0
    9839    9840    9840       0    9842    9843    9843       0    9845    9846
    9846       0    9848    9849    9849       0    9851    9852    9852       0
    9854    9855    9855       0    9857    9858    9858       0    9860    9861
    9861       0    9863    9864    9864       0    9866    9867    9867       0
    9869    9870    9870       0    9872    9873    9873       0    9875    9876
    9876       0    9878    9879    9879       0    9881    9882    9882       0
    9884    9885    9885       0    9887    9888    9888       0    9890    9891
    9891       0    9893    9894    9894       0    9896    9897    9897       0
    9899    9900    9900       0    9902    9903    9903       0    9905    9906
    9906       0    9908    9909    9909       0    9911    9912    9912       0
    9914    9915    9915       0    9917    9918    9918       0    9920    9921
    9921       0    9923    9924    9924       0    9926    9927    9927       0
    9929    9930    9930       0    9932    9933    9933       0    9935    9936
    9936       0    9938    9939    9939       0    9941    9942    9942       0
    9944    9945    9945       0    9947    9948    9948       0    9950    9951
    9951       0    9953    9954    9954       0    9956    9957    9957       0
    9959    9960    9960       0    9962    9963    9963       0    9965    9966
    9966       0    9968    9969    9969       0    9971    9972    9972       0
    9974    9975    9975       0    9977    9978    9978       0    9980    9981
    9981       0    9983    9984    9984       0    9986    9987    9987       0
    9989    9990    9990       0    9992    9993    9993       0    9995    9996
    9996       0    9998    9999    9999       0   10001   10002   10002       0
   10004   10005   10005       0   10007   10008   10008       0   10010   10011
   10011       0   10013   10014   10014       0   10016   10017   10017       0
   10019   10020   10020       0   10022   10023   10023       0   10025   10026
   10026       0   10028   10029   10029       0   10031   10032   10032       0
   10034   10035   10035       0   10037   10038   10038       0   10040   10041
   10041       0   10043   10044   10044       0   10046   10047   10047       0
   10049   10050   10050       0   10052   10053   10053       0   10055   10056
   10056       0   10058   10059   10059       0   10061   10062   10062       0
   10064   10065   10065       0   10067   10068   10068       0   10070   10071
   10071       0   10073   10074   10074       0   10076   10077   10077       0
   10079   10080   10080       0   10082   10083   10083       0   10085   10086
   10086       0   10088   10089   10089       0   10091   10092   10092       0
   10094   10095   10095       0   10097   10098   10098       0   10100   10101
   10101       0   10103   10104   10104       0   10106   10107   10107       0
   10109   10110   10110       0   10112   10113   10113       0   10115   10116
   10116       0   10118   10119   10119       0   10121   10122   10122       0
   10124   10125   10125       0   10127   10128   10128       0   10130   10131
   10131       0   10133   10134   10134       0   10136   10137   10137       0
   10139   10140   10140       0   10142   10143   10143       0   10145   10146
   10146       0   10148   10149   10149       0   10151   10152   10152       0
   10154   10155   10155       0   10157   10158   10158       0   10160   10161
   10161       0   10163   10164   10164       0   10166   10167   10167       0
   10169   10170   10170       0   10172   10173   10173       0   10175   10176
   10176       0   10178   10179   10179       0   10181   10182   10182       0
   10184   10185   10185       0   10187   10188   10188       0   10190   10191
   10191       0   10193   10194   10194       0   10196   10197   10197       0
   10199   10200   10200       0   10202   10203   10203       0   10205   10206
   10206       0   10208   10209   10209       0   10211   10212   10212       0
   10214   10215   10215       0   10217   10218   10218       0   10220   10221
   10221       0   10223   10224   10224       0   10226   10227   10227       0
   10229   10230   10230       0   10232   10233   10233       0   10235   10236
   10236       0   10238   10239   10239       0   10241   10242   10242       0
   10244   10245   10245       0   10247   10248   10248       0   10250   10251
   10251       0   10253   10254   10254       0   10256   10257   10257       0
   10259   10260   10260       0   10262   10263   10263       0   10265   10266
   10266       0   10268   10269   10269       0   10271   10272   10272       0
   10274   10275   10275       0   10277   10278   10278       0   10280   10281
   10281       0   10283   10284   10284       0   10286   10287   10287       0
   10289   10290   10290       0   10292   10293   10293       0   10295   10296
   10296       0   10298   10299   10299       0   10301   10302   10302       0
   10304   10305   10305       0   10307   10308   10308       0   10310   10311
   10311       0   10313   10314   10314       0   10316   10317   10317       0
   10319   10320   10320       0   10322   10323   10323       0   10325   10326
   10326       0   10328   10329   10329       0   10331   10332   10332       0
   10334   10335   10335       0   10337   10338   10338       0   10340   10341
   10341       0   10343   10344   10344       0   10346   10347   10347       0
   10349   10350   10350       0   10352   10353   10353       0   10355   10356
   10356       0   10358   10359   10359       0   10361   10362   10362       0
   10364   10365   10365       0   10367   10368   10368       0   10370   10371
   10371       0   10373   10374   10374       0   10376   10377   10377       0
   10379   10380   10380       0   10382   10383   10383       0   10385   10386
   10386       0   10388   10389   10389       0   10391   10392   10392       0
   10394   10395   10395       0   10397   10398   10398       0   10400   10401
   10401       0   10403   10404   10404       0   10406   10407   10407       0
   10409   10410   10410       0   10412   10413   10413       0   10415   10416
   10416       0   10418   10419   10419       0   10421   10422   10422       0
   10424   10425   10425       0   10427   10428   10428       0   10430   10431
   10431       0   10433   10434   10434       0   10436   10437   10437       0
   10439   10440   10440       0   10442   10443   10443       0   10445   10446
   10446       0   10448   10449   10449       0   10451   10452   10452       0
   10454   10455   10455       0   10457   10458   10458       0   10460   10461
   10461       0   10463   10464   10464       0   10466   10467   10467       0
   10469   10470   10470       0   10472   10473   10473       0   10475   10476
   10476       0   10478   10479   10479       0   10481   10482   10482       0
   10484   10485   10485       0   10487   10488   10488       0   10490   10491
   10491       0   10493   10494   10494       0   10496   10497   10497       0
   10499   10500   10500       0   10502   10503   10503       0   10505   10506
   10506       0   10508   10509   10509       0   10511   10512   10512       0
   10514   10515   10515       0   10517   10518   10518       0   10520   10521
   10521       0   10523   10524   10524       0   10526   10527   10527       0
   10529   10530   10530       0   10532   10533   10533       0   10535   10536
   10536       0   10538   10539   10539       0   10541   10542   10542       0
   10544   10545   10545       0   10547   10548   10548       0   10550   10551
   10551       0   10553   10554   10554       0   10556   10557   10557       0
   10559   10560   10560       0   10562   10563   10563       0   10565   10566
   10566       0   10568   10569   10569       0   10571   10572   10572       0
   10574   10575   10575       0   10577   10578   10578       0   10580   10581
   10581       0   10583   10584   10584       0   10586   10587   10587       0
   10589   10590   10590       0   10592   10593   10593       0   10595   10596
   10596       0   10598   10599   10599       0   10601   10602   10602       0
   10604   10605   10605       0   10607   10608   10608       0   10610   10611
   10611       0   10613   10614   10614       0   10616   10617   10617       0
   10619   10620   10620       0   10622   10623   10623       0   10625   10626
   10626       0   10628   10629   10629       0   10631   10632   10632       0
   10634   10635   10635       0   10637   10638   10638       0   10640   10641
   10641       0   10643   10644   10644       0   10646   10647   10647       0
   10649   10650   10650       0   10652   10653   10653       0   10655   10656
   10656       0   10658   10659   10659       0   10661   10662   10662       0
   10664   10665   10665       0   10667   10668   10668       0   10670   10671
   10671       0   10673   10674   10674       0   10676   10677   10677       0
   10679   10680   10680       0   10682   10683   10683       0   10685   10686
   10686       0   10688   10689   10689       0   10691   10692   10692       0
   10694   10695   10695       0   10697   10698   10698       0   10700   10701
   10701       0   10703   10704   10704       0   10706   10707   10707       0
   10709   10710   10710       0   10712   10713   10713       0   10715   10716
   10716       0   10718   10719   10719       0   10721   10722   10722       0
   10724   10725   10725       0   10727   10728   10728       0   10730   10731
   10731       0   10733   10734   10734       0   10736   10737   10737       0
   10739   10740   10740       0   10742   10743   10743       0   10745   10746
   10746       0   10748   10749   10749       0   10751   10752   10752       0
   10754   10755   10755       0   10757   10758   10758       0   10760   10761
   10761       0   10763   10764   10764       0   10766   10767   10767       0
   10769   10770   10770       0   10772   10773   10773       0   10775   10776
   10776       0   10778   10779   10779       0   10781   10782   10782       0
   10784   10785   10785       0   10787   10788   10788       0   10790   10791
   10791       0   10793   10794   10794       0   10796   10797   10797       0
   10799   10800   10800       0   10802   10803   10803       0   10805   10806
   10806       0   10808   10809   10809       0   10811   10812   10812       0
   10814   10815   10815       0   10817   10818   10818       0   10820   10821
   10821       0   10823   10824   10824       0   10826   10827   10827       0
   10829   10830   10830       0   10832   10833   10833       0   10835   10836
   10836       0   10838   10839   10839       0   10841   10842   10842       0
   10844   10845   10845       0   10847   10848   10848       0   10850   10851
   10851       0   10853   10854   10854       0   10856   10857   10857       0
   10859   10860   10860       0   10862   10863   10863       0   10865   10866
   10866       0   10868   10869   10869       0   10871   10872   10872       0
   10874   10875   10875       0   10877   10878   10878       0   10880   10881
   10881       0   10883   10884   10884       0   10886   10887   10887       0
   10889   10890   10890       0   10892   10893   10893       0   10895   10896
   10896       0   10898   10899   10899       0   10901   10902   10902       0
   10904   10905   10905       0   10907   10908   10908       0   10910   10911
   10911       0   10913   10914   10914       0   10916   10917   10917       0
   10919   10920   10920       0   10922   10923   10923       0   10925   10926
   10926       0   10928   10929   10929       0   10931   10932   10932       0
   10934   10935   10935       0   10937   10938   10938       0   10940   10941
   10941       0   10943   10944   10944       0   10946   10947   10947       0
   10949   10950   10950       0   10952   10953   10953       0   10955   10956
   10956       0   10958   10959   10959       0   10961   10962   10962       0
   10964   10965   10965       0   10967   10968   10968       0   10970   10971
   10971       0   10973   10974   10974       0   10976   10977   10977       0
   10979   10980   10980       0   10982   10983   10983       0   10985   10986
   10986       0   10988   10989   10989       0   10991   10992   10992       0
   10994   10995   10995       0   10997   10998   10998       0   11000   11001
   11001       0   11003   11004   11004       0   11006   11007   11007       0
   11009   11010   11010       0   11012   11013   11013       0   11015   11016
   11016       0   11018   11019   11019       0   11021   11022   11022       0
   11024   11025   11025       0   11027   11028   11028       0   11030   11031
   11031       0   11033   11034   11034       0   11036   11037   11037       0
   11039   11040   11040       0   11042   11043   11043       0   11045   11046
   11046       0   11048   11049   11049       0   11051   11052   11052       0
   11054   11055   11055       0   11057   11058   11058       0   11060   11061
   11061       0   11063   11064   11064       0   11066   11067   11067       0
   11069   11070   11070       0   11072   11073   11073       0   11075   11076
   11076       0   11078   11079   11079       0   11081   11082   11082       0
   11084   11085   11085       0   11087   11088   11088       0   11090   11091
   11091       0   11093   11094   11094       0   11096   11097   11097       0
   11099   11100   11100       0   11102   11103   11103       0   11105   11106
   11106       0   11108   11109   11109       0   11111   11112   11112       0
   11114   11115   11115       0   11117   11118   11118       0   11120   11121
   11121       0   11123   11124   11124       0   11126   11127   11127       0
   11129   11130   11130       0   11132   11133   11133       0   11135   11136
   11136       0   11138   11139   11139       0   11141   11142   11142       0
   11144   11145   11145       0   11147   11148   11148       0   11150   11151
   11151       0   11153   11154   11154       0   11156   11157   11157       0
   11159   11160   11160       0   11162   11163   11163       0   11165   11166
   11166       0   11168   11169   11169       0   11171   11172   11172       0
   11174   11175   11175       0   11177   11178   11178       0   11180   11181
   11181       0   11183   11184   11184       0   11186   11187   11187       0
   11189   11190   11190       0   11192   11193   11193       0   11195   11196
   11196       0   11198   11199   11199       0   11201   11202   11202       0
   11204   11205   11205       0   11207   11208   11208       0   11210   11211
   11211       0   11213   11214   11214       0   11216   11217   11217       0
   11219   11220   11220       0   11222   11223   11223       0   11225   11226
   11226       0   11228   11229   11229       0   11231   11232   11232       0
   11234   11235   11235       0   11237   11238   11238       0   11240   11241
   11241       0   11243   11244   11244       0   11246   11247   11247       0
   11249   11250   11250       0   11252   11253   11253       0   11255   11256
   11256       0   11258   11259   11259       0   11261   11262   11262       0
   11264   11265   11265       0   11267   11268   11268       0   11270   11271
   11271       0   11273   11274   11274       0   11276   11277   11277       0
   11279   11280   11280       0   11282   11283   11283       0   11285   11286
   11286       0   11288   11289   11289       0   11291   11292   11292       0
   11294   11295   11295       0   11297   11298   11298       0   11300   11301
   11301       0   11303   11304   11304       0   11306   11307   11307       0
   11309   11310   11310       0   11312   11313   11313       0   11315   11316
   11316       0   11318   11319   11319       0   11321   11322   11322       0
   11324   11325   11325       0   11327   11328   11328       0   11330   11331
   11331       0   11333   11334   11334       0   11336   11337   11337       0
   11339   11340   11340       0   11342   11343   11343       0   11345   11346
   11346       0   11348   11349   11349       0   11351   11352   11352       0
   11354   11355   11355       0   11357   11358   11358       0   11360   11361
   11361       0   11363   11364   11364       0   11366   11367   11367       0
   11369   11370   11370       0   11372   11373   11373       0   11375   11376
   11376       0   11378   11379   11379       0   11381   11382   11382       0
   11384   11385   11385       0   11387   11388   11388       0   11390   11391
   11391       0   11393   11394   11394       0   11396   11397   11397       0
   11399   11400   11400       0   11402   11403   11403       0   11405   11406
   11406       0   11408   11409   11409       0   11411   11412   11412       0
   11414   11415   11415       0   11417   11418   11418       0   11420   11421
   11421       0   11423   11424   11424       0   11426   11427   11427       0
   11429   11430   11430       0   11432   11433   11433       0   11435   11436
   11436       0   11438   11439   11439       0   11441   11442   11442       0
   11444   11445   11445       0   11447   11448   11448       0   11450   11451
   11451       0   11453   11454   11454       0   11456   11457   11457       0
   11459   11460   11460       0   11462   11463   11463       0   11465   11466
   11466       0   11468   11469   11469       0   11471   11472   11472       0
   11474   11475   11475       0   11477   11478   11478       0   11480   11481
   11481       0   11483   11484   11484       0   11486   11487   11487       0
   11489   11490   11490       0   11492   11493   11493       0   11495   11496
   11496       0   11498   11499   11499       0   11501   11502   11502       0
   11504   11505   11505       0   11507   11508   11508       0   11510   11511
   11511       0   11513   11514   11514       0   11516   11517   11517       0
   11519   11520   11520       0   11522   11523   11523       0   11525   11526
   11526       0   11528   11529   11529       0   11531   11532   11532       0
   11534   11535   11535       0   11537   11538   11538       0   11540   11541
   11541       0   11543   11544   11544       0   11546   11547   11547       0
   11549   11550   11550       0   11552   11553   11553       0   11555   11556
   11556       0   11558   11559   11559       0   11561   11562   11562       0
   11564   11565   11565       0   11567   11568   11568       0   11570   11571
   11571       0   11573   11574   11574       0   11576   11577   11577       0
   11579   11580   11580       0   11582   11583   11583       0   11585   11586
   11586       0   11588   11589   11589       0   11591   11592   11592       0
   11594   11595   11595       0   11597   11598   11598       0   11600   11601
   11601       0   11603   11604   11604       0   11606   11607   11607       0
   11609   11610   11610       0   11612   11613   11613       0   11615   11616
   11616       0   11618   11619   11619       0   11621   11622   11622       0
   11624   11625   11625       0   11627   11628   11628       0   11630   11631
   11631       0   11633   11634   11634       0   11636   11637   11637       0
   11639   11640   11640       0   11642   11643   11643       0   11645   11646
   11646       0   11648   11649   11649       0   11651   11652   11652       0
   11654   11655   11655       0   11657   11658   11658       0   11660   11661
   11661       0   11663   11664   11664       0   11666   11667   11667       0
   11669   11670   11670       0   11672   11673   11673       0   11675   11676
   11676       0   11678   11679   11679       0   11681   11682   11682       0
   11684   11685   11685       0   11687   11688   11688       0   11690   11691
   11691       0   11693   11694   11694       0   11696   11697   11697       0
   11699   11700   11700       0   11702   11703   11703       0   11705   11706
   11706       0   11708   11709   11709       0   11711   11712   11712       0
   11714   11715   11715       0   11717   11718   11718       0   11720   11721
   11721       0   11723   11724   11724       0   11726   11727   11727       0
   11729   11730   11730       0   11732   11733   11733       0   11735   11736
   11736       0   11738   11739   11739       0   11741   11742   11742       0
   11744   11745   11745       0   11747   11748   11748       0   11750   11751
   11751       0   11753   11754   11754       0   11756   11757   11757       0
   11759   11760   11760       0   11762   11763   11763       0   11765   11766
   11766       0   11768   11769   11769       0   11771   11772   11772       0
   11774   11775   11775       0   11777   11778   11778       0   11780   11781
   11781       0   11783   11784   11784       0   11786   11787   11787       0
   11789   11790   11790       0   11792   11793   11793       0   11795   11796
   11796       0   11798   11799   11799       0   11801   11802   11802       0
   11804   11805   11805       0   11807   11808   11808       0   11810   11811
   11811       0   11813   11814   11814       0   11816   11817   11817       0
   11819   11820   11820       0   11822   11823   11823       0   11825   11826
   11826       0   11828   11829   11829       0   11831   11832   11832       0
   11834   11835   11835       0   11837   11838   11838       0   11840   11841
   11841       0   11843   11844   11844       0   11846   11847   11847       0
   11849   11850   11850       0   11852   11853   11853       0   11855   11856
   11856       0   11858   11859   11859       0   11861   11862   11862       0
   11864   11865   11865       0   11867   11868   11868       0   11870   11871
   11871       0   11873   11874   11874       0   11876   11877   11877       0
   11879   11880   11880       0   11882   11883   11883       0   11885   11886
   11886       0   11888   11889   11889       0   11891   11892   11892       0
   11894   11895   11895       0   11897   11898   11898       0   11900   11901
   11901       0   11903   11904   11904       0   11906   11907   11907       0
   11909   11910   11910       0   11912   11913   11913       0   11915   11916
   11916       0   11918   11919   11919       0   11921   11922   11922       0
   11924   11925   11925       0   11927   11928   11928       0   11930   11931
   11931       0   11933   11934   11934       0   11936   11937   11937       0
   11939   11940   11940       0   11942   11943   11943       0   11945   11946
   11946       0   11948   11949   11949       0   11951   11952   11952       0
   11954   11955   11955       0   11957   11958   11958       0   11960   11961
   11961       0   11963   11964   11964       0   11966   11967   11967       0
   11969   11970   11970       0   11972   11973   11973       0   11975   11976
   11976       0   11978   11979   11979       0   11981   11982   11982       0
   11984   11985   11985       0   11987   11988   11988       0   11990   11991
   11991       0   11993   11994   11994       0   11996   11997   11997       0
   11999   12000   12000       0   12002   12003   12003       0   12005   12006
   12006       0   12008   12009   12009       0   12011   12012   12012       0
   12014   12015   12015       0   12017   12018   12018       0   12020   12021
   12021       0   12023   12024   12024       0   12026   12027   12027       0
   12029   12030   12030       0   12032   12033   12033       0   12035   12036
   12036       0   12038   12039   12039       0   12041   12042   12042       0
   12044   12045   12045       0   12047   12048   12048       0   12050   12051
   12051       0   12053   12054   12054       0   12056   12057   12057       0
   12059   12060   12060       0   12062   12063   12063       0   12065   12066
   12066       0   12068   12069   12069       0   12071   12072   12072       0
   12074   12075   12075       0   12077   12078   12078       0   12080   12081
   12081       0   12083   12084   12084       0   12086   12087   12087       0
   12089   12090   12090       0   12092   12093   12093       0   12095   12096
   12096       0   12098   12099   12099       0   12101   12102   12102       0
   12104   12105   12105       0   12107   12108   12108       0   12110   12111
   12111       0   12113   12114   12114       0   12116   12117   12117       0
   12119   12120   12120       0   12122   12123   12123       0   12125   12126
   12126       0   12128   12129   12129       0   12131   12132   12132       0
   12134   12135   12135       0   12137   12138   12138       0   12140   12141
   12141       0   12143   12144   12144       0   12146   12147   12147       0
   12149   12150   12150       0   12152   12153   12153       0   12155   12156
   12156       0   12158   12159   12159       0   12161   12162   12162       0
   12164   12165   12165       0   12167   12168   12168       0   12170   12171
   12171       0   12173   12174   12174       0   12176   12177   12177       0
   12179   12180   12180       0   12182   12183   12183       0   12185   12186
   12186       0   12188   12189   12189       0   12191   12192   12192       0
   12194   12195   12195       0   12197   12198   12198       0   12200   12201
   12201       0   12203   12204   12204       0   12206   12207   12207       0
   12209   12210   12210       0   12212   12213   12213       0   12215   12216
   12216       0   12218   12219   12219       0   12221   12222   12222       0
   12224   12225   12225       0   12227   12228   12228       0   12230   12231
   12231       0   12233   12234   12234       0   12236   12237   12237       0
   12239   12240   12240       0   12242   12243   12243       0   12245   12246
   12246       0   12248   12249   12249       0   12251   12252   12252       0
   12254   12255   12255       0   12257   12258   12258       0   12260   12261
   12261       0   12263   12264   12264       0   12266   12267   12267       0
   12269   12270   12270       0   12272   12273   12273       0   12275   12276
   12276       0   12278   12279   12279       0   12281   12282   12282       0
   12284   12285   12285       0   12287   12288   12288       0   12290   12291
   12291       0   12293   12294   12294       0   12296   12297   12297       0
   12299   12300   12300       0   12302   12303   12303       0   12305   12306
   12306       0   12308   12309   12309       0   12311   12312   12312       0
   12314   12315   12315       0   12317   12318   12318       0   12320   12321
   12321       0   12323   12324   12324       0   12326   12327   12327       0
   12329   12330   12330       0   12332   12333   12333       0   12335   12336
   12336       0   12338   12339   12339       0   12341   12342   12342       0
   12344   12345   12345       0   12347   12348   12348       0   12350   12351
   12351       0   12353   12354   12354       0   12356   12357   12357       0
   12359   12360   12360       0   12362   12363   12363       0   12365   12366
   12366       0   12368   12369   12369       0   12371   12372   12372       0
   12374   12375   12375       0   12377   12378   12378       0   12380   12381
   12381       0   12383   12384   12384       0   12386   12387   12387       0
   12389   12390   12390       0   12392   12393   12393       0   12395   12396
   12396       0   12398   12399   12399       0   12401   12402   12402       0
   12404   12405   12405       0   12407   12408   12408       0   12410   12411
   12411       0   12413   12414   12414       0   12416   12417   12417       0
   12419   12420   12420       0   12422   12423   12423       0   12425   12426
   12426       0   12428   12429   12429       0   12431   12432   12432       0
   12434   12435   12435       0   12437   12438   12438       0   12440   12441
   12441       0   12443   12444   12444       0   12446   12447   12447       0
   12449   12450   12450       0   12452   12453   12453       0   12455   12456
   12456       0   12458   12459   12459       0   12461   12462   12462       0
   12464   12465   12465       0   12467   12468   12468       0   12470   12471
   12471       0   12473   12474   12474       0   12476   12477   12477       0
   12479   12480   12480       0   12482   12483   12483       0   12485   12486
   12486       0   12488   12489   12489       0   12491   12492   12492       0
   12494   12495   12495       0   12497   12498   12498       0   12500   12501
   12501       0   12503   12504   12504       0   12506   12507   12507       0
   12509   12510   12510       0   12512   12513   12513       0   12515   12516
   12516       0   12518   12519   12519       0   12521   12522   12522       0
   12524   12525   12525       0   12527   12528   12528       0   12530   12531
   12531       0   12533   12534   12534       0   12536   12537   12537       0
   12539   12540   12540       0   12542   12543   12543       0   12545   12546
   12546       0   12548   12549   12549       0   12551   12552   12552       0
   12554   12555   12555       0   12557   12558   12558       0   12560   12561
   12561       0   12563   12564   12564       0   12566   12567   12567       0
   12569   12570   12570       0   12572   12573   12573       0   12575   12576
   12576       0   12578   12579   12579       0   12581   12582   12582       0
   12584   12585   12585       0   12587   12588   12588       0   12590   12591
   12591       0   12593   12594   12594       0   12596   12597   12597       0
   12599   12600   12600       0   12602   12603   12603       0   12605   12606
   12606       0   12608   12609   12609       0   12611   12612   12612       0
   12614   12615   12615       0   12617   12618   12618       0   12620   12621
   12621       0   12623   12624   12624       0   12626   12627   12627       0
   12629   12630   12630       0   12632   12633   12633       0   12635   12636
   12636       0   12638   12639   12639       0   12641   12642   12642       0
   12644   12645   12645       0   12647   12648   12648       0   12650   12651
   12651       0   12653   12654   12654       0   12656   12657   12657       0
   12659   12660   12660       0   12662   12663   12663       0   12665   12666
   12666       0   12668   12669   12669       0   12671   12672   12672       0
   12674   12675   12675       0   12677   12678   12678       0   12680   12681
   12681       0   12683   12684   12684       0   12686   12687   12687       0
   12689   12690   12690       0   12692   12693   12693       0   12695   12696
   12696       0   12698   12699   12699       0   12701   12702   12702       0
   12704   12705   12705       0   12707   12708   12708       0   12710   12711
   12711       0   12713   12714   12714       0   12716   12717   12717       0
   12719   12720   12720       0   12722   12723   12723       0   12725   12726
   12726       0   12728   12729   12729       0   12731   12732   12732       0
   12734   12735   12735       0   12737   12738   12738       0   12740   12741
   12741       0   12743   12744   12744       0   12746   12747   12747       0
   12749   12750   12750       0   12752   12753   12753       0   12755   12756
   12756       0   12758   12759   12759       0   12761   12762   12762       0
   12764   12765   12765       0   12767   12768   12768       0   12770   12771
   12771       0   12773   12774   12774       0   12776   12777   12777       0
   12779   12780   12780       0   12782   12783   12783       0   12785   12786
   12786       0   12788   12789   12789       0   12791   12792   12792       0
   12794   12795   12795       0   12797   12798   12798       0   12800   12801
   12801       0   12803   12804   12804       0   12806   12807   12807       0
   12809   12810   12810       0   12812   12813   12813       0   12815   12816
   12816       0   12818   12819   12819       0   12821   12822   12822       0
   12824   12825   12825       0   12827   12828   12828       0   12830   12831
   12831       0   12833   12834   12834       0   12836   12837   12837       0
   12839   12840   12840       0   12842   12843   12843       0   12845   12846
   12846       0   12848   12849   12849       0   12851   12852   12852       0
   12854   12855   12855       0   12857   12858   12858       0   12860   12861
   12861       0   12863   12864   12864       0   12866   12867   12867       0
   12869   12870   12870       0   12872   12873   12873       0   12875   12876
   12876       0   12878   12879   12879       0   12881   12882   12882       0
   12884   12885   12885       0   12887   12888   12888       0   12890   12891
   12891       0   12893   12894   12894       0   12896   12897   12897       0
   12899   12900   12900       0   12902   12903   12903       0   12905   12906
   12906       0   12908   12909   12909       0   12911   12912   12912       0
   12914   12915   12915       0   12917   12918   12918       0   12920   12921
   12921       0   12923   12924   12924       0   12926   12927   12927       0
   12929   12930   12930       0   12932   12933   12933       0   12935   12936
   12936       0   12938   12939   12939       0   12941   12942   12942       0
   12944   12945   12945       0   12947   12948   12948       0   12950   12951
   12951       0   12953   12954   12954       0   12956   12957   12957       0
   12959   12960   12960       0   12962   12963   12963       0   12965   12966
   12966       0   12968   12969   12969       0   12971   12972   12972       0
   12974   12975   12975       0   12977   12978   12978       0   12980   12981
   12981       0   12983   12984   12984       0   12986   12987   12987       0
   12989   12990   12990       0   12992   12993   12993       0   12995   12996
   12996       0   12998   12999   12999       0   13001   13002   13002       0
   13004   13005   13005       0   13007   13008   13008       0   13010   13011
   13011       0   13013   13014   13014       0   13016   13017   13017       0
   13019   13020   13020       0   13022   13023   13023       0   13025   13026
   13026       0   13028   13029   13029       0   13031   13032   13032       0
   13034   13035   13035       0   13037   13038   13038       0   13040   13041
   13041       0   13043   13044   13044       0   13046   13047   13047       0
   13049   13050   13050       0   13052   13053   13053       0   13055   13056
   13056       0   13058   13059   13059       0   13061   13062   13062       0
   13064   13065   13065       0   13067   13068   13068       0   13070   13071
   13071       0   13073   13074   13074       0   13076   13077   13077       0
   13079   13080   13080       0   13082   13083   13083       0   13085   13086
   13086       0   13088   13089   13089       0   13091   13092   13092       0
   13094   13095   13095       0   13097   13098   13098       0   13100   13101
   13101       0   13103   13104   13104       0   13106   13107   13107       0
   13109   13110   13110       0   13112   13113   13113       0   13115   13116
   13116       0   13118   13119   13119       0   13121   13122   13122       0
   13124   13125   13125       0   13127   13128   13128       0   13130   13131
   13131       0   13133   13134   13134       0   13136   13137   13137       0
   13139   13140   13140       0   13142   13143   13143       0   13145   13146
   13146       0   13148   13149   13149       0   13151   13152   13152       0
   13154   13155   13155       0   13157   13158   13158       0   13160   13161
   13161       0   13163   13164   13164       0   13166   13167   13167       0
   13169   13170   13170       0   13172   13173   13173       0   13175   13176
   13176       0   13178   13179   13179       0   13181   13182   13182       0
   13184   13185   13185       0   13187   13188   13188       0   13190   13191
   13191       0   13193   13194   13194       0   13196   13197   13197       0
   13199   13200   13200       0   13202   13203   13203       0   13205   13206
   13206       0   13208   13209   13209       0   13211   13212   13212       0
   13214   13215   13215       0   13217   13218   13218       0   13220   13221
   13221       0   13223   13224   13224       0   13226   13227   13227       0
   13229   13230   13230       0   13232   13233   13233       0   13235   13236
   13236       0   13238   13239   13239       0   13241   13242   13242       0
   13244   13245   13245       0   13247   13248   13248       0   13250   13251
   13251       0   13253   13254   13254       0   13256   13257   13257       0
   13259   13260   13260       0   13262   13263   13263       0   13265   13266
   13266       0   13268   13269   13269       0   13271   13272   13272       0
   13274   13275   13275       0   13277   13278   13278       0   13280   13281
   13281       0   13283   13284   13284       0   13286   13287   13287       0
   13289   13290   13290       0   13292   13293   13293       0   13295   13296
   13296       0   13298   13299   13299       0   13301   13302   13302       0
   13304   13305   13305       0   13307   13308   13308       0   13310   13311
   13311       0   13313   13314   13314       0   13316   13317   13317       0
   13319   13320   13320       0   13322   13323   13323       0   13325   13326
   13326       0   13328   13329   13329       0   13331   13332   13332       0
   13334   13335   13335       0   13337   13338   13338       0   13340   13341
   13341       0   13343   13344   13344       0   13346   13347   13347       0
   13349   13350   13350       0   13352   13353   13353       0   13355   13356
   13356       0   13358   13359   13359       0   13361   13362   13362       0
   13364   13365   13365       0   13367   13368   13368       0   13370   13371
   13371       0   13373   13374   13374       0   13376   13377   13377       0
   13379   13380   13380       0   13382   13383   13383       0   13385   13386
   13386       0   13388   13389   13389       0   13391   13392   13392       0
   13394   13395   13395       0   13397   13398   13398       0   13400   13401
   13401       0   13403   13404   13404       0   13406   13407   13407       0
   13409   13410   13410       0   13412   13413   13413       0   13415   13416
   13416       0   13418   13419   13419       0   13421   13422   13422       0
   13424   13425   13425       0   13427   13428   13428       0   13430   13431
   13431       0   13433   13434   13434       0   13436   13437   13437       0
   13439   13440   13440       0   13442   13443   13443       0   13445   13446
   13446       0   13448   13449   13449       0   13451   13452   13452       0
   13454   13455   13455       0   13457   13458   13458       0   13460   13461
   13461       0   13463   13464   13464       0   13466   13467   13467       0
   13469   13470   13470       0   13472   13473   13473       0   13475   13476
   13476       0   13478   13479   13479       0   13481   13482   13482       0
   13484   13485   13485       0   13487   13488   13488       0   13490   13491
   13491       0   13493   13494   13494       0   13496   13497   13497       0
   13499   13500   13500       0   13502   13503   13503       0   13505   13506
   13506       0   13508   13509   13509       0   13511   13512   13512       0
   13514   13515   13515       0   13517   13518   13518       0   13520   13521
   13521       0   13523   13524   13524       0   13526   13527   13527       0
   13529   13530   13530       0   13532   13533   13533       0   13535   13536
   13536       0   13538   13539   13539       0   13541   13542   13542       0
   13544   13545   13545       0   13547   13548   13548       0   13550   13551
   13551       0   13553   13554   13554       0   13556   13557   13557       0
   13559   13560   13560       0   13562   13563   13563       0   13565   13566
   13566       0   13568   13569   13569       0   13571   13572   13572       0
   13574   13575   13575       0   13577   13578   13578       0   13580   13581
   13581       0   13583   13584   13584       0   13586   13587   13587       0
   13589   13590   13590       0   13592   13593   13593       0   13595   13596
   13596       0   13598   13599   13599       0   13601   13602   13602       0
   13604   13605   13605       0   13607   13608   13608       0   13610   13611
   13611       0   13613   13614   13614       0   13616   13617   13617       0
   13619   13620   13620       0   13622   13623   13623       0   13625   13626
   13626       0   13628   13629   13629       0   13631   13632   13632       0
   13634   13635   13635       0   13637   13638   13638       0   13640   13641
   13641       0   13643   13644   13644       0   13646   13647   13647       0
   13649   13650   13650       0   13652   13653   13653       0   13655   13656
   13656       0   13658   13659   13659       0   13661   13662   13662       0
   13664   13665   13665       0   13667   13668   13668       0   13670   13671
   13671       0   13673   13674   13674       0   13676   13677   13677       0
   13679   13680   13680       0   13682   13683   13683       0   13685   13686
   13686       0   13688   13689   13689       0   13691   13692   13692       0
   13694   13695   13695       0   13697   13698   13698       0   13700   13701
   13701       0   13703   13704   13704       0   13706   13707   13707       0
   13709   13710   13710       0   13712   13713   13713       0   13715   13716
   13716       0   13718   13719   13719       0   13721   13722   13722       0
   13724   13725   13725       0   13727   13728   13728       0   13730   13731
   13731       0   13733   13734   13734       0   13736   13737   13737       0
   13739   13740   13740       0   13742   13743   13743       0   13745   13746
   13746       0   13748   13749   13749       0   13751   13752   13752       0
   13754   13755   13755       0   13757   13758   13758       0   13760   13761
   13761       0   13763   13764   13764       0   13766   13767   13767       0
   13769   13770   13770       0   13772   13773   13773       0   13775   13776
   13776       0   13778   13779   13779       0   13781   13782   13782       0
   13784   13785   13785       0   13787   13788   13788       0   13790   13791
   13791       0   13793   13794   13794       0   13796   13797   13797       0
   13799   13800   13800       0   13802   13803   13803       0   13805   13806
   13806       0   13808   13809   13809       0   13811   13812   13812       0
   13814   13815   13815       0   13817   13818   13818       0   13820   13821
   13821       0   13823   13824   13824       0   13826   13827   13827       0
   13829   13830   13830       0   13832   13833   13833       0   13835   13836
   13836       0   13838   13839   13839       0   13841   13842   13842       0
   13844   13845   13845       0   13847   13848   13848       0   13850   13851
   13851       0   13853   13854   13854       0   13856   13857   13857       0
   13859   13860   13860       0   13862   13863   13863       0   13865   13866
   13866       0   13868   13869   13869       0   13871   13872   13872       0
   13874   13875   13875       0   13877   13878   13878       0   13880   13881
   13881       0   13883   13884   13884       0   13886   13887   13887       0
   13889   13890   13890       0   13892   13893   13893       0   13895   13896
   13896       0   13898   13899   13899       0   13901   13902   13902       0
   13904   13905   13905       0   13907   13908   13908       0   13910   13911
   13911       0   13913   13914   13914       0   13916   13917   13917       0
   13919   13920   13920       0   13922   13923   13923       0   13925   13926
   13926       0   13928   13929   13929       0   13931   13932   13932       0
   13934   13935   13935       0   13937   13938   13938       0   13940   13941
   13941       0   13943   13944   13944       0   13946   13947   13947       0
   13949   13950   13950       0   13952   13953   13953       0   13955   13956
   13956       0   13958   13959   13959       0   13961   13962   13962       0
   13964   13965   13965       0   13967   13968   13968       0   13970   13971
   13971       0   13973   13974   13974       0   13976   13977   13977       0
   13979   13980   13980       0   13982   13983   13983       0   13985   13986
   13986       0   13988   13989   13989       0   13991   13992   13992       0
   13994   13995   13995       0   13997   13998   13998       0   14000   14001
   14001       0   14003   14004   14004       0   14006   14007   14007       0
   14009   14010   14010       0   14012   14013   14013       0   14015   14016
   14016       0   14018   14019   14019       0   14021   14022   14022       0
   14024   14025   14025       0   14027   14028   14028       0   14030   14031
   14031       0   14033   14034   14034       0   14036   14037   14037       0
   14039   14040   14040       0   14042   14043   14043       0   14045   14046
   14046       0   14048   14049   14049       0   14051   14052   14052       0
   14054   14055   14055       0   14057   14058   14058       0   14060   14061
   14061       0   14063   14064   14064       0   14066   14067   14067       0
   14069   14070   14070       0   14072   14073   14073       0   14075   14076
   14076       0   14078   14079   14079       0   14081   14082   14082       0
   14084   14085   14085       0   14087   14088   14088       0   14090   14091
   14091       0   14093   14094   14094       0   14096   14097   14097       0
   14099   14100   14100       0   14102   14103   14103       0   14105   14106
   14106       0   14108   14109   14109       0   14111   14112   14112       0
   14114   14115   14115       0   14117   14118   14118       0   14120   14121
   14121       0   14123   14124   14124       0   14126   14127   14127       0
   14129   14130   14130       0   14132   14133   14133       0   14135   14136
   14136       0   14138   14139   14139       0   14141   14142   14142       0
   14144   14145   14145       0   14147   14148   14148       0   14150   14151
   14151       0   14153   14154   14154       0   14156   14157   14157       0
   14159   14160   14160       0   14162   14163   14163       0   14165   14166
   14166       0   14168   14169   14169       0   14171   14172   14172       0
   14174   14175   14175       0   14177   14178   14178       0   14180   14181
   14181       0   14183   14184   14184       0   14186   14187   14187       0
   14189   14190   14190       0   14192   14193   14193       0   14195   14196
   14196       0   14198   14199   14199       0   14201   14202   14202       0
   14204   14205   14205       0   14207   14208   14208       0   14210   14211
   14211       0   14213   14214   14214       0   14216   14217   14217       0
   14219   14220   14220       0   14222   14223   14223       0   14225   14226
   14226       0   14228   14229   14229       0   14231   14232   14232       0
   14234   14235   14235       0   14237   14238   14238       0   14240   14241
   14241       0   14243   14244   14244       0   14246   14247   14247       0
   14249   14250   14250       0   14252   14253   14253       0   14255   14256
   14256       0   14258   14259   14259       0   14261   14262   14262       0
   14264   14265   14265       0   14267   14268   14268       0   14270   14271
   14271       0   14273   14274   14274       0   14276   14277   14277       0
   14279   14280   14280       0   14282   14283   14283       0   14285   14286
   14286       0   14288   14289   14289       0   14291   14292   14292       0
   14294   14295   14295       0   14297   14298   14298       0   14300   14301
   14301       0   14303   14304   14304       0   14306   14307   14307       0
   14309   14310   14310       0   14312   14313   14313       0   14315   14316
   14316       0   14318   14319   14319       0   14321   14322   14322       0
   14324   14325   14325       0   14327   14328   14328       0   14330   14331
   14331       0   14333   14334   14334       0   14336   14337   14337       0
   14339   14340   14340       0   14342   14343   14343       0   14345   14346
   14346       0   14348   14349   14349       0   14351   14352   14352       0
   14354   14355   14355       0   14357   14358   14358       0   14360   14361
   14361       0   14363   14364   14364       0   14366   14367   14367       0
   14369   14370   14370       0   14372   14373   14373       0   14375   14376
   14376       0   14378   14379   14379       0   14381   14382   14382       0
   14384   14385   14385       0   14387   14388   14388       0   14390   14391
   14391       0   14393   14394   14394       0   14396   14397   14397       0
   14399   14400   14400       0   14402   14403   14403       0   14405   14406
   14406       0   14408   14409   14409       0   14411   14412   14412       0
   14414   14415   14415       0   14417   14418   14418       0   14420   14421
   14421       0   14423   14424   14424       0   14426   14427   14427       0
   14429   14430   14430       0   14432   14433   14433       0   14435   14436
   14436       0   14438   14439   14439       0   14441   14442   14442       0
   14444   14445   14445       0   14447   14448   14448       0   14450   14451
   14451       0   14453   14454   14454       0   14456   14457   14457       0
   14459   14460   14460       0   14462   14463   14463       0   14465   14466
   14466       0   14468   14469   14469       0   14471   14472   14472       0
   14474   14475   14475       0   14477   14478   14478       0   14480   14481
   14481       0   14483   14484   14484       0   14486   14487   14487       0
   14489   14490   14490       0   14492   14493   14493       0   14495   14496
   14496       0   14498   14499   14499       0   14501   14502   14502       0
   14504   14505   14505       0   14507   14508   14508       0   14510   14511
   14511       0   14513   14514   14514       0   14516   14517   14517       0
   14519   14520   14520       0   14522   14523   14523       0   14525   14526
   14526       0   14528   14529   14529       0   14531   14532   14532       0
   14534   14535   14535       0   14537   14538   14538       0   14540   14541
   14541       0   14543   14544   14544       0   14546   14547   14547       0
   14549   14550   14550       0   14552   14553   14553       0   14555   14556
   14556       0   14558   14559   14559       0   14561   14562   14562       0
   14564   14565   14565       0   14567   14568   14568       0   14570   14571
   14571       0   14573   14574   14574       0   14576   14577   14577       0
   14579   14580   14580       0   14582   14583   14583       0   14585   14586
   14586       0   14588   14589   14589       0   14591   14592   14592       0
   14594   14595   14595       0   14597   14598   14598       0   14600   14601
   14601       0   14603   14604   14604       0   14606   14607   14607       0
   14609   14610   14610       0   14612   14613   14613       0   14615   14616
   14616       0   14618   14619   14619       0   14621   14622   14622       0
   14624   14625   14625       0   14627   14628   14628       0   14630   14631
   14631       0   14633   14634   14634       0   14636   14637   14637       0
   14639   14640   14640       0   14642   14643   14643       0   14645   14646
   14646       0   14648   14649   14649       0   14651   14652   14652       0
   14654   14655   14655       0   14657   14658   14658       0   14660   14661
   14661       0   14663   14664   14664       0   14666   14667   14667       0
   14669   14670   14670       0   14672   14673   14673       0   14675   14676
   14676       0   14678   14679   14679       0   14681   14682   14682       0
   14684   14685   14685       0   14687   14688   14688       0   14690   14691
   14691       0   14693   14694   14694       0   14696   14697   14697       0
   14699   14700   14700       0   14702   14703   14703       0   14705   14706
   14706       0   14708   14709   14709       0   14711   14712   14712       0
   14714   14715   14715       0   14717   14718   14718       0   14720   14721
   14721       0   14723   14724   14724       0   14726   14727   14727       0
   14729   14730   14730       0   14732   14733   14733       0   14735   14736
   14736       0   14738   14739   14739       0   14741   14742   14742       0
   14744   14745   14745       0   14747   14748   14748       0   14750   14751
   14751       0   14753   14754   14754       0   14756   14757   14757       0
   14759   14760   14760       0   14762   14763   14763       0   14765   14766
   14766       0   14768   14769   14769       0   14771   14772   14772       0
   14774   14775   14775       0   14777   14778   14778       0   14780   14781
   14781       0   14783   14784   14784       0   14786   14787   14787       0
   14789   14790   14790       0   14792   14793   14793       0   14795   14796
   14796       0   14798   14799   14799       0   14801   14802   14802       0
   14804   14805   14805       0   14807   14808   14808       0   14810   14811
   14811       0   14813   14814   14814       0   14816   14817   14817       0
   14819   14820   14820       0   14822   14823   14823       0   14825   14826
   14826       0   14828   14829   14829       0   14831   14832   14832       0
   14834   14835   14835       0   14837   14838   14838       0   14840   14841
   14841       0   14843   14844   14844       0   14846   14847   14847       0
   14849   14850   14850       0   14852   14853   14853       0   14855   14856
   14856       0   14858   14859   14859       0   14861   14862   14862       0
   14864   14865   14865       0   14867   14868   14868       0   14870   14871
   14871       0   14873   14874   14874       0   14876   14877   14877       0
   14879   14880   14880       0   14882   14883   14883       0   14885   14886
   14886       0   14888   14889   14889       0   14891   14892   14892       0
   14894   14895   14895       0   14897   14898   14898       0   14900   14901
   14901       0   14903   14904   14904       0   14906   14907   14907       0
   14909   14910   14910       0   14912   14913   14913       0   14915   14916
   14916       0   14918   14919   14919       0   14921   14922   14922       0
   14924   14925   14925       0   14927   14928   14928       0   14930   14931
   14931       0   14933   14934   14934       0   14936   14937   14937       0
   14939   14940   14940       0   14942   14943   14943       0   14945   14946
   14946       0   14948   14949   14949       0   14951   14952   14952       0
   14954   14955   14955       0   14957   14958   14958       0   14960   14961
   14961       0   14963   14964   14964       0   14966   14967   14967       0
   14969   14970   14970       0   14972   14973   14973       0   14975   14976
   14976       0   14978   14979   14979       0   14981   14982   14982       0
   14984   14985   14985       0   14987   14988   14988       0   14990   14991
   14991       0   14993   14994   14994       0   14996   14997   14997       0
   14999   15000   15000       0   15002   15003   15003       0   15005   15006
   15006       0   15008   15009   15009       0   15011   15012   15012       0
   15014   15015   15015       0   15017   15018   15018       0   15020   15021
   15021       0   15023   15024   15024       0   15026   15027   15027       0
   15029   15030   15030       0   15032   15033   15033       0   15035   15036
   15036       0   15038   15039   15039       0   15041   15042   15042       0
   15044   15045   15045       0   15047   15048   15048       0   15050   15051
   15051       0   15053   15054   15054       0   15056   15057   15057       0
   15059   15060   15060       0   15062   15063   15063       0   15065   15066
   15066       0   15068   15069   15069       0   15071   15072   15072       0
   15074   15075   15075       0   15077   15078   15078       0   15080   15081
   15081       0   15083   15084   15084       0   15086   15087   15087       0
   15089   15090   15090       0   15092   15093   15093       0   15095   15096
   15096       0   15098   15099   15099       0   15101   15102   15102       0
   15104   15105   15105       0   15107   15108   15108       0   15110   15111
   15111       0   15113   15114   15114       0   15116   15117   15117       0
   15119   15120   15120       0   15122   15123   15123       0   15125   15126
   15126       0   15128   15129   15129       0   15131   15132   15132       0
   15134   15135   15135       0   15137   15138   15138       0   15140   15141
   15141       0   15143   15144   15144       0   15146   15147   15147       0
   15149   15150   15150       0   15152   15153   15153       0   15155   15156
   15156       0   15158   15159   15159       0   15161   15162   15162       0
   15164   15165   15165       0   15167   15168   15168       0   15170   15171
   15171       0   15173   15174   15174       0   15176   15177   15177       0
   15179   15180   15180       0   15182   15183   15183       0   15185   15186
   15186       0   15188   15189   15189       0   15191   15192   15192       0
   15194   15195   15195       0   15197   15198   15198       0   15200   15201
   15201       0   15203   15204   15204       0   15206   15207   15207       0
   15209   15210   15210       0   15212   15213   15213       0   15215   15216
   15216       0   15218   15219   15219       0   15221   15222   15222       0
   15224   15225   15225       0   15227   15228   15228       0   15230   15231
   15231       0   15233   15234   15234       0   15236   15237   15237       0
   15239   15240   15240       0   15242   15243   15243       0   15245   15246
   15246       0   15248   15249   15249       0   15251   15252   15252       0
   15254   15255   15255       0   15257   15258   15258       0   15260   15261
   15261       0   15263   15264   15264       0   15266   15267   15267       0
   15269   15270   15270       0   15272   15273   15273       0   15275   15276
   15276       0   15278   15279   15279       0   15281   15282   15282       0
   15284   15285   15285       0   15287   15288   15288       0   15290   15291
   15291       0   15293   15294   15294       0   15296   15297   15297       0
   15299   15300   15300       0   15302   15303   15303       0   15305   15306
   15306       0   15308   15309   15309       0   15311   15312   15312       0
   15314   15315   15315       0   15317   15318   15318       0   15320   15321
   15321       0   15323   15324   15324       0   15326   15327   15327       0
   15329   15330   15330       0   15332   15333   15333       0   15335   15336
   15336       0   15338   15339   15339       0   15341   15342   15342       0
   15344   15345   15345       0   15347   15348   15348       0   15350   15351
   15351       0   15353   15354   15354       0   15356   15357   15357       0
   15359   15360   15360       0   15362   15363   15363       0   15365   15366
   15366       0   15368   15369   15369       0   15371   15372   15372       0
   15374   15375   15375       0   15377   15378   15378       0   15380   15381
   15381       0   15383   15384   15384       0   15386   15387   15387       0
   15389   15390   15390       0   15392   15393   15393       0   15395   15396
   15396       0   15398   15399   15399       0   15401   15402   15402       0
   15404   15405   15405       0   15407   15408   15408       0   15410   15411
   15411       0   15413   15414   15414       0   15416   15417   15417       0
   15419   15420   15420       0   15422   15423   15423       0   15425   15426
   15426       0   15428   15429   15429       0   15431   15432   15432       0
   15434   15435   15435       0   15437   15438   15438       0   15440   15441
   15441       0   15443   15444   15444       0   15446   15447   15447       0
   15449   15450   15450       0   15452   15453   15453       0   15455   15456
   15456       0   15458   15459   15459       0   15461   15462   15462       0
   15464   15465   15465       0   15467   15468   15468       0   15470   15471
   15471       0   15473   15474   15474       0   15476   15477   15477       0
   15479   15480   15480       0   15482   15483   15483       0   15485   15486
   15486       0   15488   15489   15489       0   15491   15492   15492       0
   15494   15495   15495       0   15497   15498   15498       0   15500   15501
   15501       0   15503   15504   15504       0   15506   15507   15507       0
   15509   15510   15510       0   15512   15513   15513       0   15515   15516
   15516       0   15518   15519   15519       0   15521   15522   15522       0
   15524   15525   15525       0   15527   15528   15528       0   15530   15531
   15531       0   15533   15534   15534       0   15536   15537   15537       0
   15539   15540   15540       0   15542   15543   15543       0   15545   15546
   15546       0   15548   15549   15549       0   15551   15552   15552       0
   15554   15555   15555       0   15557   15558   15558       0   15560   15561
   15561       0   15563   15564   15564       0   15566   15567   15567       0
   15569   15570   15570       0   15572   15573   15573       0   15575   15576
   15576       0   15578   15579   15579       0   15581   15582   15582       0
   15584   15585   15585       0   15587   15588   15588       0   15590   15591
   15591       0   15593   15594   15594       0   15596   15597   15597       0
   15599   15600   15600       0   15602   15603   15603       0   15605   15606
   15606       0   15608   15609   15609       0   15611   15612   15612       0
   15614   15615   15615       0   15617   15618   15618       0   15620   15621
   15621       0   15623   15624   15624       0   15626   15627   15627       0
   15629   15630   15630       0   15632   15633   15633       0   15635   15636
   15636       0   15638   15639   15639       0   15641   15642   15642       0
   15644   15645   15645       0   15647   15648   15648       0   15650   15651
   15651       0   15653   15654   15654       0   15656   15657   15657       0
   15659   15660   15660       0   15662   15663   15663       0   15665   15666
   15666       0   15668   15669   15669       0   15671   15672   15672       0
   15674   15675   15675       0   15677   15678   15678       0   15680   15681
   15681       0   15683   15684   15684       0   15686   15687   15687       0
   15689   15690   15690       0   15692   15693   15693       0   15695   15696
   15696       0   15698   15699   15699       0   15701   15702   15702       0
   15704   15705   15705       0   15707   15708   15708       0   15710   15711
   15711       0   15713   15714   15714       0   15716   15717   15717       0
   15719   15720   15720       0   15722   15723   15723       0   15725   15726
   15726       0   15728   15729   15729       0   15731   15732   15732       0
   15734   15735   15735       0   15737   15738   15738       0   15740   15741
   15741       0   15743   15744   15744       0   15746   15747   15747       0
   15749   15750   15750       0   15752   15753   15753       0   15755   15756
   15756       0   15758   15759   15759       0   15761   15762   15762       0
   15764   15765   15765       0   15767   15768   15768       0   15770   15771
   15771       0   15773   15774   15774       0   15776   15777   15777       0
   15779   15780   15780       0   15782   15783   15783       0   15785   15786
   15786       0   15788   15789   15789       0   15791   15792   15792       0
   15794   15795   15795       0   15797   15798   15798       0   15800   15801
   15801       0   15803   15804   15804       0   15806   15807   15807       0
   15809   15810   15810       0   15812   15813   15813       0   15815   15816
   15816       0   15818   15819   15819       0   15821   15822   15822       0
   15824   15825   15825       0   15827   15828   15828       0   15830   15831
   15831       0   15833   15834   15834       0   15836   15837   15837       0
   15839   15840   15840       0   15842   15843   15843       0   15845   15846
   15846       0   15848   15849   15849       0   15851   15852   15852       0
   15854   15855   15855       0   15857   15858   15858       0   15860   15861
   15861       0   15863   15864   15864       0   15866   15867   15867       0
   15869   15870   15870       0   15872   15873   15873       0   15875   15876
   15876       0   15878   15879   15879       0   15881   15882   15882       0
   15884   15885   15885       0   15887   15888   15888       0   15890   15891
   15891       0   15893   15894   15894       0   15896   15897   15897       0
   15899   15900   15900       0   15902   15903   15903       0   15905   15906
   15906       0   15908   15909   15909       0   15911   15912   15912       0
   15914   15915   15915       0   15917   15918   15918       0   15920   15921
   15921       0   15923   15924   15924       0   15926   15927   15927       0
   15929   15930   15930       0   15932   15933   15933       0   15935   15936
   15936       0   15938   15939   15939       0   15941   15942   15942       0
   15944   15945   15945       0   15947   15948   15948       0   15950   15951
   15951       0   15953   15954   15954       0   15956   15957   15957       0
   15959   15960   15960       0   15962   15963   15963       0   15965   15966
   15966       0   15968   15969   15969       0   15971   15972   15972       0
   15974   15975   15975       0   15977   15978   15978       0   15980   15981
   15981       0   15983   15984   15984       0   15986   15987   15987       0
   15989   15990   15990       0   15992   15993   15993       0   15995   15996
   15996       0   15998   15999   15999       0   16001   16002   16002       0
   16004   16005   16005       0   16007   16008   16008       0   16010   16011
   16011       0   16013   16014   16014       0   16016   16017   16017       0
   16019   16020   16020       0   16022   16023   16023       0   16025   16026
   16026       0   16028   16029   16029       0   16031   16032   16032       0
   16034   16035   16035       0   16037   16038   16038       0   16040   16041
   16041       0   16043   16044   16044       0   16046   16047   16047       0
   16049   16050   16050       0   16052   16053   16053       0   16055   16056
   16056       0   16058   16059   16059       0   16061   16062   16062       0
   16064   16065   16065       0   16067   16068   16068       0   16070   16071
   16071       0   16073   16074   16074       0   16076   16077   16077       0
   16079   16080   16080       0   16082   16083   16083       0   16085   16086
   16086       0   16088   16089   16089       0   16091   16092   16092       0
   16094   16095   16095       0   16097   16098   16098       0   16100   16101
   16101       0   16103   16104   16104       0   16106   16107   16107       0
   16109   16110   16110       0   16112   16113   16113       0   16115   16116
   16116       0   16118   16119   16119       0   16121   16122   16122       0
   16124   16125   16125       0   16127   16128   16128       0   16130   16131
   16131       0   16133   16134   16134       0   16136   16137   16137       0
   16139   16140   16140       0   16142   16143   16143       0   16145   16146
   16146       0   16148   16149   16149       0   16151   16152   16152       0
   16154   16155   16155       0   16157   16158   16158       0   16160   16161
   16161       0   16163   16164   16164       0   16166   16167   16167       0
   16169   16170   16170       0   16172   16173   16173       0   16175   16176
   16176       0   16178   16179   16179       0   16181   16182   16182       0
   16184   16185   16185       0   16187   16188   16188       0   16190   16191
   16191       0   16193   16194   16194       0   16196   16197   16197       0
   16199   16200   16200       0   16202   16203   16203       0   16205   16206
   16206       0   16208   16209   16209       0   16211   16212   16212       0
   16214   16215   16215       0   16217   16218   16218       0   16220   16221
   16221       0   16223   16224   16224       0   16226   16227   16227       0
   16229   16230   16230       0   16232   16233   16233       0   16235   16236
   16236       0   16238   16239   16239       0   16241   16242   16242       0
   16244   16245   16245       0   16247   16248   16248       0   16250   16251
   16251       0   16253   16254   16254       0   16256   16257   16257       0
   16259   16260   16260       0   16262   16263   16263       0   16265   16266
   16266       0   16268   16269   16269       0   16271   16272   16272       0
   16274   16275   16275       0   16277   16278   16278       0   16280   16281
   16281       0   16283   16284   16284       0   16286   16287   16287       0
   16289   16290   16290       0   16292   16293   16293       0   16295   16296
   16296       0   16298   16299   16299       0   16301   16302   16302       0
   16304   16305   16305       0   16307   16308   16308       0   16310   16311
   16311       0   16313   16314   16314       0   16316   16317   16317       0
   16319   16320   16320       0   16322   16323   16323       0   16325   16326
   16326       0   16328   16329   16329       0   16331   16332   16332       0
   16334   16335   16335       0   16337   16338   16338       0   16340   16341
   16341       0   16343   16344   16344       0   16346   16347   16347       0
   16349   16350   16350       0   16352   16353   16353       0   16355   16356
   16356       0   16358   16359   16359       0   16361   16362   16362       0
   16364   16365   16365       0   16367   16368   16368       0   16370   16371
   16371       0   16373   16374   16374       0   16376   16377   16377       0
   16379   16380   16380       0   16382   16383   16383       0   16385   16386
   16386       0   16388   16389   16389       0   16391   16392   16392       0
   16394   16395   16395       0   16397   16398   16398       0   16400   16401
   16401       0   16403   16404   16404       0   16406   16407   16407       0
   16409   16410   16410       0   16412   16413   16413       0   16415   16416
   16416       0   16418   16419   16419       0   16421   16422   16422       0
   16424   16425   16425       0   16427   16428   16428       0   16430   16431
   16431       0   16433   16434   16434       0   16436   16437   16437       0
   16439   16440   16440       0   16442   16443   16443       0   16445   16446
   16446       0   16448   16449   16449       0   16451   16452   16452       0
   16454   16455   16455       0   16457   16458   16458       0   16460   16461
   16461       0   16463   16464   16464       0   16466   16467   16467       0
   16469   16470   16470       0   16472   16473   16473       0   16475   16476
   16476       0   16478   16479   16479       0   16481   16482   16482       0
   16484   16485   16485       0   16487   16488   16488       0   16490   16491
   16491       0   16493   16494   16494       0   16496   16497   16497       0
   16499   16500   16500       0   16502   16503   16503       0   16505   16506
   16506       0   16508   16509   16509       0   16511   16512   16512       0
   16514   16515   16515       0   16517   16518   16518       0   16520   16521
   16521       0   16523   16524   16524       0   16526   16527   16527       0
   16529   16530   16530       0   16532   16533   16533       0   16535   16536
   16536       0   16538   16539   16539       0   16541   16542   16542       0
   16544   16545   16545       0   16547   16548   16548       0   16550   16551
   16551       0   16553   16554   16554       0   16556   16557   16557       0
   16559   16560   16560       0   16562   16563   16563       0   16565   16566
   16566       0   16568   16569   16569       0   16571   16572   16572       0
   16574   16575   16575       0   16577   16578   16578       0   16580   16581
   16581       0   16583   16584   16584       0   16586   16587   16587       0
   16589   16590   16590       0   16592   16593   16593       0   16595   16596
   16596       0   16598   16599   16599       0   16601   16602   16602       0
   16604   16605   16605       0   16607   16608   16608       0   16610   16611
   16611       0   16613   16614   16614       0   16616   16617   16617       0
   16619   16620   16620       0   16622   16623   16623       0   16625   16626
   16626       0   16628   16629   16629       0   16631   16632   16632       0
   16634   16635   16635       0   16637   16638   16638       0   16640   16641
   16641       0   16643   16644   16644       0   16646   16647   16647       0
   16649   16650   16650       0   16652   16653   16653       0   16655   16656
   16656       0   16658   16659   16659       0   16661   16662   16662       0
   16664   16665   16665       0   16667   16668   16668       0   16670   16671
   16671       0   16673   16674   16674       0   16676   16677   16677       0
   16679   16680   16680       0   16682   16683   16683       0   16685   16686
   16686       0   16688   16689   16689       0   16691   16692   16692       0
   16694   16695   16695       0   16697   16698   16698       0   16700   16701
   16701       0   16703   16704   16704       0   16706   16707   16707       0
   16709   16710   16710       0   16712   16713   16713       0   16715   16716
   16716       0   16718   16719   16719       0   16721   16722   16722       0
   16724   16725   16725       0   16727   16728   16728       0   16730   16731
   16731       0   16733   16734   16734       0   16736   16737   16737       0
   16739   16740   16740       0   16742   16743   16743       0   16745   16746
   16746       0   16748   16749   16749       0   16751   16752   16752       0
   16754   16755   16755       0   16757   16758   16758       0   16760   16761
   16761       0   16763   16764   16764       0   16766   16767   16767       0
   16769   16770   16770       0   16772   16773   16773       0   16775   16776
   16776       0   16778   16779   16779       0   16781   16782   16782       0
   16784   16785   16785       0   16787   16788   16788       0   16790   16791
   16791       0   16793   16794   16794       0   16796   16797   16797       0
   16799   16800   16800       0   16802   16803   16803       0   16805   16806
   16806       0   16808   16809   16809       0   16811   16812   16812       0
   16814   16815   16815       0   16817   16818   16818       0   16820   16821
   16821       0   16823   16824   16824       0   16826   16827   16827       0
   16829   16830   16830       0   16832   16833   16833       0   16835   16836
   16836       0   16838   16839   16839       0   16841   16842   16842       0
   16844   16845   16845       0   16847   16848   16848       0   16850   16851
   16851       0   16853   16854   16854       0   16856   16857   16857       0
   16859   16860   16860       0   16862   16863   16863       0   16865   16866
   16866       0   16868   16869   16869       0   16871   16872   16872       0
   16874   16875   16875       0   16877   16878   16878       0   16880   16881
   16881       0   16883   16884   16884       0   16886   16887   16887       0
   16889   16890   16890       0   16892   16893   16893       0   16895   16896
   16896       0   16898   16899   16899       0   16901   16902   16902       0
   16904   16905   16905       0   16907   16908   16908       0   16910   16911
   16911       0   16913   16914   16914       0   16916   16917   16917       0
   16919   16920   16920       0   16922   16923   16923       0   16925   16926
   16926       0   16928   16929   16929       0   16931   16932   16932       0
   16934   16935   16935       0   16937   16938   16938       0   16940   16941
   16941       0   16943   16944   16944       0   16946   16947   16947       0
   16949   16950   16950       0   16952   16953   16953       0   16955   16956
   16956       0   16958   16959   16959       0   16961   16962   16962       0
   16964   16965   16965       0   16967   16968   16968       0   16970   16971
   16971       0   16973   16974   16974       0   16976   16977   16977       0
   16979   16980   16980       0   16982   16983   16983       0   16985   16986
   16986       0   16988   16989   16989       0   16991   16992   16992       0
   16994   16995   16995       0   16997   16998   16998       0   17000   17001
   17001       0   17003   17004   17004       0   17006   17007   17007       0
   17009   17010   17010       0   17012   17013   17013       0   17015   17016
   17016       0   17018   17019   17019       0   17021   17022   17022       0
   17024   17025   17025       0   17027   17028   17028       0   17030   17031
   17031       0   17033   17034   17034       0   17036   17037   17037       0
   17039   17040   17040       0   17042   17043   17043       0   17045   17046
   17046       0   17048   17049   17049       0   17051   17052   17052       0
   17054   17055   17055       0   17057   17058   17058       0   17060   17061
   17061       0   17063   17064   17064       0   17066   17067   17067       0
   17069   17070   17070       0   17072   17073   17073       0   17075   17076
   17076       0   17078   17079   17079       0   17081   17082   17082       0
   17084   17085   17085       0   17087   17088   17088       0   17090   17091
   17091       0   17093   17094   17094       0   17096   17097   17097       0
   17099   17100   17100       0   17102   17103   17103       0   17105   17106
   17106       0   17108   17109   17109       0   17111   17112   17112       0
   17114   17115   17115       0   17117   17118   17118       0   17120   17121
   17121       0   17123   17124   17124       0   17126   17127   17127       0
   17129   17130   17130       0   17132   17133   17133       0   17135   17136
   17136       0   17138   17139   17139       0   17141   17142   17142       0
   17144   17145   17145       0   17147   17148   17148       0   17150   17151
   17151       0   17153   17154   17154       0   17156   17157   17157       0
   17159   17160   17160       0   17162   17163   17163       0   17165   17166
   17166       0   17168   17169   17169       0   17171   17172   17172       0
   17174   17175   17175       0   17177   17178   17178       0   17180   17181
   17181       0   17183   17184   17184       0   17186   17187   17187       0
   17189   17190   17190       0   17192   17193   17193       0   17195   17196
   17196       0   17198   17199   17199       0   17201   17202   17202       0
   17204   17205   17205       0   17207   17208   17208       0   17210   17211
   17211       0   17213   17214   17214       0   17216   17217   17217       0
   17219   17220   17220       0   17222   17223   17223       0   17225   17226
   17226       0   17228   17229   17229       0   17231   17232   17232       0
   17234   17235   17235       0   17237   17238   17238       0   17240   17241
   17241       0   17243   17244   17244       0   17246   17247   17247       0
   17249   17250   17250       0   17252   17253   17253       0   17255   17256
   17256       0   17258   17259   17259       0   17261   17262   17262       0
   17264   17265   17265       0   17267   17268   17268       0   17270   17271
   17271       0   17273   17274   17274       0   17276   17277   17277       0
   17279   17280   17280       0   17282   17283   17283       0   17285   17286
   17286       0   17288   17289   17289       0   17291   17292   17292       0
   17294   17295   17295       0   17297   17298   17298       0   17300   17301
   17301       0   17303   17304   17304       0   17306   17307   17307       0
   17309   17310   17310       0   17312   17313   17313       0   17315   17316
   17316       0   17318   17319   17319       0   17321   17322   17322       0
   17324   17325   17325       0   17327   17328   17328       0   17330   17331
   17331       0   17333   17334   17334       0   17336   17337   17337       0
   17339   17340   17340       0   17342   17343   17343       0   17345   17346
   17346       0   17348   17349   17349       0   17351   17352   17352       0
   17354   17355   17355       0   17357   17358   17358       0   17360   17361
   17361       0   17363   17364   17364       0   17366   17367   17367       0
   17369   17370   17370       0   17372   17373   17373       0   17375   17376
   17376       0   17378   17379   17379       0   17381   17382   17382       0
   17384   17385   17385       0   17387   17388   17388       0   17390   17391
   17391       0   17393   17394   17394       0   17396   17397   17397       0
   17399   17400   17400       0   17402   17403   17403       0   17405   17406
   17406       0   17408   17409   17409       0   17411   17412   17412       0
   17414   17415   17415       0   17417   17418   17418       0   17420   17421
   17421       0   17423   17424   17424       0   17426   17427   17427       0
   17429   17430   17430       0   17432   17433   17433       0   17435   17436
   17436       0   17438   17439   17439       0   17441   17442   17442       0
   17444   17445   17445       0   17447   17448   17448       0   17450   17451
   17451       0   17453   17454   17454       0   17456   17457   17457       0
   17459   17460   17460       0   17462   17463   17463       0   17465   17466
   17466       0   17468   17469   17469       0   17471   17472   17472       0
   17474   17475   17475       0   17477   17478   17478       0   17480   17481
   17481       0   17483   17484   17484       0   17486   17487   17487       0
   17489   17490   17490       0   17492   17493   17493       0   17495   17496
   17496       0   17498   17499   17499       0   17501   17502   17502       0
   17504   17505   17505       0   17507   17508   17508       0   17510   17511
   17511       0   17513   17514   17514       0   17516   17517   17517       0
   17519   17520   17520       0   17522   17523   17523       0   17525   17526
   17526       0   17528   17529   17529       0   17531   17532   17532       0
   17534   17535   17535       0   17537   17538   17538       0   17540   17541
   17541       0   17543   17544   17544       0   17546   17547   17547       0
   17549   17550   17550       0   17552   17553   17553       0   17555   17556
   17556       0   17558   17559   17559       0   17561   17562   17562       0
   17564   17565   17565       0   17567   17568   17568       0   17570   17571
   17571       0   17573   17574   17574       0   17576   17577   17577       0
   17579   17580   17580       0   17582   17583   17583       0   17585   17586
   17586       0   17588   17589   17589       0   17591   17592   17592       0
   17594   17595   17595       0   17597   17598   17598       0   17600   17601
   17601       0   17603   17604   17604       0   17606   17607   17607       0
   17609   17610   17610       0   17612   17613   17613       0   17615   17616
   17616       0   17618   17619   17619       0   17621   17622   17622       0
   17624   17625   17625       0   17627   17628   17628       0   17630   17631
   17631       0   17633   17634   17634       0   17636   17637   17637       0
   17639   17640   17640       0   17642   17643   17643       0   17645   17646
   17646       0   17648   17649   17649       0   17651   17652   17652       0
   17654   17655   17655       0   17657   17658   17658       0   17660   17661
   17661       0   17663   17664   17664       0   17666   17667   17667       0
   17669   17670   17670       0   17672   17673   17673       0   17675   17676
   17676       0   17678   17679   17679       0   17681   17682   17682       0
   17684   17685   17685       0   17687   17688   17688       0   17690   17691
   17691       0   17693   17694   17694       0   17696   17697   17697       0
   17699   17700   17700       0   17702   17703   17703       0   17705   17706
   17706       0   17708   17709   17709       0   17711   17712   17712       0
   17714   17715   17715       0   17717   17718   17718       0   17720   17721
   17721       0   17723   17724   17724       0   17726   17727   17727       0
   17729   17730   17730       0   17732   17733   17733       0   17735   17736
   17736       0   17738   17739   17739       0   17741   17742   17742       0
   17744   17745   17745       0   17747   17748   17748       0   17750   17751
   17751       0   17753   17754   17754       0   17756   17757   17757       0
   17759   17760   17760       0   17762   17763   17763       0   17765   17766
   17766       0   17768   17769   17769       0   17771   17772   17772       0
   17774   17775   17775       0   17777   17778   17778       0   17780   17781
   17781       0   17783   17784   17784       0   17786   17787   17787       0
   17789   17790   17790       0   17792   17793   17793       0   17795   17796
   17796       0   17798   17799   17799       0   17801   17802   17802       0
   17804   17805   17805       0   17807   17808   17808       0   17810   17811
   17811       0   17813   17814   17814       0   17816   17817   17817       0
   17819   17820   17820       0   17822   17823   17823       0   17825   17826
   17826       0   17828   17829   17829       0   17831   17832   17832       0
   17834   17835   17835       0   17837   17838   17838       0   17840   17841
   17841       0   17843   17844   17844       0   17846   17847   17847       0
   17849   17850   17850       0   17852   17853   17853       0   17855   17856
   17856       0   17858   17859   17859       0   17861   17862   17862       0
   17864   17865   17865       0   17867   17868   17868       0   17870   17871
   17871       0   17873   17874   17874       0   17876   17877   17877       0
   17879   17880   17880       0   17882   17883   17883       0   17885   17886
   17886       0   17888   17889   17889       0   17891   17892   17892       0
   17894   17895   17895       0   17897   17898   17898       0   17900   17901
   17901       0   17903   17904   17904       0   17906   17907   17907       0
   17909   17910   17910       0   17912   17913   17913       0   17915   17916
   17916       0   17918   17919   17919       0   17921   17922   17922       0
   17924   17925   17925       0   17927   17928   17928       0   17930   17931
   17931       0   17933   17934   17934       0   17936   17937   17937       0
   17939   17940   17940       0   17942   17943   17943       0   17945   17946
   17946       0   17948   17949   17949       0   17951   17952   17952       0
   17954   17955   17955       0   17957   17958   17958       0   17960   17961
   17961       0   17963   17964   17964       0   17966   17967   17967       0
   17969   17970   17970       0   17972   17973   17973       0   17975   17976
   17976       0   17978   17979   17979       0   17981   17982   17982       0
   17984   17985   17985       0   17987   17988   17988       0   17990   17991
   17991       0   17993   17994   17994       0   17996   17997   17997       0
   17999   18000   18000       0   18002   18003   18003       0   18005   18006
   18006       0   18008   18009   18009       0   18011   18012   18012       0
   18014   18015   18015       0   18017   18018   18018       0   18020   18021
   18021       0   18023   18024   18024       0   18026   18027   18027       0
   18029   18030   18030       0   18032   18033   18033       0   18035   18036
   18036       0   18038   18039   18039       0   18041   18042   18042       0
   18044   18045   18045       0   18047   18048   18048       0   18050   18051
   18051       0   18053   18054   18054       0   18056   18057   18057       0
   18059   18060   18060       0   18062   18063   18063       0   18065   18066
   18066       0   18068   18069   18069       0   18071   18072   18072       0
   18074   18075   18075       0   18077   18078   18078       0   18080   18081
   18081       0   18083   18084   18084       0   18086   18087   18087       0
   18089   18090   18090       0   18092   18093   18093       0   18095   18096
   18096       0   18098   18099   18099       0   18101   18102   18102       0
   18104   18105   18105       0   18107   18108   18108       0   18110   18111
   18111       0   18113   18114   18114       0   18116   18117   18117       0
   18119   18120   18120       0   18122   18123   18123       0   18125   18126
   18126       0   18128   18129   18129       0   18131   18132   18132       0
   18134   18135   18135       0   18137   18138   18138       0   18140   18141
   18141       0   18143   18144   18144       0   18146   18147   18147       0
   18149   18150   18150       0   18152   18153   18153       0   18155   18156
   18156       0   18158   18159   18159       0   18161   18162   18162       0
   18164   18165   18165       0   18167   18168   18168       0   18170   18171
   18171       0   18173   18174   18174       0   18176   18177   18177       0
   18179   18180   18180       0   18182   18183   18183       0   18185   18186
   18186       0   18188   18189   18189       0   18191   18192   18192       0
   18194   18195   18195       0   18197   18198   18198       0   18200   18201
   18201       0   18203   18204   18204       0   18206   18207   18207       0
   18209   18210   18210       0   18212   18213   18213       0   18215   18216
   18216       0   18218   18219   18219       0   18221   18222   18222       0
   18224   18225   18225       0   18227   18228   18228       0   18230   18231
   18231       0   18233   18234   18234       0   18236   18237   18237       0
   18239   18240   18240       0   18242   18243   18243       0   18245   18246
   18246       0   18248   18249   18249       0   18251   18252   18252       0
   18254   18255   18255       0   18257   18258   18258       0   18260   18261
   18261       0   18263   18264   18264       0   18266   18267   18267       0
   18269   18270   18270       0   18272   18273   18273       0   18275   18276
   18276       0   18278   18279   18279       0   18281   18282   18282       0
   18284   18285   18285       0   18287   18288   18288       0   18290   18291
   18291       0   18293   18294   18294       0   18296   18297   18297       0
   18299   18300   18300       0   18302   18303   18303       0   18305   18306
   18306       0   18308   18309   18309       0   18311   18312   18312       0
   18314   18315   18315       0   18317   18318   18318       0   18320   18321
   18321       0   18323   18324   18324       0   18326   18327   18327       0
   18329   18330   18330       0   18332   18333   18333       0   18335   18336
   18336       0   18338   18339   18339       0   18341   18342   18342       0
   18344   18345   18345       0   18347   18348   18348       0   18350   18351
   18351       0   18353   18354   18354       0   18356   18357   18357       0
   18359   18360   18360       0   18362   18363   18363       0   18365   18366
   18366       0   18368   18369   18369       0   18371   18372   18372       0
   18374   18375   18375       0   18377   18378   18378       0   18380   18381
   18381       0   18383   18384   18384       0   18386   18387   18387       0
   18389   18390   18390       0   18392   18393   18393       0   18395   18396
   18396       0   18398   18399   18399       0   18401   18402   18402       0
   18404   18405   18405       0   18407   18408   18408       0   18410   18411
   18411       0   18413   18414   18414       0   18416   18417   18417       0
   18419   18420   18420       0   18422   18423   18423       0   18425   18426
   18426       0   18428   18429   18429       0   18431   18432   18432       0
   18434   18435   18435       0   18437   18438   18438       0   18440   18441
   18441       0   18443   18444   18444       0   18446   18447   18447       0
   18449   18450   18450       0   18452   18453   18453       0   18455   18456
   18456       0   18458   18459   18459       0   18461   18462   18462       0
   18464   18465   18465       0   18467   18468   18468       0   18470   18471
   18471       0   18473   18474   18474       0   18476   18477   18477       0
   18479   18480   18480       0   18482   18483   18483       0   18485   18486
   18486       0   18488   18489   18489       0   18491   18492   18492       0
   18494   18495   18495       0   18497   18498   18498       0   18500   18501
   18501       0   18503   18504   18504       0   18506   18507   18507       0
   18509   18510   18510       0   18512   18513   18513       0   18515   18516
   18516       0   18518   18519   18519       0   18521   18522   18522       0
   18524   18525   18525       0   18527   18528   18528       0   18530   18531
   18531       0   18533   18534   18534       0   18536   18537   18537       0
   18539   18540   18540       0   18542   18543   18543       0   18545   18546
   18546       0   18548   18549   18549       0   18551   18552   18552       0
   18554   18555   18555       0   18557   18558   18558       0   18560   18561
   18561       0   18563   18564   18564       0   18566   18567   18567       0
   18569   18570   18570       0   18572   18573   18573       0   18575   18576
   18576       0   18578   18579   18579       0   18581   18582   18582       0
   18584   18585   18585       0   18587   18588   18588       0   18590   18591
   18591       0   18593   18594   18594       0   18596   18597   18597       0
   18599   18600   18600       0   18602   18603   18603       0   18605   18606
   18606       0   18608   18609   18609       0   18611   18612   18612       0
   18614   18615   18615       0   18617   18618   18618       0   18620   18621
   18621       0   18623   18624   18624       0   18626   18627   18627       0
   18629   18630   18630       0   18632   18633   18633       0   18635   18636
   18636       0   18638   18639   18639       0   18641   18642   18642       0
   18644   18645   18645       0   18647   18648   18648       0   18650   18651
   18651       0   18653   18654   18654       0   18656   18657   18657       0
   18659   18660   18660       0   18662   18663   18663       0   18665   18666
   18666       0   18668   18669   18669       0   18671   18672   18672       0
   18674   18675   18675       0   18677   18678   18678       0   18680   18681
   18681       0   18683   18684   18684       0   18686   18687   18687       0
   18689   18690   18690       0   18692   18693   18693       0   18695   18696
   18696       0   18698   18699   18699       0   18701   18702   18702       0
   18704   18705   18705       0   18707   18708   18708       0   18710   18711
   18711       0   18713   18714   18714       0   18716   18717   18717       0
   18719   18720   18720       0   18722   18723   18723       0   18725   18726
   18726       0   18728   18729   18729       0   18731   18732   18732       0
   18734   18735   18735       0   18737   18738   18738       0   18740   18741
   18741       0   18743   18744   18744       0   18746   18747   18747       0
   18749   18750   18750       0   18752   18753   18753       0   18755   18756
   18756       0   18758   18759   18759       0   18761   18762   18762       0
   18764   18765   18765       0   18767   18768   18768       0   18770   18771
   18771       0   18773   18774   18774       0   18776   18777   18777       0
   18779   18780   18780       0   18782   18783   18783       0   18785   18786
   18786       0   18788   18789   18789       0   18791   18792   18792       0
   18794   18795   18795       0   18797   18798   18798       0   18800   18801
   18801       0   18803   18804   18804       0   18806   18807   18807       0
   18809   18810   18810       0   18812   18813   18813       0   18815   18816
   18816       0   18818   18819   18819       0   18821   18822   18822       0
   18824   18825   18825       0   18827   18828   18828       0   18830   18831
   18831       0   18833   18834   18834       0   18836   18837   18837       0
   18839   18840   18840       0   18842   18843   18843       0   18845   18846
   18846       0   18848   18849   18849       0   18851   18852   18852       0
   18854   18855   18855       0   18857   18858   18858       0   18860   18861
   18861       0   18863   18864   18864       0   18866   18867   18867       0
   18869   18870   18870       0   18872   18873   18873       0   18875   18876
   18876       0   18878   18879   18879       0   18881   18882   18882       0
   18884   18885   18885       0   18887   18888   18888       0   18890   18891
   18891       0   18893   18894   18894       0   18896   18897   18897       0
   18899   18900   18900       0   18902   18903   18903       0   18905   18906
   18906       0   18908   18909   18909       0   18911   18912   18912       0
   18914   18915   18915       0   18917   18918   18918       0   18920   18921
   18921       0   18923   18924   18924       0   18926   18927   18927       0
   18929   18930   18930       0   18932   18933   18933       0   18935   18936
   18936       0   18938   18939   18939       0   18941   18942   18942       0
   18944   18945   18945       0   18947   18948   18948       0   18950   18951
   18951       0   18953   18954   18954       0   18956   18957   18957       0
   18959   18960   18960       0   18962   18963   18963       0   18965   18966
   18966       0   18968   18969   18969       0   18971   18972   18972       0
   18974   18975   18975       0   18977   18978   18978       0   18980   18981
   18981       0   18983   18984   18984       0   18986   18987   18987       0
   18989   18990   18990       0   18992   18993   18993       0   18995   18996
   18996       0   18998   18999   18999       0   19001   19002   19002       0
   19004   19005   19005       0   19007   19008   19008       0   19010   19011
   19011       0   19013   19014   19014       0   19016   19017   19017       0
   19019   19020   19020       0   19022   19023   19023       0   19025   19026
   19026       0   19028   19029   19029       0   19031   19032   19032       0
   19034   19035   19035       0   19037   19038   19038       0   19040   19041
   19041       0   19043   19044   19044       0   19046   19047   19047       0
   19049   19050   19050       0   19052   19053   19053       0   19055   19056
   19056       0   19058   19059   19059       0   19061   19062   19062       0
   19064   19065   19065       0   19067   19068   19068       0   19070   19071
   19071       0   19073   19074   19074       0   19076   19077   19077       0
   19079   19080   19080       0   19082   19083   19083       0   19085   19086
   19086       0   19088   19089   19089       0   19091   19092   19092       0
   19094   19095   19095       0   19097   19098   19098       0   19100   19101
   19101       0   19103   19104   19104       0   19106   19107   19107       0
   19109   19110   19110       0   19112   19113   19113       0   19115   19116
   19116       0   19118   19119   19119       0   19121   19122   19122       0
   19124   19125   19125       0   19127   19128   19128       0   19130   19131
   19131       0   19133   19134   19134       0   19136   19137   19137       0
   19139   19140   19140       0   19142   19143   19143       0   19145   19146
   19146       0   19148   19149   19149       0   19151   19152   19152       0
   19154   19155   19155       0   19157   19158   19158       0   19160   19161
   19161       0   19163   19164   19164       0   19166   19167   19167       0
   19169   19170   19170       0   19172   19173   19173       0   19175   19176
   19176       0   19178   19179   19179       0   19181   19182   19182       0
   19184   19185   19185       0   19187   19188   19188       0   19190   19191
   19191       0   19193   19194   19194       0   19196   19197   19197       0
   19199   19200   19200       0   19202   19203   19203       0   19205   19206
   19206       0   19208   19209   19209       0   19211   19212   19212       0
   19214   19215   19215       0   19217   19218   19218       0   19220   19221
   19221       0   19223   19224   19224       0   19226   19227   19227       0
   19229   19230   19230       0   19232   19233   19233       0   19235   19236
   19236       0   19238   19239   19239       0   19241   19242   19242       0
   19244   19245   19245       0   19247   19248   19248       0   19250   19251
   19251       0   19253   19254   19254       0   19256   19257   19257       0
   19259   19260   19260       0   19262   19263   19263       0   19265   19266
   19266       0   19268   19269   19269       0   19271   19272   19272       0
   19274   19275   19275       0   19277   19278   19278       0   19280   19281
   19281       0   19283   19284   19284       0   19286   19287   19287       0
   19289   19290   19290       0   19292   19293   19293       0   19295   19296
   19296       0   19298   19299   19299       0   19301   19302   19302       0
   19304   19305   19305       0   19307   19308   19308       0   19310   19311
   19311       0   19313   19314   19314       0   19316   19317   19317       0
   19319   19320   19320       0   19322   19323   19323       0   19325   19326
   19326       0   19328   19329   19329       0   19331   19332   19332       0
   19334   19335   19335       0   19337   19338   19338       0   19340   19341
   19341       0   19343   19344   19344       0   19346   19347   19347       0
   19349   19350   19350       0   19352   19353   19353       0   19355   19356
   19356       0   19358   19359   19359       0   19361   19362   19362       0
   19364   19365   19365       0   19367   19368   19368       0   19370   19371
   19371       0   19373   19374   19374       0   19376   19377   19377       0
   19379   19380   19380       0   19382   19383   19383       0   19385   19386
   19386       0   19388   19389   19389       0   19391   19392   19392       0
   19394   19395   19395       0   19397   19398   19398       0   19400   19401
   19401       0   19403   19404   19404       0   19406   19407   19407       0
   19409   19410   19410       0   19412   19413   19413       0   19415   19416
   19416       0   19418   19419   19419       0   19421   19422   19422       0
   19424   19425   19425       0   19427   19428   19428       0   19430   19431
   19431       0   19433   19434   19434       0   19436   19437   19437       0
   19439   19440   19440       0   19442   19443   19443       0   19445   19446
   19446       0   19448   19449   19449       0   19451   19452   19452       0
   19454   19455   19455       0   19457   19458   19458       0   19460   19461
   19461       0   19463   19464   19464       0   19466   19467   19467       0
   19469   19470   19470       0   19472   19473   19473       0   19475   19476
   19476       0   19478   19479   19479       0   19481   19482   19482       0
   19484   19485   19485       0   19487   19488   19488       0   19490   19491
   19491       0   19493   19494   19494       0   19496   19497   19497       0
   19499   19500   19500       0   19502   19503   19503       0   19505   19506
   19506       0   19508   19509   19509       0   19511   19512   19512       0
   19514   19515   19515       0   19517   19518   19518       0   19520   19521
   19521       0   19523   19524   19524       0   19526   19527   19527       0
   19529   19530   19530       0   19532   19533   19533       0   19535   19536
   19536       0   19538   19539   19539       0   19541   19542   19542       0
   19544   19545   19545       0   19547   19548   19548       0   19550   19551
   19551       0   19553   19554   19554       0   19556   19557   19557       0
   19559   19560   19560       0   19562   19563   19563       0   19565   19566
   19566       0   19568   19569   19569       0   19571   19572   19572       0
   19574   19575   19575       0   19577   19578   19578       0   19580   19581
   19581       0   19583   19584   19584       0   19586   19587   19587       0
   19589   19590   19590       0   19592   19593   19593       0   19595   19596
   19596       0   19598   19599   19599       0   19601   19602   19602       0
   19604   19605   19605       0   19607   19608   19608       0   19610   19611
   19611       0   19613   19614   19614       0   19616   19617   19617       0
   19619   19620   19620       0   19622   19623   19623       0   19625   19626
   19626       0   19628   19629   19629       0   19631   19632   19632       0
   19634   19635   19635       0   19637   19638   19638       0   19640   19641
   19641       0   19643   19644   19644       0   19646   19647   19647       0
   19649   19650   19650       0   19652   19653   19653       0   19655   19656
   19656       0   19658   19659   19659       0   19661   19662   19662       0
   19664   19665   19665       0   19667   19668   19668       0   19670   19671
   19671       0   19673   19674   19674       0   19676   19677   19677       0
   19679   19680   19680       0   19682   19683   19683       0   19685   19686
   19686       0   19688   19689   19689       0   19691   19692   19692       0
   19694   19695   19695       0   19697   19698   19698       0   19700   19701
   19701       0   19703   19704   19704       0   19706   19707   19707       0
   19709   19710   19710       0   19712   19713   19713       0   19715   19716
   19716       0   19718   19719   19719       0   19721   19722   19722       0
   19724   19725   19725       0   19727   19728   19728       0   19730   19731
   19731       0   19733   19734   19734       0   19736   19737   19737       0
   19739   19740   19740       0   19742   19743   19743       0   19745   19746
   19746       0   19748   19749   19749       0   19751   19752   19752       0
   19754   19755   19755       0   19757   19758   19758       0   19760   19761
   19761       0   19763   19764   19764       0   19766   19767   19767       0
   19769   19770   19770       0   19772   19773   19773       0   19775   19776
   19776       0   19778   19779   19779       0   19781   19782   19782       0
   19784   19785   19785       0   19787   19788   19788       0   19790   19791
   19791       0   19793   19794   19794       0   19796   19797   19797       0
   19799   19800   19800       0   19802   19803   19803       0   19805   19806
   19806       0   19808   19809   19809       0   19811   19812   19812       0
   19814   19815   19815       0   19817   19818   19818       0   19820   19821
   19821       0   19823   19824   19824       0   19826   19827   19827       0
   19829   19830   19830       0   19832   19833   19833       0   19835   19836
   19836       0   19838   19839   19839       0   19841   19842   19842       0
   19844   19845   19845       0   19847   19848   19848       0   19850   19851
   19851       0   19853   19854   19854       0   19856   19857   19857       0
   19859   19860   19860       0   19862   19863   19863       0   19865   19866
   19866       0   19868   19869   19869       0   19871   19872   19872       0
   19874   19875   19875       0   19877   19878   19878       0   19880   19881
   19881       0   19883   19884   19884       0   19886   19887   19887       0
   19889   19890   19890       0   19892   19893   19893       0   19895   19896
   19896       0   19898   19899   19899       0   19901   19902   19902       0
   19904   19905   19905       0   19907   19908   19908       0   19910   19911
   19911       0   19913   19914   19914       0   19916   19917   19917       0
   19919   19920   19920       0   19922   19923   19923       0   19925   19926
   19926       0   19928   19929   19929       0   19931   19932   19932       0
   19934   19935   19935       0   19937   19938   19938       0   19940   19941
   19941       0   19943   19944   19944       0   19946   19947   19947       0
   19949   19950   19950       0   19952   19953   19953       0   19955   19956
   19956       0   19958   19959   19959       0   19961   19962   19962       0
   19964   19965   19965       0   19967   19968   19968       0   19970   19971
   19971       0   19973   19974   19974       0   19976   19977   19977       0
   19979   19980   19980       0   19982   19983   19983       0   19985   19986
   19986       0   19988   19989   19989       0   19991   19992   19992       0
   19994   19995   19995       0   19997   19998   19998       0   20000   20001
   20001       0   20003   20004   20004       0   20006   20007   20007       0
   20009   20010   20010       0   20012   20013   20013       0   20015   20016
   20016       0   20018   20019   20019       0   20021   20022   20022       0
   20024   20025   20025       0   20027   20028   20028       0   20030   20031
   20031       0   20033   20034   20034       0   20036   20037   20037       0
   20039   20040   20040       0   20042   20043   20043       0   20045   20046
   20046       0   20048   20049   20049       0   20051   20052   20052       0
   20054   20055   20055       0   20057   20058   20058       0   20060   20061
   20061       0   20063   20064   20064       0   20066   20067   20067       0
   20069   20070   20070       0   20072   20073   20073       0   20075   20076
   20076       0   20078   20079   20079       0   20081   20082   20082       0
   20084   20085   20085       0   20087   20088   20088       0   20090   20091
   20091       0   20093   20094   20094       0   20096   20097   20097       0
   20099   20100   20100       0   20102   20103   20103       0   20105   20106
   20106       0   20108   20109   20109       0   20111   20112   20112       0
   20114   20115   20115       0   20117   20118   20118       0   20120   20121
   20121       0   20123   20124   20124       0   20126   20127   20127       0
   20129   20130   20130       0   20132   20133   20133       0   20135   20136
   20136       0   20138   20139   20139       0   20141   20142   20142       0
   20144   20145   20145       0   20147   20148   20148       0   20150   20151
   20151       0   20153   20154   20154       0   20156   20157   20157       0
   20159   20160   20160       0   20162   20163   20163       0   20165   20166
   20166       0   20168   20169   20169       0   20171   20172   20172       0
   20174   20175   20175       0   20177   20178   20178       0   20180   20181
   20181       0   20183   20184   20184       0   20186   20187   20187       0
   20189   20190   20190       0   20192   20193   20193       0   20195   20196
   20196       0   20198   20199   20199       0   20201   20202   20202       0
   20204   20205   20205       0   20207   20208   20208       0   20210   20211
   20211       0   20213   20214   20214       0   20216   20217   20217       0
   20219   20220   20220       0   20222   20223   20223       0   20225   20226
   20226       0   20228   20229   20229       0   20231   20232   20232       0
   20234   20235   20235       0   20237   20238   20238       0   20240   20241
   20241       0   20243   20244   20244       0   20246   20247   20247       0
   20249   20250   20250       0   20252   20253   20253       0   20255   20256
   20256       0   20258   20259   20259       0   20261   20262   20262       0
   20264   20265   20265       0   20267   20268   20268       0   20270   20271
   20271       0   20273   20274   20274       0   20276   20277   20277       0
   20279   20280   20280       0   20282   20283   20283       0   20285   20286
   20286       0   20288   20289   20289       0   20291   20292   20292       0
   20294   20295   20295       0   20297   20298   20298       0   20300   20301
   20301       0   20303   20304   20304       0   20306   20307   20307       0
   20309   20310   20310       0   20312   20313   20313       0   20315   20316
   20316       0   20318   20319   20319       0   20321   20322   20322       0
   20324   20325   20325       0   20327   20328   20328       0   20330   20331
   20331       0   20333   20334   20334       0   20336   20337   20337       0
   20339   20340   20340       0   20342   20343   20343       0   20345   20346
   20346       0   20348   20349   20349       0   20351   20352   20352       0
   20354   20355   20355       0   20357   20358   20358       0   20360   20361
   20361       0   20363   20364   20364       0   20366   20367   20367       0
   20369   20370   20370       0   20372   20373   20373       0   20375   20376
   20376       0   20378   20379   20379       0   20381   20382   20382       0
   20384   20385   20385       0   20387   20388   20388       0   20390   20391
   20391       0   20393   20394   20394       0   20396   20397   20397       0
   20399   20400   20400       0   20402   20403   20403       0   20405   20406
   20406       0   20408   20409   20409       0   20411   20412   20412       0
   20414   20415   20415       0   20417   20418   20418       0   20420   20421
   20421       0   20423   20424   20424       0   20426   20427   20427       0
   20429   20430   20430       0   20432   20433   20433       0   20435   20436
   20436       0   20438   20439   20439       0   20441   20442   20442       0
   20444   20445   20445       0   20447   20448   20448       0   20450   20451
   20451       0   20453   20454   20454       0   20456   20457   20457       0
   20459   20460   20460       0   20462   20463   20463       0   20465   20466
   20466       0   20468   20469   20469       0   20471   20472   20472       0
   20474   20475   20475       0   20477   20478   20478       0   20480   20481
   20481       0   20483   20484   20484       0   20486   20487   20487       0
   20489   20490   20490       0   20492   20493   20493       0   20495   20496
   20496       0   20498   20499   20499       0   20501   20502   20502       0
   20504   20505   20505       0   20507   20508   20508       0   20510   20511
   20511       0   20513   20514   20514       0   20516   20517   20517       0
   20519   20520   20520       0   20522   20523   20523       0   20525   20526
   20526       0   20528   20529   20529       0   20531   20532   20532       0
   20534   20535   20535       0   20537   20538   20538       0   20540   20541
   20541       0   20543   20544   20544       0   20546   20547   20547       0
   20549   20550   20550       0   20552   20553   20553       0   20555   20556
   20556       0   20558   20559   20559       0   20561   20562   20562       0
   20564   20565   20565       0   20567   20568   20568       0   20570   20571
   20571       0   20573   20574   20574       0   20576   20577   20577       0
   20579   20580   20580       0   20582   20583   20583       0   20585   20586
   20586       0   20588   20589   20589       0   20591   20592   20592       0
   20594   20595   20595       0   20597   20598   20598       0   20600   20601
   20601       0   20603   20604   20604       0   20606   20607   20607       0
   20609   20610   20610       0   20612   20613   20613       0   20615   20616
   20616       0   20618   20619   20619       0   20621   20622   20622       0
   20624   20625   20625       0   20627   20628   20628       0   20630   20631
   20631       0   20633   20634   20634       0   20636   20637   20637       0
   20639   20640   20640       0   20642   20643   20643       0   20645   20646
   20646       0   20648   20649   20649       0   20651   20652   20652       0
   20654   20655   20655       0   20657   20658   20658       0   20660   20661
   20661       0   20663   20664   20664       0   20666   20667   20667       0
   20669   20670   20670       0   20672   20673   20673       0   20675   20676
   20676       0   20678   20679   20679       0   20681   20682   20682       0
   20684   20685   20685       0   20687   20688   20688       0   20690   20691
   20691       0   20693   20694   20694       0   20696   20697   20697       0
   20699   20700   20700       0   20702   20703   20703       0   20705   20706
   20706       0   20708   20709   20709       0   20711   20712   20712       0
   20714   20715   20715       0   20717   20718   20718       0   20720   20721
   20721       0   20723   20724   20724       0   20726   20727   20727       0
   20729   20730   20730       0   20732   20733   20733       0   20735   20736
   20736       0   20738   20739   20739       0   20741   20742   20742       0
   20744   20745   20745       0   20747   20748   20748       0   20750   20751
   20751       0   20753   20754   20754       0   20756   20757   20757       0
   20759   20760   20760       0   20762   20763   20763       0   20765   20766
   20766       0   20768   20769   20769       0   20771   20772   20772       0
   20774   20775   20775       0   20777   20778   20778       0   20780   20781
   20781       0   20783   20784   20784       0   20786   20787   20787       0
   20789   20790   20790       0   20792   20793   20793       0   20795   20796
   20796       0   20798   20799   20799       0   20801   20802   20802       0
   20804   20805   20805       0   20807   20808   20808       0   20810   20811
   20811       0   20813   20814   20814       0   20816   20817   20817       0
   20819   20820   20820       0   20822   20823   20823       0   20825   20826
   20826       0   20828   20829   20829       0   20831   20832   20832       0
   20834   20835   20835       0   20837   20838   20838       0   20840   20841
   20841       0   20843   20844   20844       0   20846   20847   20847       0
   20849   20850   20850       0   20852   20853   20853       0   20855   20856
   20856       0   20858   20859   20859       0   20861   20862   20862       0
   20864   20865   20865       0   20867   20868   20868       0   20870   20871
   20871       0   20873   20874   20874       0   20876   20877   20877       0
   20879   20880   20880       0   20882   20883   20883       0   20885   20886
   20886       0   20888   20889   20889       0   20891   20892   20892       0
   20894   20895   20895       0   20897   20898   20898       0   20900   20901
   20901       0   20903   20904   20904       0   20906   20907   20907       0
   20909   20910   20910       0   20912   20913   20913       0   20915   20916
   20916       0   20918   20919   20919       0   20921   20922   20922       0
   20924   20925   20925       0   20927   20928   20928       0   20930   20931
   20931       0   20933   20934   20934       0   20936   20937   20937       0
   20939   20940   20940       0   20942   20943   20943       0   20945   20946
   20946       0   20948   20949   20949       0   20951   20952   20952       0
   20954   20955   20955       0   20957   20958   20958       0   20960   20961
   20961       0   20963   20964   20964       0   20966   20967   20967       0
   20969   20970   20970       0   20972   20973   20973       0   20975   20976
   20976       0   20978   20979   20979       0   20981   20982   20982       0
   20984   20985   20985       0   20987   20988   20988       0   20990   20991
   20991       0   20993   20994   20994       0   20996   20997   20997       0
   20999   21000   21000       0   21002   21003   21003       0   21005   21006
   21006       0   21008   21009   21009       0   21011   21012   21012       0
   21014   21015   21015       0   21017   21018   21018       0   21020   21021
   21021       0   21023   21024   21024       0   21026   21027   21027       0
   21029   21030   21030       0   21032   21033   21033       0   21035   21036
   21036       0   21038   21039   21039       0   21041   21042   21042       0
   21044   21045   21045       0   21047   21048   21048       0   21050   21051
   21051       0   21053   21054   21054       0   21056   21057   21057       0
   21059   21060   21060       0   21062   21063   21063       0   21065   21066
   21066       0   21068   21069   21069       0   21071   21072   21072       0
   21074   21075   21075       0   21077   21078   21078       0   21080   21081
   21081       0   21083   21084   21084       0   21086   21087   21087       0
   21089   21090   21090       0   21092   21093   21093       0   21095   21096
   21096       0   21098   21099   21099       0   21101   21102   21102       0
   21104   21105   21105       0   21107   21108   21108       0   21110   21111
   21111       0   21113   21114   21114       0   21116   21117   21117       0
   21119   21120   21120       0   21122   21123   21123       0   21125   21126
   21126       0   21128   21129   21129       0   21131   21132   21132       0
   21134   21135   21135       0   21137   21138   21138       0   21140   21141
   21141       0   21143   21144   21144       0   21146   21147   21147       0
   21149   21150   21150       0   21152   21153   21153       0   21155   21156
   21156       0   21158   21159   21159       0   21161   21162   21162       0
   21164   21165   21165       0   21167   21168   21168       0   21170   21171
   21171       0   21173   21174   21174       0   21176   21177   21177       0
   21179   21180   21180       0   21182   21183   21183       0   21185   21186
   21186       0   21188   21189   21189       0   21191   21192   21192       0
   21194   21195   21195       0   21197   21198   21198       0   21200   21201
   21201       0   21203   21204   21204       0   21206   21207   21207       0
   21209   21210   21210       0   21212   21213   21213       0   21215   21216
   21216       0   21218   21219   21219       0   21221   21222   21222       0
   21224   21225   21225       0   21227   21228   21228       0   21230   21231
   21231       0   21233   21234   21234       0   21236   21237   21237       0
   21239   21240   21240       0   21242   21243   21243       0   21245   21246
   21246       0   21248   21249   21249       0   21251   21252   21252       0
   21254   21255   21255       0   21257   21258   21258       0   21260   21261
   21261       0   21263   21264   21264       0   21266   21267   21267       0
   21269   21270   21270       0   21272   21273   21273       0   21275   21276
   21276       0   21278   21279   21279       0   21281   21282   21282       0
   21284   21285   21285       0   21287   21288   21288       0   21290   21291
   21291       0   21293   21294   21294       0   21296   21297   21297       0
   21299   21300   21300       0   21302   21303   21303       0   21305   21306
   21306       0   21308   21309   21309       0   21311   21312   21312       0
   21314   21315   21315       0   21317   21318   21318       0   21320   21321
   21321       0   21323   21324   21324       0   21326   21327   21327       0
   21329   21330   21330       0   21332   21333   21333       0   21335   21336
   21336       0   21338   21339   21339       0   21341   21342   21342       0
   21344   21345   21345       0   21347   21348   21348       0   21350   21351
   21351       0   21353   21354   21354       0   21356   21357   21357       0
   21359   21360   21360       0   21362   21363   21363       0   21365   21366
   21366       0   21368   21369   21369       0   21371   21372   21372       0
   21374   21375   21375       0   21377   21378   21378       0   21380   21381
   21381       0   21383   21384   21384       0   21386   21387   21387       0
   21389   21390   21390       0   21392   21393   21393       0   21395   21396
   21396       0   21398   21399   21399       0   21401   21402   21402       0
   21404   21405   21405       0   21407   21408   21408       0   21410   21411
   21411       0   21413   21414   21414       0   21416   21417   21417       0
   21419   21420   21420       0   21422   21423   21423       0   21425   21426
   21426       0   21428   21429   21429       0   21431   21432   21432       0
   21434   21435   21435       0   21437   21438   21438       0   21440   21441
   21441       0   21443   21444   21444       0   21446   21447   21447       0
   21449   21450   21450       0   21452   21453   21453       0   21455   21456
   21456       0   21458   21459   21459       0   21461   21462   21462       0
   21464   21465   21465       0   21467   21468   21468       0   21470   21471
   21471       0   21473   21474   21474       0   21476   21477   21477       0
   21479   21480   21480       0   21482   21483   21483       0   21485   21486
   21486       0   21488   21489   21489       0   21491   21492   21492       0
   21494   21495   21495       0   21497   21498   21498       0   21500   21501
   21501       0   21503   21504   21504       0   21506   21507   21507       0
   21509   21510   21510       0   21512   21513   21513       0   21515   21516
   21516       0   21518   21519   21519       0   21521   21522   21522       0
   21524   21525   21525       0   21527   21528   21528       0   21530   21531
   21531       0   21533   21534   21534       0   21536   21537   21537       0
   21539   21540   21540       0   21542   21543   21543       0   21545   21546
   21546       0   21548   21549   21549       0   21551   21552   21552       0
   21554   21555   21555       0   21557   21558   21558       0   21560   21561
   21561       0   21563   21564   21564       0   21566   21567   21567       0
   21569   21570   21570       0   21572   21573   21573       0   21575   21576
   21576       0   21578   21579   21579       0   21581   21582   21582       0
   21584   21585   21585       0   21587   21588   21588       0   21590   21591
   21591       0   21593   21594   21594       0   21596   21597   21597       0
   21599   21600   21600       0   21602   21603   21603       0   21605   21606
   21606       0   21608   21609   21609       0   21611   21612   21612       0
   21614   21615   21615       0   21617   21618   21618       0   21620   21621
   21621       0   21623   21624   21624       0   21626   21627   21627       0
   21629   21630   21630       0   21632   21633   21633       0   21635   21636
   21636       0   21638   21639   21639       0   21641   21642   21642       0
   21644   21645   21645       0   21647   21648   21648       0   21650   21651
   21651       0   21653   21654   21654       0   21656   21657   21657       0
   21659   21660   21660       0   21662   21663   21663       0   21665   21666
   21666       0   21668   21669   21669       0   21671   21672   21672       0
   21674   21675   21675       0   21677   21678   21678       0   21680   21681
   21681       0   21683   21684   21684       0   21686   21687   21687       0
   21689   21690   21690       0   21692   21693   21693       0   21695   21696
   21696       0   21698   21699   21699       0   21701   21702   21702       0
   21704   21705   21705       0   21707   21708   21708       0   21710   21711
   21711       0   21713   21714   21714       0   21716   21717   21717       0
   21719   21720   21720       0   21722   21723   21723       0   21725   21726
   21726       0   21728   21729   21729       0   21731   21732   21732       0
   21734   21735   21735       0   21737   21738   21738       0   21740   21741
   21741       0   21743   21744   21744       0   21746   21747   21747       0
   21749   21750   21750       0   21752   21753   21753       0   21755   21756
   21756       0   21758   21759   21759       0   21761   21762   21762       0
   21764   21765   21765       0   21767   21768   21768       0   21770   21771
   21771       0   21773   21774   21774       0   21776   21777   21777       0
   21779   21780   21780       0   21782   21783   21783       0   21785   21786
   21786       0   21788   21789   21789       0   21791   21792   21792       0
   21794   21795   21795       0   21797   21798   21798       0   21800   21801
   21801       0   21803   21804   21804       0   21806   21807   21807       0
   21809   21810   21810       0   21812   21813   21813       0   21815   21816
   21816       0   21818   21819   21819       0   21821   21822   21822       0
   21824   21825   21825       0   21827   21828   21828       0   21830   21831
   21831       0   21833   21834   21834       0   21836   21837   21837       0
   21839   21840   21840       0   21842   21843   21843       0   21845   21846
   21846       0   21848   21849   21849       0   21851   21852   21852       0
   21854   21855   21855       0   21857   21858   21858       0   21860   21861
   21861       0   21863   21864   21864       0   21866   21867   21867       0
   21869   21870   21870       0   21872   21873   21873       0   21875   21876
   21876       0   21878   21879   21879       0   21881   21882   21882       0
   21884   21885   21885       0   21887   21888   21888       0   21890   21891
   21891       0   21893   21894   21894       0   21896   21897   21897       0
   21899   21900   21900       0   21902   21903   21903       0   21905   21906
   21906       0   21908   21909   21909       0   21911   21912   21912       0
   21914   21915   21915       0   21917   21918   21918       0   21920   21921
   21921       0   21923   21924   21924       0   21926   21927   21927       0
   21929   21930   21930       0   21932   21933   21933       0   21935   21936
   21936       0   21938   21939   21939       0   21941   21942   21942       0
   21944   21945   21945       0   21947   21948   21948       0   21950   21951
   21951       0   21953   21954   21954       0   21956   21957   21957       0
   21959   21960   21960       0   21962   21963   21963       0   21965   21966
   21966       0   21968   21969   21969       0   21971   21972   21972       0
   21974   21975   21975       0   21977   21978   21978       0   21980   21981
   21981       0   21983   21984   21984       0   21986   21987   21987       0
   21989   21990   21990       0   21992   21993   21993       0   21995   21996
   21996       0   21998   21999   21999       0   22001   22002   22002       0
   22004   22005   22005       0   22007   22008   22008       0   22010   22011
   22011       0   22013   22014   22014       0   22016   22017   22017       0
   22019   22020   22020       0   22022   22023   22023       0   22025   22026
   22026       0   22028   22029   22029       0   22031   22032   22032       0
   22034   22035   22035       0   22037   22038   22038       0   22040   22041
   22041       0   22043   22044   22044       0   22046   22047   22047       0
   22049   22050   22050       0   22052   22053   22053       0   22055   22056
   22056       0   22058   22059   22059       0   22061   22062   22062       0
   22064   22065   22065       0   22067   22068   22068       0   22070   22071
   22071       0   22073   22074   22074       0   22076   22077   22077       0
   22079   22080   22080       0   22082   22083   22083       0   22085   22086
   22086       0   22088   22089   22089       0   22091   22092   22092       0
   22094   22095   22095       0   22097   22098   22098       0   22100   22101
   22101       0   22103   22104   22104       0   22106   22107   22107       0
   22109   22110   22110       0   22112   22113   22113       0   22115   22116
   22116       0   22118   22119   22119       0   22121   22122   22122       0
   22124   22125   22125       0   22127   22128   22128       0   22130   22131
   22131       0   22133   22134   22134       0   22136   22137   22137       0
   22139   22140   22140       0   22142   22143   22143       0   22145   22146
   22146       0   22148   22149   22149       0   22151   22152   22152       0
   22154   22155   22155       0   22157   22158   22158       0   22160   22161
   22161       0   22163   22164   22164       0   22166   22167   22167       0
   22169   22170   22170       0   22172   22173   22173       0   22175   22176
   22176       0   22178   22179   22179       0   22181   22182   22182       0
   22184   22185   22185       0   22187   22188   22188       0   22190   22191
   22191       0   22193   22194   22194       0   22196   22197   22197       0
   22199   22200   22200       0   22202   22203   22203       0   22205   22206
   22206       0   22208   22209   22209       0   22211   22212   22212       0
   22214   22215   22215       0   22217   22218   22218       0   22220   22221
   22221       0   22223   22224   22224       0   22226   22227   22227       0
   22229   22230   22230       0   22232   22233   22233       0   22235   22236
   22236       0   22238   22239   22239       0   22241   22242   22242       0
   22244   22245   22245       0   22247   22248   22248       0   22250   22251
   22251       0   22253   22254   22254       0   22256   22257   22257       0
   22259   22260   22260       0   22262   22263   22263       0   22265   22266
   22266       0   22268   22269   22269       0   22271   22272   22272       0
   22274   22275   22275       0   22277   22278   22278       0   22280   22281
   22281       0   22283   22284   22284       0   22286   22287   22287       0
   22289   22290   22290       0   22292   22293   22293       0   22295   22296
   22296       0   22298   22299   22299       0   22301   22302   22302       0
   22304   22305   22305       0   22307   22308   22308       0   22310   22311
   22311       0   22313   22314   22314       0   22316   22317   22317       0
   22319   22320   22320       0   22322   22323   22323       0   22325   22326
   22326       0   22328   22329   22329       0   22331   22332   22332       0
   22334   22335   22335       0   22337   22338   22338       0   22340   22341
   22341       0   22343   22344   22344       0   22346   22347   22347       0
   22349   22350   22350       0   22352   22353   22353       0   22355   22356
   22356       0   22358   22359   22359       0   22361   22362   22362       0
   22364   22365   22365       0   22367   22368   22368       0   22370   22371
   22371       0   22373   22374   22374       0   22376   22377   22377       0
   22379   22380   22380       0   22382   22383   22383       0   22385   22386
   22386       0   22388   22389   22389       0   22391   22392   22392       0
   22394   22395   22395       0   22397   22398   22398       0   22400   22401
   22401       0   22403   22404   22404       0   22406   22407   22407       0
   22409   22410   22410       0   22412   22413   22413       0   22415   22416
   22416       0   22418   22419   22419       0   22421   22422   22422       0
   22424   22425   22425       0   22427   22428   22428       0   22430   22431
   22431       0   22433   22434   22434       0   22436   22437   22437       0
   22439   22440   22440       0   22442   22443   22443       0   22445   22446
   22446       0   22448   22449   22449       0   22451   22452   22452       0
   22454   22455   22455       0   22457   22458   22458       0   22460   22461
   22461       0   22463   22464   22464       0   22466   22467   22467       0
   22469   22470   22470       0   22472   22473   22473       0   22475   22476
   22476       0   22478   22479   22479       0   22481   22482   22482       0
   22484   22485   22485       0   22487   22488   22488       0   22490   22491
   22491       0   22493   22494   22494       0   22496   22497   22497       0
   22499   22500   22500       0   22502   22503   22503       0   22505   22506
   22506       0   22508   22509   22509       0   22511   22512   22512       0
   22514   22515   22515       0   22517   22518   22518       0   22520   22521
   22521       0   22523   22524   22524       0   22526   22527   22527       0
   22529   22530   22530       0   22532   22533   22533       0   22535   22536
   22536       0   22538   22539   22539       0   22541   22542   22542       0
   22544   22545   22545       0   22547   22548   22548       0   22550   22551
   22551       0   22553   22554   22554       0   22556   22557   22557       0
   22559   22560   22560       0   22562   22563   22563       0   22565   22566
   22566       0   22568   22569   22569       0   22571   22572   22572       0
   22574   22575   22575       0   22577   22578   22578       0   22580   22581
   22581       0   22583   22584   22584       0   22586   22587   22587       0
   22589   22590   22590       0   22592   22593   22593       0   22595   22596
   22596       0   22598   22599   22599       0   22601   22602   22602       0
   22604   22605   22605       0   22607   22608   22608       0   22610   22611
   22611       0   22613   22614   22614       0   22616   22617   22617       0
   22619   22620   22620       0   22622   22623   22623       0   22625   22626
   22626       0   22628   22629   22629       0   22631   22632   22632       0
   22634   22635   22635       0   22637   22638   22638       0   22640   22641
   22641       0   22643   22644   22644       0   22646   22647   22647       0
   22649   22650   22650       0   22652   22653   22653       0   22655   22656
   22656       0   22658   22659   22659       0   22661   22662   22662       0
   22664   22665   22665       0   22667   22668   22668       0   22670   22671
   22671       0   22673   22674   22674       0   22676   22677   22677       0
   22679   22680   22680       0   22682   22683   22683       0   22685   22686
   22686       0   22688   22689   22689       0   22691   22692   22692       0
   22694   22695   22695       0   22697   22698   22698       0   22700   22701
   22701       0   22703   22704   22704       0   22706   22707   22707       0
   22709   22710   22710       0   22712   22713   22713       0   22715   22716
   22716       0   22718   22719   22719       0   22721   22722   22722       0
   22724   22725   22725       0   22727   22728   22728       0   22730   22731
   22731       0   22733   22734   22734       0   22736   22737   22737       0
   22739   22740   22740       0   22742   22743   22743       0   22745   22746
   22746       0   22748   22749   22749       0   22751   22752   22752       0
   22754   22755   22755       0   22757   22758   22758       0   22760   22761
   22761       0   22763   22764   22764       0   22766   22767   22767       0
   22769   22770   22770       0   22772   22773   22773       0   22775   22776
   22776       0   22778   22779   22779       0   22781   22782   22782       0
   22784   22785   22785       0   22787   22788   22788       0   22790   22791
   22791       0   22793   22794   22794       0   22796   22797   22797       0
   22799   22800   22800       0   22802   22803   22803       0   22805   22806
   22806       0   22808   22809   22809       0   22811   22812   22812       0
   22814   22815   22815       0   22817   22818   22818       0   22820   22821
   22821       0   22823   22824   22824       0   22826   22827   22827       0
   22829   22830   22830       0   22832   22833   22833       0   22835   22836
   22836       0   22838   22839   22839       0   22841   22842   22842       0
   22844   22845   22845       0   22847   22848   22848       0   22850   22851
   22851       0   22853   22854   22854       0   22856   22857   22857       0
   22859   22860   22860       0   22862   22863   22863       0   22865   22866
   22866       0   22868   22869   22869       0   22871   22872   22872       0
   22874   22875   22875       0   22877   22878   22878       0   22880   22881
   22881       0   22883   22884   22884       0   22886   22887   22887       0
   22889   22890   22890       0   22892   22893   22893       0   22895   22896
   22896       0   22898   22899   22899       0   22901   22902   22902       0
   22904   22905   22905       0   22907   22908   22908       0   22910   22911
   22911       0   22913   22914   22914       0   22916   22917   22917       0
   22919   22920   22920       0   22922   22923   22923       0   22925   22926
   22926       0   22928   22929   22929       0   22931   22932   22932       0
   22934   22935   22935       0   22937   22938   22938       0   22940   22941
   22941       0   22943   22944   22944       0   22946   22947   22947       0
   22949   22950   22950       0   22952   22953   22953       0   22955   22956
   22956       0   22958   22959   22959       0   22961   22962   22962       0
   22964   22965   22965       0   22967   22968   22968       0   22970   22971
   22971       0   22973   22974   22974       0   22976   22977   22977       0
   22979   22980   22980       0   22982   22983   22983       0   22985   22986
   22986       0   22988   22989   22989       0   22991   22992   22992       0
   22994   22995   22995       0   22997   22998   22998       0   23000   23001
   23001       0   23003   23004   23004       0   23006   23007   23007       0
   23009   23010   23010       0   23012   23013   23013       0   23015   23016
   23016       0   23018   23019   23019       0   23021   23022   23022       0
   23024   23025   23025       0   23027   23028   23028       0   23030   23031
   23031       0   23033   23034   23034       0   23036   23037   23037       0
   23039   23040   23040       0   23042   23043   23043       0   23045   23046
   23046       0   23048   23049   23049       0   23051   23052   23052       0
   23054   23055   23055       0   23057   23058   23058       0   23060   23061
   23061       0   23063   23064   23064       0   23066   23067   23067       0
   23069   23070   23070       0   23072   23073   23073       0   23075   23076
   23076       0   23078   23079   23079       0   23081   23082   23082       0
   23084   23085   23085       0   23087   23088   23088       0   23090   23091
   23091       0   23093   23094   23094       0   23096   23097   23097       0
   23099   23100   23100       0   23102   23103   23103       0   23105   23106
   23106       0   23108   23109   23109       0   23111   23112   23112       0
   23114   23115   23115       0   23117   23118   23118       0   23120   23121
   23121       0   23123   23124   23124       0   23126   23127   23127       0
   23129   23130   23130       0   23132   23133   23133       0   23135   23136
   23136       0   23138   23139   23139       0   23141   23142   23142       0
   23144   23145   23145       0   23147   23148   23148       0   23150   23151
   23151       0   23153   23154   23154       0   23156   23157   23157       0
   23159   23160   23160       0   23162   23163   23163       0   23165   23166
   23166       0   23168   23169   23169       0   23171   23172   23172       0
   23174   23175   23175       0   23177   23178   23178       0   23180   23181
   23181       0   23183   23184   23184       0   23186   23187   23187       0
   23189   23190   23190       0   23192   23193   23193       0   23195   23196
   23196       0   23198   23199   23199       0   23201   23202   23202       0
   23204   23205   23205       0   23207   23208   23208       0   23210   23211
   23211       0   23213   23214   23214       0   23216   23217   23217       0
   23219   23220   23220       0   23222   23223   23223       0   23225   23226
   23226       0   23228   23229   23229       0   23231   23232   23232       0
   23234   23235   23235       0   23237   23238   23238       0   23240   23241
   23241       0   23243   23244   23244       0   23246   23247   23247       0
   23249   23250   23250       0   23252   23253   23253       0   23255   23256
   23256       0   23258   23259   23259       0   23261   23262   23262       0
   23264   23265   23265       0   23267   23268   23268       0   23270   23271
   23271       0   23273   23274   23274       0   23276   23277   23277       0
   23279   23280   23280       0   23282   23283   23283       0   23285   23286
   23286       0   23288   23289   23289       0   23291   23292   23292       0
   23294   23295   23295       0   23297   23298   23298       0   23300   23301
   23301       0   23303   23304   23304       0   23306   23307   23307       0
   23309   23310   23310       0   23312   23313   23313       0   23315   23316
   23316       0   23318   23319   23319       0   23321   23322   23322       0
   23324   23325   23325       0   23327   23328   23328       0   23330   23331
   23331       0   23333   23334   23334       0   23336   23337   23337       0
   23339   23340   23340       0   23342   23343   23343       0   23345   23346
   23346       0   23348   23349   23349       0   23351   23352   23352       0
   23354   23355   23355       0   23357   23358   23358       0   23360   23361
   23361       0   23363   23364   23364       0   23366   23367   23367       0
   23369   23370   23370       0   23372   23373   23373       0   23375   23376
   23376       0   23378   23379   23379       0   23381   23382   23382       0
   23384   23385   23385       0   23387   23388   23388       0   23390   23391
   23391       0   23393   23394   23394       0   23396   23397   23397       0
   23399   23400   23400       0   23402   23403   23403       0   23405   23406
   23406       0   23408   23409   23409       0   23411   23412   23412       0
   23414   23415   23415       0   23417   23418   23418       0   23420   23421
   23421       0   23423   23424   23424       0   23426   23427   23427       0
   23429   23430   23430       0   23432   23433   23433       0   23435   23436
   23436       0   23438   23439   23439       0   23441   23442   23442       0
   23444   23445   23445       0   23447   23448   23448       0   23450   23451
   23451       0   23453   23454   23454       0   23456   23457   23457       0
   23459   23460   23460       0   23462   23463   23463       0   23465   23466
   23466       0   23468   23469   23469       0   23471   23472   23472       0
   23474   23475   23475       0   23477   23478   23478       0   23480   23481
   23481       0   23483   23484   23484       0   23486   23487   23487       0
   23489   23490   23490       0   23492   23493   23493       0   23495   23496
   23496       0   23498   23499   23499       0   23501   23502   23502       0
   23504   23505   23505       0   23507   23508   23508       0   23510   23511
   23511       0   23513   23514   23514       0   23516   23517   23517       0
   23519   23520   23520       0   23522   23523   23523       0   23525   23526
   23526       0   23528   23529   23529       0   23531   23532   23532       0
   23534   23535   23535       0   23537   23538   23538       0   23540   23541
   23541       0   23543   23544   23544       0   23546   23547   23547       0
   23549   23550   23550       0   23552   23553   23553       0   23555   23556
   23556       0   23558   23559   23559       0   23561   23562   23562       0
   23564   23565   23565       0   23567   23568   23568       0   23570   23571
   23571       0   23573   23574   23574       0   23576   23577   23577       0
   23579   23580   23580       0   23582   23583   23583       0   23585   23586
   23586       0   23588   23589   23589       0   23591   23592   23592       0
   23594   23595   23595       0   23597   23598   23598       0   23600   23601
   23601       0   23603   23604   23604       0   23606   23607   23607       0
   23609   23610   23610       0   23612   23613   23613       0   23615   23616
   23616       0   23618   23619   23619       0   23621   23622   23622       0
   23624   23625   23625       0   23627   23628   23628       0   23630   23631
   23631       0   23633   23634   23634       0   23636   23637   23637       0
   23639   23640   23640       0   23642   23643   23643       0   23645   23646
   23646       0   23648   23649   23649       0   23651   23652   23652       0
   23654   23655   23655       0   23657   23658   23658       0   23660   23661
   23661       0   23663   23664   23664       0   23666   23667   23667       0
   23669   23670   23670       0   23672   23673   23673       0   23675   23676
   23676       0   23678   23679   23679       0   23681   23682   23682       0
   23684   23685   23685       0   23687   23688   23688       0   23690   23691
   23691       0   23693   23694   23694       0   23696   23697   23697       0
   23699   23700   23700       0   23702   23703   23703       0   23705   23706
   23706       0   23708   23709   23709       0   23711   23712   23712       0
   23714   23715   23715       0   23717   23718   23718       0   23720   23721
   23721       0   23723   23724   23724       0   23726   23727   23727       0
   23729   23730   23730       0   23732   23733   23733       0   23735   23736
   23736       0   23738   23739   23739       0   23741   23742   23742       0
   23744   23745   23745       0   23747   23748   23748       0   23750   23751
   23751       0   23753   23754   23754       0   23756   23757   23757       0
   23759   23760   23760       0   23762   23763   23763       0   23765   23766
   23766       0   23768   23769   23769       0   23771   23772   23772       0
   23774   23775   23775       0   23777   23778   23778       0   23780   23781
   23781       0   23783   23784   23784       0   23786   23787   23787       0
   23789   23790   23790       0   23792   23793   23793       0   23795   23796
   23796       0   23798   23799   23799       0   23801   23802   23802       0
   23804   23805   23805       0   23807   23808   23808       0   23810   23811
   23811       0   23813   23814   23814       0   23816   23817   23817       0
   23819   23820   23820       0   23822   23823   23823       0   23825   23826
   23826       0   23828   23829   23829       0   23831   23832   23832       0
   23834   23835   23835       0   23837   23838   23838       0   23840   23841
   23841       0   23843   23844   23844       0   23846   23847   23847       0
   23849   23850   23850       0   23852   23853   23853       0   23855   23856
   23856       0   23858   23859   23859       0   23861   23862   23862       0
   23864   23865   23865       0   23867   23868   23868       0   23870   23871
   23871       0   23873   23874   23874       0   23876   23877   23877       0
   23879   23880   23880       0   23882   23883   23883       0   23885   23886
   23886       0   23888   23889   23889       0   23891   23892   23892       0
   23894   23895   23895       0   23897   23898   23898       0   23900   23901
   23901       0   23903   23904   23904       0   23906   23907   23907       0
   23909   23910   23910       0   23912   23913   23913       0   23915   23916
   23916       0   23918   23919   23919       0   23921   23922   23922       0
   23924   23925   23925       0   23927   23928   23928       0   23930   23931
   23931       0   23933   23934   23934       0   23936   23937   23937       0
   23939   23940   23940       0   23942   23943   23943       0   23945   23946
   23946       0   23948   23949   23949       0   23951   23952   23952       0
   23954   23955   23955       0   23957   23958   23958       0   23960   23961
   23961       0   23963   23964   23964       0   23966   23967   23967       0
   23969   23970   23970       0   23972   23973   23973       0   23975   23976
   23976       0   23978   23979   23979       0   23981   23982   23982       0
   23984   23985   23985       0   23987   23988   23988       0   23990   23991
   23991       0   23993   23994   23994       0   23996   23997   23997       0
   23999   24000   24000       0   24002   24003   24003       0   24005   24006
   24006       0   24008   24009   24009       0   24011   24012   24012       0
   24014   24015   24015       0   24017   24018   24018       0   24020   24021
   24021       0   24023   24024   24024       0   24026   24027   24027       0
   24029   24030   24030       0   24032   24033   24033       0   24035   24036
   24036       0   24038   24039   24039       0   24041   24042   24042       0
   24044   24045   24045       0   24047   24048   24048       0   24050   24051
   24051       0   24053   24054   24054       0   24056   24057   24057       0
   24059   24060   24060       0   24062   24063   24063       0   24065   24066
   24066       0   24068   24069   24069       0   24071   24072   24072       0
   24074   24075   24075       0   24077   24078   24078       0   24080   24081
   24081       0   24083   24084   24084       0   24086   24087   24087       0
   24089   24090   24090       0   24092   24093   24093       0   24095   24096
   24096       0   24098   24099   24099       0   24101   24102   24102       0
   24104   24105   24105       0   24107   24108   24108       0   24110   24111
   24111       0   24113   24114   24114       0   24116   24117   24117       0
   24119   24120   24120       0   24122   24123   24123       0   24125   24126
   24126       0   24128   24129   24129       0   24131   24132   24132       0
   24134   24135   24135       0   24137   24138   24138       0   24140   24141
   24141       0   24143   24144   24144       0   24146   24147   24147       0
   24149   24150   24150       0   24152   24153   24153       0   24155   24156
   24156       0   24158   24159   24159       0   24161   24162   24162       0
   24164   24165   24165       0   24167   24168   24168       0   24170   24171
   24171       0   24173   24174   24174       0   24176   24177   24177       0
   24179   24180   24180       0   24182   24183   24183       0   24185   24186
   24186       0   24188   24189   24189       0   24191   24192   24192       0
   24194   24195   24195       0   24197   24198   24198       0   24200   24201
   24201       0   24203   24204   24204       0   24206   24207   24207       0
   24209   24210   24210       0   24212   24213   24213       0   24215   24216
   24216       0   24218   24219   24219       0   24221   24222   24222       0
   24224   24225   24225       0   24227   24228   24228       0   24230   24231
   24231       0   24233   24234   24234       0   24236   24237   24237       0
   24239   24240   24240       0   24242   24243   24243       0   24245   24246
   24246       0   24248   24249   24249       0   24251   24252   24252       0
   24254   24255   24255       0   24257   24258   24258       0   24260   24261
   24261       0   24263   24264   24264       0   24266   24267   24267       0
   24269   24270   24270       0   24272   24273   24273       0   24275   24276
   24276       0   24278   24279   24279       0   24281   24282   24282       0
   24284   24285   24285       0   24287   24288   24288       0   24290   24291
   24291       0   24293   24294   24294       0   24296   24297   24297       0
   24299   24300   24300       0   24302   24303   24303       0   24305   24306
   24306       0   24308   24309   24309       0   24311   24312   24312       0
   24314   24315   24315       0   24317   24318   24318       0   24320   24321
   24321       0   24323   24324   24324       0   24326   24327   24327       0
   24329   24330   24330       0   24332   24333   24333       0   24335   24336
   24336       0   24338   24339   24339       0   24341   24342   24342       0
   24344   24345   24345       0   24347   24348   24348       0   24350   24351
   24351       0   24353   24354   24354       0   24356   24357   24357       0
   24359   24360   24360       0   24362   24363   24363       0   24365   24366
   24366       0   24368   24369   24369       0   24371   24372   24372       0
   24374   24375   24375       0   24377   24378   24378       0   24380   24381
   24381       0   24383   24384   24384       0   24386   24387   24387       0
   24389   24390   24390       0   24392   24393   24393       0   24395   24396
   24396       0   24398   24399   24399       0   24401   24402   24402       0
   24404   24405   24405       0   24407   24408   24408       0   24410   24411
   24411       0   24413   24414   24414       0   24416   24417   24417       0
   24419   24420   24420       0   24422   24423   24423       0   24425   24426
   24426       0   24428   24429   24429       0   24431   24432   24432       0
   24434   24435   24435       0   24437   24438   24438       0   24440   24441
   24441       0   24443   24444   24444       0   24446   24447   24447       0
   24449   24450   24450       0   24452   24453   24453       0   24455   24456
   24456       0   24458   24459   24459       0   24461   24462   24462       0
   24464   24465   24465       0   24467   24468   24468       0   24470   24471
   24471       0   24473   24474   24474       0   24476   24477   24477       0
   24479   24480   24480       0   24482   24483   24483       0   24485   24486
   24486       0   24488   24489   24489       0   24491   24492   24492       0
   24494   24495   24495       0   24497   24498   24498       0   24500   24501
   24501       0   24503   24504   24504       0   24506   24507   24507       0
   24509   24510   24510       0   24512   24513   24513       0   24515   24516
   24516       0   24518   24519   24519       0   24521   24522   24522       0
   24524   24525   24525       0   24527   24528   24528       0   24530   24531
   24531       0   24533   24534   24534       0   24536   24537   24537       0
   24539   24540   24540       0   24542   24543   24543       0   24545   24546
   24546       0   24548   24549   24549       0   24551   24552   24552       0
   24554   24555   24555       0   24557   24558   24558       0   24560   24561
   24561       0   24563   24564   24564       0   24566   24567   24567       0
   24569   24570   24570       0   24572   24573   24573       0   24575   24576
   24576       0   24578   24579   24579       0   24581   24582   24582       0
   24584   24585   24585       0   24587   24588   24588       0   24590   24591
   24591       0   24593   24594   24594       0   24596   24597   24597       0
   24599   24600   24600       0   24602   24603   24603       0   24605   24606
   24606       0   24608   24609   24609       0   24611   24612   24612       0
   24614   24615   24615       0   24617   24618   24618       0   24620   24621
   24621       0   24623   24624   24624       0   24626   24627   24627       0
   24629   24630   24630       0   24632   24633   24633       0   24635   24636
   24636       0   24638   24639   24639       0   24641   24642   24642       0
   24644   24645   24645       0   24647   24648   24648       0   24650   24651
   24651       0   24653   24654   24654       0   24656   24657   24657       0
   24659   24660   24660       0   24662   24663   24663       0   24665   24666
   24666       0   24668   24669   24669       0   24671   24672   24672       0
   24674   24675   24675       0   24677   24678   24678       0   24680   24681
   24681       0   24683   24684   24684       0   24686   24687   24687       0
   24689   24690   24690       0   24692   24693   24693       0   24695   24696
   24696       0   24698   24699   24699       0   24701   24702   24702       0
   24704   24705   24705       0   24707   24708   24708       0   24710   24711
   24711       0   24713   24714   24714       0   24716   24717   24717       0
   24719   24720   24720       0   24722   24723   24723       0   24725   24726
   24726       0   24728   24729   24729       0   24731   24732   24732       0
   24734   24735   24735       0   24737   24738   24738       0   24740   24741
   24741       0   24743   24744   24744       0   24746   24747   24747       0
   24749   24750   24750       0   24752   24753   24753       0   24755   24756
   24756       0   24758   24759   24759       0   24761   24762   24762       0
   24764   24765   24765       0   24767   24768   24768       0   24770   24771
   24771       0   24773   24774   24774       0   24776   24777   24777       0
   24779   24780   24780       0   24782   24783   24783       0   24785   24786
   24786       0   24788   24789   24789       0   24791   24792   24792       0
   24794   24795   24795       0   24797   24798   24798       0   24800   24801
   24801       0   24803   24804   24804       0   24806   24807   24807       0
   24809   24810   24810       0   24812   24813   24813       0   24815   24816
   24816       0   24818   24819   24819       0   24821   24822   24822       0
   24824   24825   24825       0   24827   24828   24828       0   24830   24831
   24831       0   24833   24834   24834       0   24836   24837   24837       0
   24839   24840   24840       0   24842   24843   24843       0   24845   24846
   24846       0   24848   24849   24849       0   24851   24852   24852       0
   24854   24855   24855       0   24857   24858   24858       0   24860   24861
   24861       0   24863   24864   24864       0   24866   24867   24867       0
   24869   24870   24870       0   24872   24873   24873       0   24875   24876
   24876       0   24878   24879   24879       0   24881   24882   24882       0
   24884   24885   24885       0   24887   24888   24888       0   24890   24891
   24891       0   24893   24894   24894       0   24896   24897   24897       0
   24899   24900   24900       0   24902   24903   24903       0   24905   24906
   24906       0   24908   24909   24909       0   24911   24912   24912       0
   24914   24915   24915       0   24917   24918   24918       0   24920   24921
   24921       0   24923   24924   24924       0   24926   24927   24927       0
   24929   24930   24930       0   24932   24933   24933       0   24935   24936
   24936       0   24938   24939   24939       0   24941   24942   24942       0
   24944   24945   24945       0   24947   24948   24948       0   24950   24951
   24951       0   24953   24954   24954       0   24956   24957   24957       0
   24959   24960   24960       0   24962   24963   24963       0   24965   24966
   24966       0   24968   24969   24969       0   24971   24972   24972       0
   24974   24975   24975       0   24977   24978   24978       0   24980   24981
   24981       0   24983   24984   24984       0   24986   24987   24987       0
   24989   24990   24990       0   24992   24993   24993       0   24995   24996
   24996       0   24998   24999   24999       0   25001   25002   25002       0
   25004   25005   25005       0   25007   25008   25008       0   25010   25011
   25011       0   25013   25014   25014       0   25016   25017   25017       0
   25019   25020   25020       0   25022   25023   25023       0   25025   25026
   25026       0   25028   25029   25029       0   25031   25032   25032       0
   25034   25035   25035       0   25037   25038   25038       0   25040   25041
   25041       0   25043   25044   25044       0   25046   25047   25047       0
   25049   25050   25050       0   25052   25053   25053       0   25055   25056
   25056       0   25058   25059   25059       0   25061   25062   25062       0
   25064   25065   25065       0   25067   25068   25068       0   25070   25071
   25071       0   25073   25074   25074       0   25076   25077   25077       0
   25079   25080   25080       0   25082   25083   25083       0   25085   25086
   25086       0   25088   25089   25089       0   25091   25092   25092       0
   25094   25095   25095       0   25097   25098   25098       0   25100   25101
   25101       0   25103   25104   25104       0   25106   25107   25107       0
   25109   25110   25110       0   25112   25113   25113       0   25115   25116
   25116       0   25118   25119   25119       0   25121   25122   25122       0
   25124   25125   25125       0   25127   25128   25128       0   25130   25131
   25131       0   25133   25134   25134       0   25136   25137   25137       0
   25139   25140   25140       0   25142   25143   25143       0   25145   25146
   25146       0   25148   25149   25149       0   25151   25152   25152       0
   25154   25155   25155       0   25157   25158   25158       0   25160   25161
   25161       0   25163   25164   25164       0   25166   25167   25167       0
   25169   25170   25170       0   25172   25173   25173       0   25175   25176
   25176       0   25178   25179   25179       0   25181   25182   25182       0
   25184   25185   25185       0   25187   25188   25188       0   25190   25191
   25191       0   25193   25194   25194       0   25196   25197   25197       0
   25199   25200   25200       0   25202   25203   25203       0   25205   25206
   25206       0   25208   25209   25209       0   25211   25212   25212       0
   25214   25215   25215       0   25217   25218   25218       0   25220   25221
   25221       0   25223   25224   25224       0   25226   25227   25227       0
   25229   25230   25230       0   25232   25233   25233       0   25235   25236
   25236       0   25238   25239   25239       0   25241   25242   25242       0
   25244   25245   25245       0   25247   25248   25248       0   25250   25251
   25251       0   25253   25254   25254       0   25256   25257   25257       0
   25259   25260   25260       0   25262   25263   25263       0   25265   25266
   25266       0   25268   25269   25269       0   25271   25272   25272       0
   25274   25275   25275       0   25277   25278   25278       0   25280   25281
   25281       0   25283   25284   25284       0   25286   25287   25287       0
   25289   25290   25290       0   25292   25293   25293       0   25295   25296
   25296       0   25298   25299   25299       0   25301   25302   25302       0
   25304   25305   25305       0   25307   25308   25308       0   25310   25311
   25311       0   25313   25314   25314       0   25316   25317   25317       0
   25319   25320   25320       0   25322   25323   25323       0   25325   25326
   25326       0   25328   25329   25329       0   25331   25332   25332       0
   25334   25335   25335       0   25337   25338   25338       0   25340   25341
   25341       0   25343   25344   25344       0   25346   25347   25347       0
   25349   25350   25350       0   25352   25353   25353       0   25355   25356
   25356       0   25358   25359   25359       0   25361   25362   25362       0
   25364   25365   25365       0   25367   25368   25368       0   25370   25371
   25371       0   25373   25374   25374       0   25376   25377   25377       0
   25379   25380   25380       0   25382   25383   25383       0   25385   25386
   25386       0   25388   25389   25389       0   25391   25392   25392       0
   25394   25395   25395       0   25397   25398   25398       0   25400   25401
   25401       0   25403   25404   25404       0   25406   25407   25407       0
   25409   25410   25410       0   25412   25413   25413       0   25415   25416
   25416       0   25418   25419   25419       0   25421   25422   25422       0
   25424   25425   25425       0   25427   25428   25428       0   25430   25431
   25431       0   25433   25434   25434       0   25436   25437   25437       0
   25439   25440   25440       0   25442   25443   25443       0   25445   25446
   25446       0   25448   25449   25449       0   25451   25452   25452       0
   25454   25455   25455       0   25457   25458   25458       0   25460   25461
   25461       0   25463   25464   25464       0   25466   25467   25467       0
   25469   25470   25470       0   25472   25473   25473       0   25475   25476
   25476       0   25478   25479   25479       0   25481   25482   25482       0
   25484   25485   25485       0   25487   25488   25488       0   25490   25491
   25491       0   25493   25494   25494       0   25496   25497   25497       0
   25499   25500   25500       0   25502   25503   25503       0   25505   25506
   25506       0   25508   25509   25509       0   25511   25512   25512       0
   25514   25515   25515       0   25517   25518   25518       0   25520   25521
   25521       0   25523   25524   25524       0   25526   25527   25527       0
   25529   25530   25530       0   25532   25533   25533       0   25535   25536
   25536       0   25538   25539   25539       0   25541   25542   25542       0
   25544   25545   25545       0   25547   25548   25548       0   25550   25551
   25551       0   25553   25554   25554       0   25556   25557   25557       0
   25559   25560   25560       0   25562   25563   25563       0   25565   25566
   25566       0   25568   25569   25569       0   25571   25572   25572       0
   25574   25575   25575       0   25577   25578   25578       0   25580   25581
   25581       0   25583   25584   25584       0   25586   25587   25587       0
   25589   25590   25590       0   25592   25593   25593       0   25595   25596
   25596       0   25598   25599   25599       0   25601   25602   25602       0
   25604   25605   25605       0   25607   25608   25608       0   25610   25611
   25611       0   25613   25614   25614       0   25616   25617   25617       0
   25619   25620   25620       0   25622   25623   25623       0   25625   25626
   25626       0   25628   25629   25629       0   25631   25632   25632       0
   25634   25635   25635       0   25637   25638   25638       0   25640   25641
   25641       0   25643   25644   25644       0   25646   25647   25647       0
   25649   25650   25650       0   25652   25653   25653       0   25655   25656
   25656       0   25658   25659   25659       0   25661   25662   25662       0
   25664   25665   25665       0   25667   25668   25668       0   25670   25671
   25671       0   25673   25674   25674       0   25676   25677   25677       0
   25679   25680   25680       0   25682   25683   25683       0   25685   25686
   25686       0   25688   25689   25689       0   25691   25692   25692       0
   25694   25695   25695       0   25697   25698   25698       0   25700   25701
   25701       0   25703   25704   25704       0   25706   25707   25707       0
   25709   25710   25710       0   25712   25713   25713       0   25715   25716
   25716       0   25718   25719   25719       0   25721   25722   25722       0
   25724   25725   25725       0   25727   25728   25728       0   25730   25731
   25731       0   25733   25734   25734       0   25736   25737   25737       0
   25739   25740   25740       0   25742   25743   25743       0   25745   25746
   25746       0   25748   25749   25749       0   25751   25752   25752       0
   25754   25755   25755       0   25757   25758   25758       0   25760   25761
   25761       0   25763   25764   25764       0   25766   25767   25767       0
   25769   25770   25770       0   25772   25773   25773       0   25775   25776
   25776       0   25778   25779   25779       0   25781   25782   25782       0
   25784   25785   25785       0   25787   25788   25788       0   25790   25791
   25791       0   25793   25794   25794       0   25796   25797   25797       0
   25799   25800   25800       0   25802   25803   25803       0   25805   25806
   25806       0   25808   25809   25809       0   25811   25812   25812       0
   25814   25815   25815       0   25817   25818   25818       0   25820   25821
   25821       0   25823   25824   25824       0   25826   25827   25827       0
   25829   25830   25830       0   25832   25833   25833       0   25835   25836
   25836       0   25838   25839   25839       0   25841   25842   25842       0
   25844   25845   25845       0   25847   25848   25848       0   25850   25851
   25851       0   25853   25854   25854       0   25856   25857   25857       0
   25859   25860   25860       0   25862   25863   25863       0   25865   25866
   25866       0   25868   25869   25869       0   25871   25872   25872       0
   25874   25875   25875       0   25877   25878   25878       0   25880   25881
   25881       0   25883   25884   25884       0   25886   25887   25887       0
   25889   25890   25890       0   25892   25893   25893       0   25895   25896
   25896       0   25898   25899   25899       0   25901   25902   25902       0
   25904   25905   25905       0   25907   25908   25908       0   25910   25911
   25911       0   25913   25914   25914       0   25916   25917   25917       0
   25919   25920   25920       0   25922   25923   25923       0   25925   25926
   25926       0   25928   25929   25929       0   25931   25932   25932       0
   25934   25935   25935       0   25937   25938   25938       0   25940   25941
   25941       0   25943   25944   25944       0   25946   25947   25947       0
   25949   25950   25950       0   25952   25953   25953       0   25955   25956
   25956       0   25958   25959   25959       0   25961   25962   25962       0
   25964   25965   25965       0   25967   25968   25968       0   25970   25971
   25971       0   25973   25974   25974       0   25976   25977   25977       0
   25979   25980   25980       0   25982   25983   25983       0   25985   25986
   25986       0   25988   25989   25989       0   25991   25992   25992       0
   25994   25995   25995       0   25997   25998   25998       0   26000   26001
   26001       0   26003   26004   26004       0   26006   26007   26007       0
   26009   26010   26010       0   26012   26013   26013       0   26015   26016
   26016       0   26018   26019   26019       0   26021   26022   26022       0
   26024   26025   26025       0   26027   26028   26028       0   26030   26031
   26031       0   26033   26034   26034       0   26036   26037   26037       0
   26039   26040   26040       0   26042   26043   26043       0   26045   26046
   26046       0   26048   26049   26049       0   26051   26052   26052       0
   26054   26055   26055       0   26057   26058   26058       0   26060   26061
   26061       0   26063   26064   26064       0   26066   26067   26067       0
   26069   26070   26070       0   26072   26073   26073       0   26075   26076
   26076       0   26078   26079   26079       0   26081   26082   26082       0
   26084   26085   26085       0   26087   26088   26088       0   26090   26091
   26091       0   26093   26094   26094       0   26096   26097   26097       0
   26099   26100   26100       0   26102   26103   26103       0   26105   26106
   26106       0   26108   26109   26109       0   26111   26112   26112       0
   26114   26115   26115       0   26117   26118   26118       0   26120   26121
   26121       0   26123   26124   26124       0   26126   26127   26127       0
   26129   26130   26130       0   26132   26133   26133       0   26135   26136
   26136       0   26138   26139   26139       0   26141   26142   26142       0
   26144   26145   26145       0   26147   26148   26148       0   26150   26151
   26151       0   26153   26154   26154       0   26156   26157   26157       0
   26159   26160   26160       0   26162   26163   26163       0   26165   26166
   26166       0   26168   26169   26169       0   26171   26172   26172       0
   26174   26175   26175       0   26177   26178   26178       0   26180   26181
   26181       0   26183   26184   26184       0   26186   26187   26187       0
   26189   26190   26190       0   26192   26193   26193       0   26195   26196
   26196       0   26198   26199   26199       0   26201   26202   26202       0
   26204   26205   26205       0   26207   26208   26208       0   26210   26211
   26211       0   26213   26214   26214       0   26216   26217   26217       0
   26219   26220   26220       0   26222   26223   26223       0   26225   26226
   26226       0   26228   26229   26229       0   26231   26232   26232       0
   26234   26235   26235       0   26237   26238   26238       0   26240   26241
   26241       0   26243   26244   26244       0   26246   26247   26247       0
   26249   26250   26250       0   26252   26253   26253       0   26255   26256
   26256       0   26258   26259   26259       0   26261   26262   26262       0
   26264   26265   26265       0   26267   26268   26268       0   26270   26271
   26271       0   26273   26274   26274       0   26276   26277   26277       0
   26279   26280   26280       0   26282   26283   26283       0   26285   26286
   26286       0   26288   26289   26289       0   26291   26292   26292       0
   26294   26295   26295       0   26297   26298   26298       0   26300   26301
   26301       0   26303   26304   26304       0   26306   26307   26307       0
   26309   26310   26310       0   26312   26313   26313       0   26315   26316
   26316       0   26318   26319   26319       0   26321   26322   26322       0
   26324   26325   26325       0   26327   26328   26328       0   26330   26331
   26331       0   26333   26334   26334       0   26336   26337   26337       0
   26339   26340   26340       0   26342   26343   26343       0   26345   26346
   26346       0   26348   26349   26349       0   26351   26352   26352       0
   26354   26355   26355       0   26357   26358   26358       0   26360   26361
   26361       0   26363   26364   26364       0   26366   26367   26367       0
   26369   26370   26370       0   26372   26373   26373       0   26375   26376
   26376       0   26378   26379   26379       0   26381   26382   26382       0
   26384   26385   26385       0   26387   26388   26388       0   26390   26391
   26391       0   26393   26394   26394       0   26396   26397   26397       0
   26399   26400   26400       0   26402   26403   26403       0   26405   26406
   26406       0   26408   26409   26409       0   26411   26412   26412       0
   26414   26415   26415       0   26417   26418   26418       0   26420   26421
   26421       0   26423   26424   26424       0   26426   26427   26427       0
   26429   26430   26430       0   26432   26433   26433       0   26435   26436
   26436       0   26438   26439   26439       0   26441   26442   26442       0
   26444   26445   26445       0   26447   26448   26448       0   26450   26451
   26451       0   26453   26454   26454       0   26456   26457   26457       0
   26459   26460   26460       0   26462   26463   26463       0   26465   26466
   26466       0   26468   26469   26469       0   26471   26472   26472       0
   26474   26475   26475       0   26477   26478   26478       0   26480   26481
   26481       0   26483   26484   26484       0   26486   26487   26487       0
   26489   26490   26490       0   26492   26493   26493       0   26495   26496
   26496       0   26498   26499   26499       0   26501   26502   26502       0
   26504   26505   26505       0   26507   26508   26508       0   26510   26511
   26511       0   26513   26514   26514       0   26516   26517   26517       0
   26519   26520   26520       0   26522   26523   26523       0   26525   26526
   26526       0   26528   26529   26529       0   26531   26532   26532       0
   26534   26535   26535       0   26537   26538   26538       0   26540   26541
   26541       0   26543   26544   26544       0   26546   26547   26547       0
   26549   26550   26550       0   26552   26553   26553       0   26555   26556
   26556       0   26558   26559   26559       0   26561   26562   26562       0
   26564   26565   26565       0   26567   26568   26568       0   26570   26571
   26571       0   26573   26574   26574       0   26576   26577   26577       0
   26579   26580   26580       0   26582   26583   26583       0   26585   26586
   26586       0   26588   26589   26589       0   26591   26592   26592       0
   26594   26595   26595       0   26597   26598   26598       0   26600   26601
   26601       0   26603   26604   26604       0   26606   26607   26607       0
   26609   26610   26610       0   26612   26613   26613       0   26615   26616
   26616       0   26618   26619   26619       0   26621   26622   26622       0
   26624   26625   26625       0   26627   26628   26628       0   26630   26631
   26631       0   26633   26634   26634       0   26636   26637   26637       0
   26639   26640   26640       0   26642   26643   26643       0   26645   26646
   26646       0   26648   26649   26649       0   26651   26652   26652       0
   26654   26655   26655       0   26657   26658   26658       0   26660   26661
   26661       0   26663   26664   26664       0   26666   26667   26667       0
   26669   26670   26670       0   26672   26673   26673       0   26675   26676
   26676       0   26678   26679   26679       0   26681   26682   26682       0
   26684   26685   26685       0   26687   26688   26688       0   26690   26691
   26691       0   26693   26694   26694       0   26696   26697   26697       0
   26699   26700   26700       0   26702   26703   26703       0   26705   26706
   26706       0   26708   26709   26709       0   26711   26712   26712       0
   26714   26715   26715       0   26717   26718   26718       0   26720   26721
   26721       0   26723   26724   26724       0   26726   26727   26727       0
   26729   26730   26730       0   26732   26733   26733       0   26735   26736
   26736       0   26738   26739   26739       0   26741   26742   26742       0
   26744   26745   26745       0   26747   26748   26748       0   26750   26751
   26751       0   26753   26754   26754       0   26756   26757   26757       0
   26759   26760   26760       0   26762   26763   26763       0   26765   26766
   26766       0   26768   26769   26769       0   26771   26772   26772       0
   26774   26775   26775       0   26777   26778   26778       0   26780   26781
   26781       0   26783   26784   26784       0   26786   26787   26787       0
   26789   26790   26790       0   26792   26793   26793       0   26795   26796
   26796       0   26798   26799   26799       0   26801   26802   26802       0
   26804   26805   26805       0   26807   26808   26808       0   26810   26811
   26811       0   26813   26814   26814       0   26816   26817   26817       0
   26819   26820   26820       0   26822   26823   26823       0   26825   26826
   26826       0   26828   26829   26829       0   26831   26832   26832       0
   26834   26835   26835       0   26837   26838   26838       0   26840   26841
   26841       0   26843   26844   26844       0   26846   26847   26847       0
   26849   26850   26850       0   26852   26853   26853       0   26855   26856
   26856       0   26858   26859   26859       0   26861   26862   26862       0
   26864   26865   26865       0   26867   26868   26868       0   26870   26871
   26871       0   26873   26874   26874       0   26876   26877   26877       0
   26879   26880   26880       0   26882   26883   26883       0   26885   26886
   26886       0   26888   26889   26889       0   26891   26892   26892       0
   26894   26895   26895       0   26897   26898   26898       0   26900   26901
   26901       0   26903   26904   26904       0   26906   26907   26907       0
   26909   26910   26910       0   26912   26913   26913       0   26915   26916
   26916       0   26918   26919   26919       0   26921   26922   26922       0
   26924   26925   26925       0   26927   26928   26928       0   26930   26931
   26931       0   26933   26934   26934       0   26936   26937   26937       0
   26939   26940   26940       0   26942   26943   26943       0   26945   26946
   26946       0   26948   26949   26949       0   26951   26952   26952       0
   26954   26955   26955       0   26957   26958   26958       0   26960   26961
   26961       0   26963   26964   26964       0   26966   26967   26967       0
   26969   26970   26970       0   26972   26973   26973       0   26975   26976
   26976       0   26978   26979   26979       0   26981   26982   26982       0
   26984   26985   26985       0   26987   26988   26988       0   26990   26991
   26991       0   26993   26994   26994       0   26996   26997   26997       0
   26999   27000   27000       0   27002   27003   27003       0   27005   27006
   27006       0   27008   27009   27009       0   27011   27012   27012       0
   27014   27015   27015       0   27017   27018   27018       0   27020   27021
   27021       0   27023   27024   27024       0   27026   27027   27027       0
   27029   27030   27030       0   27032   27033   27033       0   27035   27036
   27036       0   27038   27039   27039       0   27041   27042   27042       0
   27044   27045   27045       0   27047   27048   27048       0   27050   27051
   27051       0   27053   27054   27054       0   27056   27057   27057       0
   27059   27060   27060       0   27062   27063   27063       0   27065   27066
   27066       0   27068   27069   27069       0   27071   27072   27072       0
   27074   27075   27075       0   27077   27078   27078       0   27080   27081
   27081       0   27083   27084   27084       0   27086   27087   27087       0
   27089   27090   27090       0   27092   27093   27093       0   27095   27096
   27096       0   27098   27099   27099       0   27101   27102   27102       0
   27104   27105   27105       0   27107   27108   27108       0   27110   27111
   27111       0   27113   27114   27114       0   27116   27117   27117       0
   27119   27120   27120       0   27122   27123   27123       0   27125   27126
   27126       0   27128   27129   27129       0   27131   27132   27132       0
   27134   27135   27135       0   27137   27138   27138       0   27140   27141
   27141       0   27143   27144   27144       0   27146   27147   27147       0
   27149   27150   27150       0   27152   27153   27153       0   27155   27156
   27156       0   27158   27159   27159       0   27161   27162   27162       0
   27164   27165   27165       0   27167   27168   27168       0   27170   27171
   27171       0   27173   27174   27174       0   27176   27177   27177       0
   27179   27180   27180       0   27182   27183   27183       0   27185   27186
   27186       0   27188   27189   27189       0   27191   27192   27192       0
   27194   27195   27195       0   27197   27198   27198       0   27200   27201
   27201       0   27203   27204   27204       0   27206   27207   27207       0
   27209   27210   27210       0   27212   27213   27213       0   27215   27216
   27216       0   27218   27219   27219       0   27221   27222   27222       0
   27224   27225   27225       0   27227   27228   27228       0   27230   27231
   27231       0   27233   27234   27234       0   27236   27237   27237       0
   27239   27240   27240       0   27242   27243   27243       0   27245   27246
   27246       0   27248   27249   27249       0   27251   27252   27252       0
   27254   27255   27255       0   27257   27258   27258       0   27260   27261
   27261       0   27263   27264   27264       0   27266   27267   27267       0
   27269   27270   27270       0   27272   27273   27273       0   27275   27276
   27276       0   27278   27279   27279       0   27281   27282   27282       0
   27284   27285   27285       0   27287   27288   27288       0   27290   27291
   27291       0   27293   27294   27294       0   27296   27297   27297       0
   27299   27300   27300       0   27302   27303   27303       0   27305   27306
   27306       0   27308   27309   27309       0   27311   27312   27312       0
   27314   27315   27315       0   27317   27318   27318       0   27320   27321
   27321       0   27323   27324   27324       0   27326   27327   27327       0
   27329   27330   27330       0   27332   27333   27333       0   27335   27336
   27336       0   27338   27339   27339       0   27341   27342   27342       0
   27344   27345   27345       0   27347   27348   27348       0   27350   27351
   27351       0   27353   27354   27354       0   27356   27357   27357       0
   27359   27360   27360       0   27362   27363   27363       0   27365   27366
   27366       0   27368   27369   27369       0   27371   27372   27372       0
   27374   27375   27375       0   27377   27378   27378       0   27380   27381
   27381       0   27383   27384   27384       0   27386   27387   27387       0
   27389   27390   27390       0   27392   27393   27393       0   27395   27396
   27396       0   27398   27399   27399       0   27401   27402   27402       0
   27404   27405   27405       0   27407   27408   27408       0   27410   27411
   27411       0   27413   27414   27414       0   27416   27417   27417       0
   27419   27420   27420       0   27422   27423   27423       0   27425   27426
   27426       0   27428   27429   27429       0   27431   27432   27432       0
   27434   27435   27435       0   27437   27438   27438       0   27440   27441
   27441       0   27443   27444   27444       0   27446   27447   27447       0
   27449   27450   27450       0   27452   27453   27453       0   27455   27456
   27456       0   27458   27459   27459       0   27461   27462   27462       0
   27464   27465   27465       0   27467   27468   27468       0   27470   27471
   27471       0   27473   27474   27474       0   27476   27477   27477       0
   27479   27480   27480       0   27482   27483   27483       0   27485   27486
   27486       0   27488   27489   27489       0   27491   27492   27492       0
   27494   27495   27495       0   27497   27498   27498       0   27500   27501
   27501       0   27503   27504   27504       0   27506   27507   27507       0
   27509   27510   27510       0   27512   27513   27513       0   27515   27516
   27516       0   27518   27519   27519       0   27521   27522   27522       0
   27524   27525   27525       0   27527   27528   27528       0   27530   27531
   27531       0   27533   27534   27534       0   27536   27537   27537       0
   27539   27540   27540       0   27542   27543   27543       0   27545   27546
   27546       0   27548   27549   27549       0   27551   27552   27552       0
   27554   27555   27555       0   27557   27558   27558       0   27560   27561
   27561       0   27563   27564   27564       0   27566   27567   27567       0
   27569   27570   27570       0   27572   27573   27573       0   27575   27576
   27576       0   27578   27579   27579       0   27581   27582   27582       0
   27584   27585   27585       0   27587   27588   27588       0   27590   27591
   27591       0   27593   27594   27594       0   27596   27597   27597       0
   27599   27600   27600       0   27602   27603   27603       0   27605   27606
   27606       0   27608   27609   27609       0   27611   27612   27612       0
   27614   27615   27615       0   27617   27618   27618       0   27620   27621
   27621       0   27623   27624   27624       0   27626   27627   27627       0
   27629   27630   27630       0   27632   27633   27633       0   27635   27636
   27636       0   27638   27639   27639       0   27641   27642   27642       0
   27644   27645   27645       0   27647   27648   27648       0   27650   27651
   27651       0   27653   27654   27654       0   27656   27657   27657       0
   27659   27660   27660       0   27662   27663   27663       0   27665   27666
   27666       0   27668   27669   27669       0   27671   27672   27672       0
   27674   27675   27675       0   27677   27678   27678       0   27680   27681
   27681       0   27683   27684   27684       0   27686   27687   27687       0
   27689   27690   27690       0   27692   27693   27693       0   27695   27696
   27696       0   27698   27699   27699       0   27701   27702   27702       0
   27704   27705   27705       0   27707   27708   27708       0   27710   27711
   27711       0   27713   27714   27714       0   27716   27717   27717       0
   27719   27720   27720       0   27722   27723   27723       0   27725   27726
   27726       0   27728   27729   27729       0   27731   27732   27732       0
   27734   27735   27735       0   27737   27738   27738       0   27740   27741
   27741       0   27743   27744   27744       0   27746   27747   27747       0
   27749   27750   27750       0   27752   27753   27753       0   27755   27756
   27756       0   27758   27759   27759       0   27761   27762   27762       0
   27764   27765   27765       0   27767   27768   27768       0   27770   27771
   27771       0   27773   27774   27774       0   27776   27777   27777       0
   27779   27780   27780       0   27782   27783   27783       0   27785   27786
   27786       0   27788   27789   27789       0   27791   27792   27792       0
   27794   27795   27795       0   27797   27798   27798       0   27800   27801
   27801       0   27803   27804   27804       0   27806   27807   27807       0
   27809   27810   27810       0   27812   27813   27813       0   27815   27816
   27816       0   27818   27819   27819       0   27821   27822   27822       0
   27824   27825   27825       0   27827   27828   27828       0   27830   27831
   27831       0   27833   27834   27834       0   27836   27837   27837       0
   27839   27840   27840       0   27842   27843   27843       0   27845   27846
   27846       0   27848   27849   27849       0   27851   27852   27852       0
   27854   27855   27855       0   27857   27858   27858       0   27860   27861
   27861       0   27863   27864   27864       0   27866   27867   27867       0
   27869   27870   27870       0   27872   27873   27873       0   27875   27876
   27876       0   27878   27879   27879       0   27881   27882   27882       0
   27884   27885   27885       0   27887   27888   27888       0   27890   27891
   27891       0   27893   27894   27894       0   27896   27897   27897       0
   27899   27900   27900       0   27902   27903   27903       0   27905   27906
   27906       0   27908   27909   27909       0   27911   27912   27912       0
   27914   27915   27915       0   27917   27918   27918       0   27920   27921
   27921       0   27923   27924   27924       0   27926   27927   27927       0
   27929   27930   27930       0   27932   27933   27933       0   27935   27936
   27936       0   27938   27939   27939       0   27941   27942   27942       0
   27944   27945   27945       0   27947   27948   27948       0   27950   27951
   27951       0   27953   27954   27954       0   27956   27957   27957       0
   27959   27960   27960       0   27962   27963   27963       0   27965   27966
   27966       0   27968   27969   27969       0   27971   27972   27972       0
   27974   27975   27975       0   27977   27978   27978       0   27980   27981
   27981       0   27983   27984   27984       0   27986   27987   27987       0
   27989   27990   27990       0   27992   27993   27993       0   27995   27996
   27996       0   27998   27999   27999       0   28001   28002   28002       0
   28004   28005   28005       0   28007   28008   28008       0   28010   28011
   28011       0   28013   28014   28014       0   28016   28017   28017       0
   28019   28020   28020       0   28022   28023   28023       0   28025   28026
   28026       0   28028   28029   28029       0   28031   28032   28032       0
   28034   28035   28035       0   28037   28038   28038       0   28040   28041
   28041       0   28043   28044   28044       0   28046   28047   28047       0
   28049   28050   28050       0   28052   28053   28053       0   28055   28056
   28056       0   28058   28059   28059       0   28061   28062   28062       0
   28064   28065   28065       0   28067   28068   28068       0   28070   28071
   28071       0   28073   28074   28074       0   28076   28077   28077       0
   28079   28080   28080       0   28082   28083   28083       0   28085   28086
   28086       0   28088   28089   28089       0   28091   28092   28092       0
   28094   28095   28095       0   28097   28098   28098       0   28100   28101
   28101       0   28103   28104   28104       0   28106   28107   28107       0
   28109   28110   28110       0   28112   28113   28113       0   28115   28116
   28116       0   28118   28119   28119       0   28121   28122   28122       0
   28124   28125   28125       0   28127   28128   28128       0   28130   28131
   28131       0   28133   28134   28134       0   28136   28137   28137       0
   28139   28140   28140       0   28142   28143   28143       0   28145   28146
   28146       0   28148   28149   28149       0   28151   28152   28152       0
   28154   28155   28155       0   28157   28158   28158       0   28160   28161
   28161       0   28163   28164   28164       0   28166   28167   28167       0
   28169   28170   28170       0   28172   28173   28173       0   28175   28176
   28176       0   28178   28179   28179       0   28181   28182   28182       0
   28184   28185   28185       0   28187   28188   28188       0   28190   28191
   28191       0   28193   28194   28194       0   28196   28197   28197       0
   28199   28200   28200       0   28202   28203   28203       0   28205   28206
   28206       0   28208   28209   28209       0   28211   28212   28212       0
   28214   28215   28215       0   28217   28218   28218       0   28220   28221
   28221       0   28223   28224   28224       0   28226   28227   28227       0
   28229   28230   28230       0   28232   28233   28233       0   28235   28236
   28236       0   28238   28239   28239       0   28241   28242   28242       0
   28244   28245   28245       0   28247   28248   28248       0   28250   28251
   28251       0   28253   28254   28254       0   28256   28257   28257       0
   28259   28260   28260       0   28262   28263   28263       0   28265   28266
   28266       0   28268   28269   28269       0   28271   28272   28272       0
   28274   28275   28275       0   28277   28278   28278       0   28280   28281
   28281       0   28283   28284   28284       0   28286   28287   28287       0
   28289   28290   28290       0   28292   28293   28293       0   28295   28296
   28296       0   28298   28299   28299       0   28301   28302   28302       0
   28304   28305   28305       0   28307   28308   28308       0   28310   28311
   28311       0   28313   28314   28314       0   28316   28317   28317       0
   28319   28320   28320       0   28322   28323   28323       0   28325   28326
   28326       0   28328   28329   28329       0   28331   28332   28332       0
   28334   28335   28335       0   28337   28338   28338       0   28340   28341
   28341       0   28343   28344   28344       0   28346   28347   28347       0
   28349   28350   28350       0   28352   28353   28353       0   28355   28356
   28356       0   28358   28359   28359       0   28361   28362   28362       0
   28364   28365   28365       0   28367   28368   28368       0   28370   28371
   28371       0   28373   28374   28374       0   28376   28377   28377       0
   28379   28380   28380       0   28382   28383   28383       0   28385   28386
   28386       0   28388   28389   28389       0   28391   28392   28392       0
   28394   28395   28395       0   28397   28398   28398       0   28400   28401
   28401       0   28403   28404   28404       0   28406   28407   28407       0
   28409   28410   28410       0   28412   28413   28413       0   28415   28416
   28416       0   28418   28419   28419       0   28421   28422   28422       0
   28424   28425   28425       0   28427   28428   28428       0   28430   28431
   28431       0   28433   28434   28434       0   28436   28437   28437       0
   28439   28440   28440       0   28442   28443   28443       0   28445   28446
   28446       0   28448   28449   28449       0   28451   28452   28452       0
   28454   28455   28455       0   28457   28458   28458       0   28460   28461
   28461       0   28463   28464   28464       0   28466   28467   28467       0
   28469   28470   28470       0   28472   28473   28473       0   28475   28476
   28476       0   28478   28479   28479       0   28481   28482   28482       0
   28484   28485   28485       0   28487   28488   28488       0   28490   28491
   28491       0   28493   28494   28494       0   28496   28497   28497       0
   28499   28500   28500       0   28502   28503   28503       0   28505   28506
   28506       0   28508   28509   28509       0   28511   28512   28512       0
   28514   28515   28515       0   28517   28518   28518       0   28520   28521
   28521       0   28523   28524   28524       0   28526   28527   28527       0
   28529   28530   28530       0   28532   28533   28533       0   28535   28536
   28536       0   28538   28539   28539       0   28541   28542   28542       0
   28544   28545   28545       0   28547   28548   28548       0   28550   28551
   28551       0   28553   28554   28554       0   28556   28557   28557       0
   28559   28560   28560       0   28562   28563   28563       0   28565   28566
   28566       0   28568   28569   28569       0   28571   28572   28572       0
   28574   28575   28575       0   28577   28578   28578       0   28580   28581
   28581       0   28583   28584   28584       0   28586   28587   28587       0
   28589   28590   28590       0   28592   28593   28593       0   28595   28596
   28596       0   28598   28599   28599       0   28601   28602   28602       0
   28604   28605   28605       0   28607   28608   28608       0   28610   28611
   28611       0   28613   28614   28614       0   28616   28617   28617       0
   28619   28620   28620       0   28622   28623   28623       0   28625   28626
   28626       0   28628   28629   28629       0   28631   28632   28632       0
   28634   28635   28635       0   28637   28638   28638       0   28640   28641
   28641       0   28643   28644   28644       0   28646   28647   28647       0
   28649   28650   28650       0   28652   28653   28653       0   28655   28656
   28656       0   28658   28659   28659       0   28661   28662   28662       0
   28664   28665   28665       0   28667   28668   28668       0   28670   28671
   28671       0   28673   28674   28674       0   28676   28677   28677       0
   28679   28680   28680       0   28682   28683   28683       0   28685   28686
   28686       0   28688   28689   28689       0   28691   28692   28692       0
   28694   28695   28695       0   28697   28698   28698       0   28700   28701
   28701       0   28703   28704   28704       0   28706   28707   28707       0
   28709   28710   28710       0   28712   28713   28713       0   28715   28716
   28716       0   28718   28719   28719       0   28721   28722   28722       0
   28724   28725   28725       0   28727   28728   28728       0   28730   28731
   28731       0   28733   28734   28734       0   28736   28737   28737       0
   28739   28740   28740       0   28742   28743   28743       0   28745   28746
   28746       0   28748   28749   28749       0   28751   28752   28752       0
   28754   28755   28755       0   28757   28758   28758       0   28760   28761
   28761       0   28763   28764   28764       0   28766   28767   28767       0
   28769   28770   28770       0   28772   28773   28773       0   28775   28776
   28776       0   28778   28779   28779       0   28781   28782   28782       0
   28784   28785   28785       0   28787   28788   28788       0   28790   28791
   28791       0   28793   28794   28794       0   28796   28797   28797       0
   28799   28800   28800       0   28802   28803   28803       0   28805   28806
   28806       0   28808   28809   28809       0   28811   28812   28812       0
   28814   28815   28815       0   28817   28818   28818       0   28820   28821
   28821       0   28823   28824   28824       0   28826   28827   28827       0
   28829   28830   28830       0   28832   28833   28833       0   28835   28836
   28836       0   28838   28839   28839       0   28841   28842   28842       0
   28844   28845   28845       0   28847   28848   28848       0   28850   28851
   28851       0   28853   28854   28854       0   28856   28857   28857       0
   28859   28860   28860       0   28862   28863   28863       0   28865   28866
   28866       0   28868   28869   28869       0   28871   28872   28872       0
   28874   28875   28875       0   28877   28878   28878       0   28880   28881
   28881       0   28883   28884   28884       0   28886   28887   28887       0
   28889   28890   28890       0   28892   28893   28893       0   28895   28896
   28896       0   28898   28899   28899       0   28901   28902   28902       0
   28904   28905   28905       0   28907   28908   28908       0   28910   28911
   28911       0   28913   28914   28914       0   28916   28917   28917       0
   28919   28920   28920       0   28922   28923   28923       0   28925   28926
   28926       0   28928   28929   28929       0   28931   28932   28932       0
   28934   28935   28935       0   28937   28938   28938       0   28940   28941
   28941       0   28943   28944   28944       0   28946   28947   28947       0
   28949   28950   28950       0   28952   28953   28953       0   28955   28956
   28956       0   28958   28959   28959       0   28961   28962   28962       0
   28964   28965   28965       0   28967   28968   28968       0   28970   28971
   28971       0   28973   28974   28974       0   28976   28977   28977       0
   28979   28980   28980       0   28982   28983   28983       0   28985   28986
   28986       0   28988   28989   28989       0   28991   28992   28992       0
   28994   28995   28995       0   28997   28998   28998       0   29000   29001
   29001       0   29003   29004   29004       0   29006   29007   29007       0
   29009   29010   29010       0   29012   29013   29013       0   29015   29016
   29016       0   29018   29019   29019       0   29021   29022   29022       0
   29024   29025   29025       0   29027   29028   29028       0   29030   29031
   29031       0   29033   29034   29034       0   29036   29037   29037       0
   29039   29040   29040       0   29042   29043   29043       0   29045   29046
   29046       0   29048   29049   29049       0   29051   29052   29052       0
   29054   29055   29055       0   29057   29058   29058       0   29060   29061
   29061       0   29063   29064   29064       0   29066   29067   29067       0
   29069   29070   29070       0   29072   29073   29073       0   29075   29076
   29076       0   29078   29079   29079       0   29081   29082   29082       0
   29084   29085   29085       0   29087   29088   29088       0   29090   29091
   29091       0   29093   29094   29094       0   29096   29097   29097       0
   29099   29100   29100       0   29102   29103   29103       0   29105   29106
   29106       0   29108   29109   29109       0   29111   29112   29112       0
   29114   29115   29115       0   29117   29118   29118       0   29120   29121
   29121       0   29123   29124   29124       0   29126   29127   29127       0
   29129   29130   29130       0   29132   29133   29133       0   29135   29136
   29136       0   29138   29139   29139       0   29141   29142   29142       0
   29144   29145   29145       0   29147   29148   29148       0   29150   29151
   29151       0   29153   29154   29154       0   29156   29157   29157       0
   29159   29160   29160       0   29162   29163   29163       0   29165   29166
   29166       0   29168   29169   29169       0   29171   29172   29172       0
   29174   29175   29175       0   29177   29178   29178       0   29180   29181
   29181       0   29183   29184   29184       0   29186   29187   29187       0
   29189   29190   29190       0   29192   29193   29193       0   29195   29196
   29196       0   29198   29199   29199       0   29201   29202   29202       0
   29204   29205   29205       0   29207   29208   29208       0   29210   29211
   29211       0   29213   29214   29214       0   29216   29217   29217       0
   29219   29220   29220       0   29222   29223   29223       0   29225   29226
   29226       0   29228   29229   29229       0   29231   29232   29232       0
   29234   29235   29235       0   29237   29238   29238       0   29240   29241
   29241       0   29243   29244   29244       0   29246   29247   29247       0
   29249   29250   29250       0   29252   29253   29253       0   29255   29256
   29256       0   29258   29259   29259       0   29261   29262   29262       0
   29264   29265   29265       0   29267   29268   29268       0   29270   29271
   29271       0   29273   29274   29274       0   29276   29277   29277       0
   29279   29280   29280       0   29282   29283   29283       0   29285   29286
   29286       0   29288   29289   29289       0   29291   29292   29292       0
   29294   29295   29295       0   29297   29298   29298       0   29300   29301
   29301       0   29303   29304   29304       0   29306   29307   29307       0
   29309   29310   29310       0   29312   29313   29313       0   29315   29316
   29316       0   29318   29319   29319       0   29321   29322   29322       0
   29324   29325   29325       0   29327   29328   29328       0   29330   29331
   29331       0   29333   29334   29334       0   29336   29337   29337       0
   29339   29340   29340       0   29342   29343   29343       0   29345   29346
   29346       0   29348   29349   29349       0   29351   29352   29352       0
   29354   29355   29355       0   29357   29358   29358       0   29360   29361
   29361       0   29363   29364   29364       0   29366   29367   29367       0
   29369   29370   29370       0   29372   29373   29373       0   29375   29376
   29376       0   29378   29379   29379       0   29381   29382   29382       0
   29384   29385   29385       0   29387   29388   29388       0   29390   29391
   29391       0   29393   29394   29394       0   29396   29397   29397       0
   29399   29400   29400       0   29402   29403   29403       0   29405   29406
   29406       0   29408   29409   29409       0   29411   29412   29412       0
   29414   29415   29415       0   29417   29418   29418       0   29420   29421
   29421       0   29423   29424   29424       0   29426   29427   29427       0
   29429   29430   29430       0   29432   29433   29433       0   29435   29436
   29436       0   29438   29439   29439       0   29441   29442   29442       0
   29444   29445   29445       0   29447   29448   29448       0   29450   29451
   29451       0   29453   29454   29454       0   29456   29457   29457       0
   29459   29460   29460       0   29462   29463   29463       0   29465   29466
   29466       0   29468   29469   29469       0   29471   29472   29472       0
   29474   29475   29475       0   29477   29478   29478       0   29480   29481
   29481       0   29483   29484   29484       0   29486   29487   29487       0
   29489   29490   29490       0   29492   29493   29493       0   29495   29496
   29496       0   29498   29499   29499       0   29501   29502   29502       0
   29504   29505   29505       0   29507   29508   29508       0   29510   29511
   29511       0   29513   29514   29514       0   29516   29517   29517       0
   29519   29520   29520       0   29522   29523   29523       0   29525   29526
   29526       0   29528   29529   29529       0   29531   29532   29532       0
   29534   29535   29535       0   29537   29538   29538       0   29540   29541
   29541       0   29543   29544   29544       0   29546   29547   29547       0
   29549   29550   29550       0   29552   29553   29553       0   29555   29556
   29556       0   29558   29559   29559       0   29561   29562   29562       0
   29564   29565   29565       0   29567   29568   29568       0   29570   29571
   29571       0   29573   29574   29574       0   29576   29577   29577       0
   29579   29580   29580       0   29582   29583   29583       0   29585   29586
   29586       0   29588   29589   29589       0   29591   29592   29592       0
   29594   29595   29595       0   29597   29598   29598       0   29600   29601
   29601       0   29603   29604   29604       0   29606   29607   29607       0
   29609   29610   29610       0   29612   29613   29613       0   29615   29616
   29616       0   29618   29619   29619       0   29621   29622   29622       0
   29624   29625   29625       0   29627   29628   29628       0   29630   29631
   29631       0   29633   29634   29634       0   29636   29637   29637       0
   29639   29640   29640       0   29642   29643   29643       0   29645   29646
   29646       0   29648   29649   29649       0   29651   29652   29652       0
   29654   29655   29655       0   29657   29658   29658       0   29660   29661
   29661       0   29663   29664   29664       0   29666   29667   29667       0
   29669   29670   29670       0   29672   29673   29673       0   29675   29676
   29676       0   29678   29679   29679       0   29681   29682   29682       0
   29684   29685   29685       0   29687   29688   29688       0   29690   29691
   29691       0   29693   29694   29694       0   29696   29697   29697       0
   29699   29700   29700       0   29702   29703   29703       0   29705   29706
   29706       0   29708   29709   29709       0   29711   29712   29712       0
   29714   29715   29715       0   29717   29718   29718       0   29720   29721
   29721       0   29723   29724   29724       0   29726   29727   29727       0
   29729   29730   29730       0   29732   29733   29733       0   29735   29736
   29736       0   29738   29739   29739       0   29741   29742   29742       0
   29744   29745   29745       0   29747   29748   29748       0   29750   29751
   29751       0   29753   29754   29754       0   29756   29757   29757       0
   29759   29760   29760       0   29762   29763   29763       0   29765   29766
   29766       0   29768   29769   29769       0   29771   29772   29772       0
   29774   29775   29775       0   29777   29778   29778       0   29780   29781
   29781       0   29783   29784   29784       0   29786   29787   29787       0
   29789   29790   29790       0   29792   29793   29793       0   29795   29796
   29796       0   29798   29799   29799       0   29801   29802   29802       0
   29804   29805   29805       0   29807   29808   29808       0   29810   29811
   29811       0   29813   29814   29814       0   29816   29817   29817       0
   29819   29820   29820       0   29822   29823   29823       0   29825   29826
   29826       0   29828   29829   29829       0   29831   29832   29832       0
   29834   29835   29835       0   29837   29838   29838       0   29840   29841
   29841       0   29843   29844   29844       0   29846   29847   29847       0
   29849   29850   29850       0   29852   29853   29853       0   29855   29856
   29856       0   29858   29859   29859       0   29861   29862   29862       0
   29864   29865   29865       0   29867   29868   29868       0   29870   29871
   29871       0   29873   29874   29874       0   29876   29877   29877       0
   29879   29880   29880       0   29882   29883   29883       0   29885   29886
   29886       0   29888   29889   29889       0   29891   29892   29892       0
   29894   29895   29895       0   29897   29898   29898       0   29900   29901
   29901       0   29903   29904   29904       0   29906   29907   29907       0
   29909   29910   29910       0   29912   29913   29913       0   29915   29916
   29916       0   29918   29919   29919       0   29921   29922   29922       0
   29924   29925   29925       0   29927   29928   29928       0   29930   29931
   29931       0   29933   29934   29934       0   29936   29937   29937       0
   29939   29940   29940       0   29942   29943   29943       0   29945   29946
   29946       0   29948   29949   29949       0   29951   29952   29952       0
   29954   29955   29955       0   29957   29958   29958       0   29960   29961
   29961       0   29963   29964   29964       0   29966   29967   29967       0
   29969   29970   29970       0   29972   29973   29973       0   29975   29976
   29976       0   29978   29979   29979       0   29981   29982   29982       0
   29984   29985   29985       0   29987   29988   29988       0   29990   29991
   29991       0   29993   29994   29994       0   29996   29997   29997       0
   29999   30000   30000       0   30002   30003   30003       0   30005   30006
   30006       0   30008   30009   30009       0   30011   30012   30012       0
   30014   30015   30015       0   30017   30018   30018       0   30020   30021
   30021       0   30023   30024   30024       0   30026   30027   30027       0
   30029   30030   30030       0   30032   30033   30033       0   30035   30036
   30036       0   30038   30039   30039       0   30041   30042   30042       0
   30044   30045   30045       0   30047   30048   30048       0   30050   30051
   30051       0   30053   30054   30054       0   30056   30057   30057       0
   30059   30060   30060       0   30062   30063   30063       0   30065   30066
   30066       0   30068   30069   30069       0   30071   30072   30072       0
   30074   30075   30075       0   30077   30078   30078       0   30080   30081
   30081       0   30083   30084   30084       0   30086   30087   30087       0
   30089   30090   30090       0   30092   30093   30093       0   30095   30096
   30096       0   30098   30099   30099       0   30101   30102   30102       0
   30104   30105   30105       0   30107   30108   30108       0   30110   30111
   30111       0   30113   30114   30114       0   30116   30117   30117       0
   30119   30120   30120       0   30122   30123   30123       0   30125   30126
   30126       0   30128   30129   30129       0   30131   30132   30132       0
   30134   30135   30135       0   30137   30138   30138       0   30140   30141
   30141       0   30143   30144   30144       0   30146   30147   30147       0
   30149   30150   30150       0   30152   30153   30153       0   30155   30156
   30156       0   30158   30159   30159       0   30161   30162   30162       0
   30164   30165   30165       0   30167   30168   30168       0   30170   30171
   30171       0   30173   30174   30174       0   30176   30177   30177       0
   30179   30180   30180       0   30182   30183   30183       0   30185   30186
   30186       0   30188   30189   30189       0   30191   30192   30192       0
   30194   30195   30195       0   30197   30198   30198       0   30200   30201
   30201       0   30203   30204   30204       0   30206   30207   30207       0
   30209   30210   30210       0   30212   30213   30213       0   30215   30216
   30216       0   30218   30219   30219       0   30221   30222   30222       0
   30224   30225   30225       0   30227   30228   30228       0   30230   30231
   30231       0   30233   30234   30234       0   30236   30237   30237       0
   30239   30240   30240       0   30242   30243   30243       0   30245   30246
   30246       0   30248   30249   30249       0   30251   30252   30252       0
   30254   30255   30255       0   30257   30258   30258       0   30260   30261
   30261       0   30263   30264   30264       0   30266   30267   30267       0
   30269   30270   30270       0   30272   30273   30273       0   30275   30276
   30276       0   30278   30279   30279       0   30281   30282   30282       0
   30284   30285   30285       0   30287   30288   30288       0   30290   30291
   30291       0   30293   30294   30294       0   30296   30297   30297       0
   30299   30300   30300       0   30302   30303   30303       0   30305   30306
   30306       0   30308   30309   30309       0   30311   30312   30312       0
   30314   30315   30315       0   30317   30318   30318       0   30320   30321
   30321       0   30323   30324   30324       0   30326   30327   30327       0
   30329   30330   30330       0   30332   30333   30333       0   30335   30336
   30336       0   30338   30339   30339       0   30341   30342   30342       0
   30344   30345   30345       0   30347   30348   30348       0   30350   30351
   30351       0   30353   30354   30354       0   30356   30357   30357       0
   30359   30360   30360       0   30362   30363   30363       0   30365   30366
   30366       0   30368   30369   30369       0   30371   30372   30372       0
   30374   30375   30375       0   30377   30378   30378       0   30380   30381
   30381       0   30383   30384   30384       0   30386   30387   30387       0
   30389   30390   30390       0   30392   30393   30393       0   30395   30396
   30396       0   30398   30399   30399       0   30401   30402   30402       0
   30404   30405   30405       0   30407   30408   30408       0   30410   30411
   30411       0   30413   30414   30414       0   30416   30417   30417       0
   30419   30420   30420       0   30422   30423   30423       0   30425   30426
   30426       0   30428   30429   30429       0   30431   30432   30432       0
   30434   30435   30435       0   30437   30438   30438       0   30440   30441
   30441       0   30443   30444   30444       0   30446   30447   30447       0
   30449   30450   30450       0   30452   30453   30453       0   30455   30456
   30456       0   30458   30459   30459       0   30461   30462   30462       0
   30464   30465   30465       0   30467   30468   30468       0   30470   30471
   30471       0   30473   30474   30474       0   30476   30477   30477       0
   30479   30480   30480       0   30482   30483   30483       0   30485   30486
   30486       0   30488   30489   30489       0   30491   30492   30492       0
   30494   30495   30495       0   30497   30498   30498       0   30500   30501
   30501       0   30503   30504   30504       0   30506   30507   30507       0
   30509   30510   30510       0   30512   30513   30513       0   30515   30516
   30516       0   30518   30519   30519       0   30521   30522   30522       0
   30524   30525   30525       0   30527   30528   30528       0   30530   30531
   30531       0   30533   30534   30534       0   30536   30537   30537       0
   30539   30540   30540       0   30542   30543   30543       0   30545   30546
   30546       0   30548   30549   30549       0   30551   30552   30552       0
   30554   30555   30555       0   30557   30558   30558       0   30560   30561
   30561       0   30563   30564   30564       0   30566   30567   30567       0
   30569   30570   30570       0   30572   30573   30573       0   30575   30576
   30576       0   30578   30579   30579       0   30581   30582   30582       0
   30584   30585   30585       0   30587   30588   30588       0   30590   30591
   30591       0   30593   30594   30594       0   30596   30597   30597       0
   30599   30600   30600       0   30602   30603   30603       0   30605   30606
   30606       0   30608   30609   30609       0   30611   30612   30612       0
   30614   30615   30615       0   30617   30618   30618       0   30620   30621
   30621       0   30623   30624   30624       0   30626   30627   30627       0
   30629   30630   30630       0   30632   30633   30633       0   30635   30636
   30636       0   30638   30639   30639       0   30641   30642   30642       0
   30644   30645   30645       0   30647   30648   30648       0   30650   30651
   30651       0   30653   30654   30654       0   30656   30657   30657       0
   30659   30660   30660       0   30662   30663   30663       0   30665   30666
   30666       0   30668   30669   30669       0   30671   30672   30672       0
   30674   30675   30675       0   30677   30678   30678       0   30680   30681
   30681       0   30683   30684   30684       0   30686   30687   30687       0
   30689   30690   30690       0   30692   30693   30693       0   30695   30696
   30696       0   30698   30699   30699       0   30701   30702   30702       0
   30704   30705   30705       0   30707   30708   30708       0   30710   30711
   30711       0   30713   30714   30714       0   30716   30717   30717       0
   30719   30720   30720       0   30722   30723   30723       0   30725   30726
   30726       0   30728   30729   30729       0   30731   30732   30732       0
   30734   30735   30735       0   30737   30738   30738       0   30740   30741
   30741       0   30743   30744   30744       0   30746   30747   30747       0
   30749   30750   30750       0   30752   30753   30753       0   30755   30756
   30756       0   30758   30759   30759       0   30761   30762   30762       0
   30764   30765   30765       0   30767   30768   30768       0   30770   30771
   30771       0   30773   30774   30774       0   30776   30777   30777       0
   30779   30780   30780       0   30782   30783   30783       0   30785   30786
   30786       0   30788   30789   30789       0   30791   30792   30792       0
   30794   30795   30795       0   30797   30798   30798       0   30800   30801
   30801       0   30803   30804   30804       0   30806   30807   30807       0
   30809   30810   30810       0   30812   30813   30813       0   30815   30816
   30816       0   30818   30819   30819       0   30821   30822   30822       0
   30824   30825   30825       0   30827   30828   30828       0   30830   30831
   30831       0   30833   30834   30834       0   30836   30837   30837       0
   30839   30840   30840       0   30842   30843   30843       0   30845   30846
   30846       0   30848   30849   30849       0   30851   30852   30852       0
   30854   30855   30855       0   30857   30858   30858       0   30860   30861
   30861       0   30863   30864   30864       0   30866   30867   30867       0
   30869   30870   30870       0   30872   30873   30873       0   30875   30876
   30876       0   30878   30879   30879       0   30881   30882   30882       0
   30884   30885   30885       0   30887   30888   30888       0   30890   30891
   30891       0   30893   30894   30894       0   30896   30897   30897       0
   30899   30900   30900       0   30902   30903   30903       0   30905   30906
   30906       0   30908   30909   30909       0   30911   30912   30912       0
   30914   30915   30915       0   30917   30918   30918       0   30920   30921
   30921       0   30923   30924   30924       0   30926   30927   30927       0
   30929   30930   30930       0   30932   30933   30933       0   30935   30936
   30936       0   30938   30939   30939       0   30941   30942   30942       0
   30944   30945   30945       0   30947   30948   30948       0   30950   30951
   30951       0   30953   30954   30954       0   30956   30957   30957       0
   30959   30960   30960       0   30962   30963   30963       0   30965   30966
   30966       0   30968   30969   30969       0   30971   30972   30972       0
   30974   30975   30975       0   30977   30978   30978       0   30980   30981
   30981       0   30983   30984   30984       0   30986   30987   30987       0
   30989   30990   30990       0   30992   30993   30993       0   30995   30996
   30996       0   30998   30999   30999       0   31001   31002   31002       0
   31004   31005   31005       0   31007   31008   31008       0   31010   31011
   31011       0   31013   31014   31014       0   31016   31017   31017       0
   31019   31020   31020       0   31022   31023   31023       0   31025   31026
   31026       0   31028   31029   31029       0   31031   31032   31032       0
   31034   31035   31035       0   31037   31038   31038       0   31040   31041
   31041       0   31043   31044   31044       0   31046   31047   31047       0
   31049   31050   31050       0   31052   31053   31053       0   31055   31056
   31056       0   31058   31059   31059       0   31061   31062   31062       0
   31064   31065   31065       0   31067   31068   31068       0   31070   31071
   31071       0   31073   31074   31074       0   31076   31077   31077       0
   31079   31080   31080       0   31082   31083   31083       0   31085   31086
   31086       0   31088   31089   31089       0   31091   31092   31092       0
   31094   31095   31095       0   31097   31098   31098       0   31100   31101
   31101       0   31103   31104   31104       0   31106   31107   31107       0
   31109   31110   31110       0   31112   31113   31113       0   31115   31116
   31116       0   31118   31119   31119       0   31121   31122   31122       0
   31124   31125   31125       0   31127   31128   31128       0   31130   31131
   31131       0   31133   31134   31134       0   31136   31137   31137       0
   31139   31140   31140       0   31142   31143   31143       0   31145   31146
   31146       0   31148   31149   31149       0   31151   31152   31152       0
   31154   31155   31155       0   31157   31158   31158       0   31160   31161
   31161       0   31163   31164   31164       0   31166   31167   31167       0
   31169   31170   31170       0   31172   31173   31173       0   31175   31176
   31176       0   31178   31179   31179       0   31181   31182   31182       0
   31184   31185   31185       0   31187   31188   31188       0   31190   31191
   31191       0   31193   31194   31194       0   31196   31197   31197       0
   31199   31200   31200       0   31202   31203   31203       0   31205   31206
   31206       0   31208   31209   31209       0   31211   31212   31212       0
   31214   31215   31215       0   31217   31218   31218       0   31220   31221
   31221       0   31223   31224   31224       0   31226   31227   31227       0
   31229   31230   31230       0   31232   31233   31233       0   31235   31236
   31236       0   31238   31239   31239       0   31241   31242   31242       0
   31244   31245   31245       0   31247   31248   31248       0   31250   31251
   31251       0   31253   31254   31254       0   31256   31257   31257       0
   31259   31260   31260       0   31262   31263   31263       0   31265   31266
   31266       0   31268   31269   31269       0   31271   31272   31272       0
   31274   31275   31275       0   31277   31278   31278       0   31280   31281
   31281       0   31283   31284   31284       0   31286   31287   31287       0
   31289   31290   31290       0   31292   31293   31293       0   31295   31296
   31296       0   31298   31299   31299       0   31301   31302   31302       0
   31304   31305   31305       0   31307   31308   31308       0   31310   31311
   31311       0   31313   31314   31314       0   31316   31317   31317       0
   31319   31320   31320       0   31322   31323   31323       0   31325   31326
   31326       0   31328   31329   31329       0   31331   31332   31332       0
   31334   31335   31335       0   31337   31338   31338       0   31340   31341
   31341       0   31343   31344   31344       0   31346   31347   31347       0
   31349   31350   31350       0   31352   31353   31353       0   31355   31356
   31356       0   31358   31359   31359       0   31361   31362   31362       0
   31364   31365   31365       0   31367   31368   31368       0   31370   31371
   31371       0   31373   31374   31374       0   31376   31377   31377       0
   31379   31380   31380       0   31382   31383   31383       0   31385   31386
   31386       0   31388   31389   31389       0   31391   31392   31392       0
   31394   31395   31395       0   31397   31398   31398       0   31400   31401
   31401       0   31403   31404   31404       0   31406   31407   31407       0
   31409   31410   31410       0   31412   31413   31413       0   31415   31416
   31416       0   31418   31419   31419       0   31421   31422   31422       0
   31424   31425   31425       0   31427   31428   31428       0   31430   31431
   31431       0   31433   31434   31434       0   31436   31437   31437       0
   31439   31440   31440       0   31442   31443   31443       0   31445   31446
   31446       0   31448   31449   31449       0   31451   31452   31452       0
   31454   31455   31455       0   31457   31458   31458       0   31460   31461
   31461       0   31463   31464   31464       0   31466   31467   31467       0
   31469   31470   31470       0   31472   31473   31473       0   31475   31476
   31476       0   31478   31479   31479       0   31481   31482   31482       0
   31484   31485   31485       0   31487   31488   31488       0   31490   31491
   31491       0   31493   31494   31494       0   31496   31497   31497       0
   31499   31500   31500       0   31502   31503   31503       0   31505   31506
   31506       0   31508   31509   31509       0   31511   31512   31512       0
   31514   31515   31515       0   31517   31518   31518       0   31520   31521
   31521       0   31523   31524   31524       0   31526   31527   31527       0
   31529   31530   31530       0   31532   31533   31533       0   31535   31536
   31536       0   31538   31539   31539       0   31541   31542   31542       0
   31544   31545   31545       0   31547   31548   31548       0   31550   31551
   31551       0   31553   31554   31554       0   31556   31557   31557       0
   31559   31560   31560       0   31562   31563   31563       0   31565   31566
   31566       0   31568   31569   31569       0   31571   31572   31572       0
   31574   31575   31575       0   31577   31578   31578       0   31580   31581
   31581       0   31583   31584   31584       0   31586   31587   31587       0
   31589   31590   31590       0   31592   31593   31593       0   31595   31596
   31596       0   31598   31599   31599       0   31601   31602   31602       0
   31604   31605   31605       0   31607   31608   31608       0   31610   31611
   31611       0   31613   31614   31614       0   31616   31617   31617       0
   31619   31620   31620       0   31622   31623   31623       0   31625   31626
   31626       0   31628   31629   31629       0   31631   31632   31632       0
   31634   31635   31635       0   31637   31638   31638       0   31640   31641
   31641       0   31643   31644   31644       0   31646   31647   31647       0
   31649   31650   31650       0   31652   31653   31653       0   31655   31656
   31656       0   31658   31659   31659       0   31661   31662   31662       0
   31664   31665   31665       0   31667   31668   31668       0   31670   31671
   31671       0   31673   31674   31674       0   31676   31677   31677       0
   31679   31680   31680       0   31682   31683   31683       0   31685   31686
   31686       0   31688   31689   31689       0   31691   31692   31692       0
   31694   31695   31695       0   31697   31698   31698       0   31700   31701
   31701       0   31703   31704   31704       0   31706   31707   31707       0
   31709   31710   31710       0   31712   31713   31713       0   31715   31716
   31716       0   31718   31719   31719       0   31721   31722   31722       0
   31724   31725   31725       0   31727   31728   31728       0   31730   31731
   31731       0   31733   31734   31734       0   31736   31737   31737       0
   31739   31740   31740       0   31742   31743   31743       0   31745   31746
   31746       0   31748   31749   31749       0   31751   31752   31752       0
   31754   31755   31755       0   31757   31758   31758       0   31760   31761
   31761       0   31763   31764   31764       0   31766   31767   31767       0
   31769   31770   31770       0   31772   31773   31773       0   31775   31776
   31776       0   31778   31779   31779       0   31781   31782   31782       0
   31784   31785   31785       0   31787   31788   31788       0   31790   31791
   31791       0   31793   31794   31794       0   31796   31797   31797       0
   31799   31800   31800       0   31802   31803   31803       0   31805   31806
   31806       0   31808   31809   31809       0   31811   31812   31812       0
   31814   31815   31815       0   31817   31818   31818       0   31820   31821
   31821       0   31823   31824   31824       0   31826   31827   31827       0
   31829   31830   31830       0   31832   31833   31833       0   31835   31836
   31836       0   31838   31839   31839       0   31841   31842   31842       0
   31844   31845   31845       0   31847   31848   31848       0   31850   31851
   31851       0   31853   31854   31854       0   31856   31857   31857       0
   31859   31860   31860       0   31862   31863   31863       0   31865   31866
   31866       0   31868   31869   31869       0   31871   31872   31872       0
   31874   31875   31875       0   31877   31878   31878       0   31880   31881
   31881       0   31883   31884   31884       0   31886   31887   31887       0
   31889   31890   31890       0   31892   31893   31893       0   31895   31896
   31896       0   31898   31899   31899       0   31901   31902   31902       0
   31904   31905   31905       0   31907   31908   31908       0   31910   31911
   31911       0   31913   31914   31914       0   31916   31917   31917       0
   31919   31920   31920       0   31922   31923   31923       0   31925   31926
   31926       0   31928   31929   31929       0   31931   31932   31932       0
   31934   31935   31935       0   31937   31938   31938       0   31940   31941
   31941       0   31943   31944   31944       0   31946   31947   31947       0
   31949   31950   31950       0   31952   31953   31953       0   31955   31956
   31956       0   31958   31959   31959       0   31961   31962   31962       0
   31964   31965   31965       0   31967   31968   31968       0   31970   31971
   31971       0   31973   31974   31974       0   31976   31977   31977       0
   31979   31980   31980       0   31982   31983   31983       0   31985   31986
   31986       0   31988   31989   31989       0   31991   31992   31992       0
   31994   31995   31995       0   31997   31998   31998       0   32000   32001
   32001       0   32003   32004   32004       0   32006   32007   32007       0
   32009   32010   32010       0   32012   32013   32013       0   32015   32016
   32016       0   32018   32019   32019       0   32021   32022   32022       0
   32024   32025   32025       0   32027   32028   32028       0   32030   32031
   32031       0   32033   32034   32034       0   32036   32037   32037       0
   32039   32040   32040       0   32042   32043   32043       0   32045   32046
   32046       0   32048   32049   32049       0   32051   32052   32052       0
   32054   32055   32055       0   32057   32058   32058       0   32060   32061
   32061       0   32063   32064   32064       0   32066   32067   32067       0
   32069   32070   32070       0   32072   32073   32073       0   32075   32076
   32076       0   32078   32079   32079       0   32081   32082   32082       0
   32084   32085   32085       0   32087   32088   32088       0   32090   32091
   32091       0   32093   32094   32094       0   32096   32097   32097       0
   32099   32100   32100       0   32102   32103   32103       0   32105   32106
   32106       0   32108   32109   32109       0   32111   32112   32112       0
   32114   32115   32115       0   32117   32118   32118       0   32120   32121
   32121       0   32123   32124   32124       0   32126   32127   32127       0
   32129   32130   32130       0   32132   32133   32133       0   32135   32136
   32136       0   32138   32139   32139       0   32141   32142   32142       0
   32144   32145   32145       0   32147   32148   32148       0   32150   32151
   32151       0   32153   32154   32154       0   32156   32157   32157       0
   32159   32160   32160       0   32162   32163   32163       0   32165   32166
   32166       0   32168   32169   32169       0   32171   32172   32172       0
   32174   32175   32175       0   32177   32178   32178       0   32180   32181
   32181       0   32183   32184   32184       0   32186   32187   32187       0
   32189   32190   32190       0   32192   32193   32193       0   32195   32196
   32196       0   32198   32199   32199       0   32201   32202   32202       0
   32204   32205   32205       0   32207   32208   32208       0   32210   32211
   32211       0   32213   32214   32214       0   32216   32217   32217       0
   32219   32220   32220       0   32222   32223   32223       0   32225   32226
   32226       0   32228   32229   32229       0   32231   32232   32232       0
   32234   32235   32235       0   32237   32238   32238       0   32240   32241
   32241       0   32243   32244   32244       0   32246   32247   32247       0
   32249   32250   32250       0   32252   32253   32253       0   32255   32256
   32256       0   32258   32259   32259       0   32261   32262   32262       0
   32264   32265   32265       0   32267   32268   32268       0   32270   32271
   32271       0   32273   32274   32274       0   32276   32277   32277       0
   32279   32280   32280       0   32282   32283   32283       0   32285   32286
   32286       0   32288   32289   32289       0   32291   32292   32292       0
   32294   32295   32295       0   32297   32298   32298       0   32300   32301
   32301       0   32303   32304   32304       0   32306   32307   32307       0
   32309   32310   32310       0   32312   32313   32313       0   32315   32316
   32316       0   32318   32319   32319       0   32321   32322   32322       0
   32324   32325   32325       0   32327   32328   32328       0   32330   32331
   32331       0   32333   32334   32334       0   32336   32337   32337       0
   32339   32340   32340       0   32342   32343   32343       0   32345   32346
   32346       0   32348   32349   32349       0   32351   32352   32352       0
   32354   32355   32355       0   32357   32358   32358       0   32360   32361
   32361       0   32363   32364   32364       0   32366   32367   32367       0
   32369   32370   32370       0   32372   32373   32373       0   32375   32376
   32376       0   32378   32379   32379       0   32381   32382   32382       0
   32384   32385   32385       0   32387   32388   32388       0   32390   32391
   32391       0   32393   32394   32394       0   32396   32397   32397       0
   32399   32400   32400       0   32402   32403   32403       0   32405   32406
   32406       0   32408   32409   32409       0   32411   32412   32412       0
   32414   32415   32415       0   32417   32418   32418       0   32420   32421
   32421       0   32423   32424   32424       0   32426   32427   32427       0
   32429   32430   32430       0   32432   32433   32433       0   32435   32436
   32436       0   32438   32439   32439       0   32441   32442   32442       0
   32444   32445   32445       0   32447   32448   32448       0   32450   32451
   32451       0   32453   32454   32454       0   32456   32457   32457       0
   32459   32460   32460       0   32462   32463   32463       0   32465   32466
   32466       0   32468   32469   32469       0   32471   32472   32472       0
   32474   32475   32475       0   32477   32478   32478       0   32480   32481
   32481       0   32483   32484   32484       0   32486   32487   32487       0
   32489   32490   32490       0   32492   32493   32493       0   32495   32496
   32496       0   32498   32499   32499       0   32501   32502   32502       0
   32504   32505   32505       0   32507   32508   32508       0   32510   32511
   32511       0   32513   32514   32514       0   32516   32517   32517       0
   32519   32520   32520       0   32522   32523   32523       0   32525   32526
   32526       0   32528   32529   32529       0   32531   32532   32532       0
   32534   32535   32535       0   32537   32538   32538       0   32540   32541
   32541       0   32543   32544   32544       0   32546   32547   32547       0
   32549   32550   32550       0   32552   32553   32553       0   32555   32556
   32556       0   32558   32559   32559       0   32561   32562   32562       0
   32564   32565   32565       0   32567   32568   32568       0   32570   32571
   32571       0   32573   32574   32574       0   32576   32577   32577       0
   32579   32580   32580       0   32582   32583   32583       0   32585   32586
   32586       0   32588   32589   32589       0   32591   32592   32592       0
   32594   32595   32595       0   32597   32598   32598       0   32600   32601
   32601       0   32603   32604   32604       0   32606   32607   32607       0
   32609   32610   32610       0   32612   32613   32613       0   32615   32616
   32616       0   32618   32619   32619       0   32621   32622   32622       0
   32624   32625   32625       0   32627   32628   32628       0   32630   32631
   32631       0   32633   32634   32634       0   32636   32637   32637       0
   32639   32640   32640       0   32642   32643   32643       0   32645   32646
   32646       0   32648   32649   32649       0   32651   32652   32652       0
   32654   32655   32655       0   32657   32658   32658       0   32660   32661
   32661       0   32663   32664   32664       0   32666   32667   32667       0
   32669   32670   32670       0   32672   32673   32673       0   32675   32676
   32676       0   32678   32679   32679       0   32681   32682   32682       0
   32684   32685   32685       0   32687   32688   32688       0   32690   32691
   32691       0   32693   32694   32694       0   32696   32697   32697       0
   32699   32700   32700       0   32702   32703   32703       0   32705   32706
   32706       0   32708   32709   32709       0   32711   32712   32712       0
   32714   32715   32715       0   32717   32718   32718       0   32720   32721
   32721       0   32723   32724   32724       0   32726   32727   32727       0
   32729   32730   32730       0   32732   32733   32733       0   32735   32736
   32736       0   32738   32739   32739       0   32741   32742   32742       0
   32744   32745   32745       0   32747   32748   32748       0   32750   32751
   32751       0   32753   32754   32754       0   32756   32757   32757       0
   32759   32760   32760       0   32762   32763   32763       0   32765   32766
   32766       0   32768   32769   32769       0   32771   32772   32772       0
   32774   32775   32775       0   32777   32778   32778       0   32780   32781
   32781       0   32783   32784   32784       0   32786   32787   32787       0
   32789   32790   32790       0   32792   32793   32793       0   32795   32796
   32796       0   32798   32799   32799       0   32801   32802   32802       0
   32804   32805   32805       0   32807   32808   32808       0   32810   32811
   32811       0   32813   32814   32814       0   32816   32817   32817       0
   32819   32820   32820       0   32822   32823   32823       0   32825   32826
   32826       0   32828   32829   32829       0   32831   32832   32832       0
   32834   32835   32835       0   32837   32838   32838       0   32840   32841
   32841       0   32843   32844   32844       0   32846   32847   32847       0
   32849   32850   32850       0   32852   32853   32853       0   32855   32856
   32856       0   32858   32859   32859       0   32861   32862   32862       0
   32864   32865   32865       0   32867   32868   32868       0   32870   32871
   32871       0   32873   32874   32874       0   32876   32877   32877       0
   32879   32880   32880       0   32882   32883   32883       0   32885   32886
   32886       0   32888   32889   32889       0   32891   32892   32892       0
   32894   32895   32895       0   32897   32898   32898       0   32900   32901
   32901       0   32903   32904   32904       0   32906   32907   32907       0
   32909   32910   32910       0   32912   32913   32913       0   32915   32916
   32916       0   32918   32919   32919       0   32921   32922   32922       0
   32924   32925   32925       0   32927   32928   32928       0   32930   32931
   32931       0   32933   32934   32934       0   32936   32937   32937       0
   32939   32940   32940       0   32942   32943   32943       0   32945   32946
   32946       0   32948   32949   32949       0   32951   32952   32952       0
   32954   32955   32955       0   32957   32958   32958       0   32960   32961
   32961       0   32963   32964   32964       0   32966   32967   32967       0
   32969   32970   32970       0   32972   32973   32973       0   32975   32976
   32976       0   32978   32979   32979       0   32981   32982   32982       0
   32984   32985   32985       0   32987   32988   32988       0   32990   32991
   32991       0   32993   32994   32994       0   32996   32997   32997       0
   32999   33000   33000       0   33002   33003   33003       0   33005   33006
   33006       0   33008   33009   33009       0   33011   33012   33012       0
   33014   33015   33015       0   33017   33018   33018       0   33020   33021
   33021       0   33023   33024   33024       0   33026   33027   33027       0
   33029   33030   33030       0   33032   33033   33033       0   33035   33036
   33036       0   33038   33039   33039       0   33041   33042   33042       0
   33044   33045   33045       0   33047   33048   33048       0   33050   33051
   33051       0   33053   33054   33054       0   33056   33057   33057       0
   33059   33060   33060       0   33062   33063   33063       0   33065   33066
   33066       0   33068   33069   33069       0   33071   33072   33072       0
   33074   33075   33075       0   33077   33078   33078       0   33080   33081
   33081       0   33083   33084   33084       0   33086   33087   33087       0
   33089   33090   33090       0   33092   33093   33093       0   33095   33096
   33096       0   33098   33099   33099       0   33101   33102   33102       0
   33104   33105   33105       0   33107   33108   33108       0   33110   33111
   33111       0   33113   33114   33114       0   33116   33117   33117       0
   33119   33120   33120       0   33122   33123   33123       0   33125   33126
   33126       0   33128   33129   33129       0   33131   33132   33132       0
   33134   33135   33135       0   33137   33138   33138       0   33140   33141
   33141       0   33143   33144   33144       0   33146   33147   33147       0
   33149   33150   33150       0   33152   33153   33153       0   33155   33156
   33156       0   33158   33159   33159       0   33161   33162   33162       0
   33164   33165   33165       0   33167   33168   33168       0   33170   33171
   33171       0   33173   33174   33174       0   33176   33177   33177       0
   33179   33180   33180       0   33182   33183   33183       0   33185   33186
   33186       0   33188   33189   33189       0   33191   33192   33192       0
   33194   33195   33195       0   33197   33198   33198       0   33200   33201
   33201       0   33203   33204   33204       0   33206   33207   33207       0
   33209   33210   33210       0   33212   33213   33213       0   33215   33216
   33216       0   33218   33219   33219       0   33221   33222   33222       0
   33224   33225   33225       0   33227   33228   33228       0   33230   33231
   33231       0   33233   33234   33234       0   33236   33237   33237       0
   33239   33240   33240       0   33242   33243   33243       0   33245   33246
   33246       0   33248   33249   33249       0   33251   33252   33252       0
   33254   33255   33255       0   33257   33258   33258       0   33260   33261
   33261       0   33263   33264   33264       0   33266   33267   33267       0
   33269   33270   33270       0   33272   33273   33273       0   33275   33276
   33276       0   33278   33279   33279       0   33281   33282   33282       0
   33284   33285   33285       0   33287   33288   33288       0   33290   33291
   33291       0   33293   33294   33294       0   33296   33297   33297       0
   33299   33300   33300       0   33302   33303   33303       0   33305   33306
   33306       0   33308   33309   33309       0   33311   33312   33312       0
   33314   33315   33315       0   33317   33318   33318       0   33320   33321
   33321       0   33323   33324   33324       0   33326   33327   33327       0
   33329   33330   33330       0   33332   33333   33333       0   33335   33336
   33336       0   33338   33339   33339       0   33341   33342   33342       0
   33344   33345   33345       0   33347   33348   33348       0   33350   33351
   33351       0   33353   33354   33354       0   33356   33357   33357       0
   33359   33360   33360       0   33362   33363   33363       0   33365   33366
   33366       0   33368   33369   33369       0   33371   33372   33372       0
   33374   33375   33375       0   33377   33378   33378       0   33380   33381
   33381       0   33383   33384   33384       0   33386   33387   33387       0
   33389   33390   33390       0   33392   33393   33393       0   33395   33396
   33396       0   33398   33399   33399       0   33401   33402   33402       0
   33404   33405   33405       0   33407   33408   33408       0   33410   33411
   33411       0   33413   33414   33414       0   33416   33417   33417       0
   33419   33420   33420       0   33422   33423   33423       0   33425   33426
   33426       0   33428   33429   33429       0   33431   33432   33432       0
   33434   33435   33435       0   33437   33438   33438       0   33440   33441
   33441       0   33443   33444   33444       0   33446   33447   33447       0
   33449   33450   33450       0   33452   33453   33453       0   33455   33456
   33456       0   33458   33459   33459       0   33461   33462   33462       0
   33464   33465   33465       0   33467   33468   33468       0   33470   33471
   33471       0   33473   33474   33474       0   33476   33477   33477       0
   33479   33480   33480       0   33482   33483   33483       0   33485   33486
   33486       0   33488   33489   33489       0   33491   33492   33492       0
   33494   33495   33495       0   33497   33498   33498       0   33500   33501
   33501       0   33503   33504   33504       0   33506   33507   33507       0
   33509   33510   33510       0   33512   33513   33513       0   33515   33516
   33516       0   33518   33519   33519       0   33521   33522   33522       0
   33524   33525   33525       0   33527   33528   33528       0   33530   33531
   33531       0   33533   33534   33534       0   33536   33537   33537       0
   33539   33540   33540       0   33542   33543   33543       0   33545   33546
   33546       0   33548   33549   33549       0   33551   33552   33552       0
   33554   33555   33555       0   33557   33558   33558       0   33560   33561
   33561       0   33563   33564   33564       0   33566   33567   33567       0
   33569   33570   33570       0   33572   33573   33573       0   33575   33576
   33576       0   33578   33579   33579       0   33581   33582   33582       0
   33584   33585   33585       0   33587   33588   33588       0   33590   33591
   33591       0   33593   33594   33594       0   33596   33597   33597       0
   33599   33600   33600       0   33602   33603   33603       0   33605   33606
   33606       0   33608   33609   33609       0   33611   33612   33612       0
   33614   33615   33615       0   33617   33618   33618       0   33620   33621
   33621       0   33623   33624   33624       0   33626   33627   33627       0
   33629   33630   33630       0   33632   33633   33633       0   33635   33636
   33636       0   33638   33639   33639       0   33641   33642   33642       0
   33644   33645   33645       0   33647   33648   33648       0   33650   33651
   33651       0   33653   33654   33654       0   33656   33657   33657       0
   33659   33660   33660       0   33662   33663   33663       0   33665   33666
   33666       0   33668   33669   33669       0   33671   33672   33672       0
   33674   33675   33675       0   33677   33678   33678       0   33680   33681
   33681       0   33683   33684   33684       0   33686   33687   33687       0
   33689   33690   33690       0   33692   33693   33693       0   33695   33696
   33696       0   33698   33699   33699       0   33701   33702   33702       0
   33704   33705   33705       0   33707   33708   33708       0   33710   33711
   33711       0   33713   33714   33714       0   33716   33717   33717       0
   33719   33720   33720       0   33722   33723   33723       0   33725   33726
   33726       0   33728   33729   33729       0   33731   33732   33732       0
   33734   33735   33735       0   33737   33738   33738       0   33740   33741
   33741       0   33743   33744   33744       0   33746   33747   33747       0
   33749   33750   33750       0   33752   33753   33753       0   33755   33756
   33756       0   33758   33759   33759       0   33761   33762   33762       0
   33764   33765   33765       0   33767   33768   33768       0   33770   33771
   33771       0   33773   33774   33774       0   33776   33777   33777       0
   33779   33780   33780       0   33782   33783   33783       0   33785   33786
   33786       0   33788   33789   33789       0   33791   33792   33792       0
   33794   33795   33795       0   33797   33798   33798       0   33800   33801
   33801       0   33803   33804   33804       0   33806   33807   33807       0
   33809   33810   33810       0   33812   33813   33813       0   33815   33816
   33816       0   33818   33819   33819       0   33821   33822   33822       0
   33824   33825   33825       0   33827   33828   33828       0   33830   33831
   33831       0   33833   33834   33834       0   33836   33837   33837       0
   33839   33840   33840       0   33842   33843   33843       0   33845   33846
   33846       0   33848   33849   33849       0   33851   33852   33852       0
   33854   33855   33855       0   33857   33858   33858       0   33860   33861
   33861       0   33863   33864   33864       0   33866   33867   33867       0
   33869   33870   33870       0   33872   33873   33873       0   33875   33876
   33876       0   33878   33879   33879       0   33881   33882   33882       0
   33884   33885   33885       0   33887   33888   33888       0   33890   33891
   33891       0   33893   33894   33894       0   33896   33897   33897       0
   33899   33900   33900       0   33902   33903   33903       0   33905   33906
   33906       0   33908   33909   33909       0   33911   33912   33912       0
   33914   33915   33915       0   33917   33918   33918       0   33920   33921
   33921       0   33923   33924   33924       0   33926   33927   33927       0
   33929   33930   33930       0   33932   33933   33933       0   33935   33936
   33936       0   33938   33939   33939       0   33941   33942   33942       0
   33944   33945   33945       0   33947   33948   33948       0   33950   33951
   33951       0   33953   33954   33954       0   33956   33957   33957       0
   33959   33960   33960       0   33962   33963   33963       0   33965   33966
   33966       0   33968   33969   33969       0   33971   33972   33972       0
   33974   33975   33975       0   33977   33978   33978       0   33980   33981
   33981       0   33983   33984   33984       0   33986   33987   33987       0
   33989   33990   33990       0   33992   33993   33993       0   33995   33996
   33996       0   33998   33999   33999       0   34001   34002   34002       0
   34004   34005   34005       0   34007   34008   34008       0   34010   34011
   34011       0   34013   34014   34014       0   34016   34017   34017       0
   34019   34020   34020       0   34022   34023   34023       0   34025   34026
   34026       0   34028   34029   34029       0   34031   34032   34032       0
   34034   34035   34035       0   34037   34038   34038       0   34040   34041
   34041       0   34043   34044   34044       0   34046   34047   34047       0
   34049   34050   34050       0   34052   34053   34053       0   34055   34056
   34056       0   34058   34059   34059       0   34061   34062   34062       0
   34064   34065   34065       0   34067   34068   34068       0   34070   34071
   34071       0   34073   34074   34074       0   34076   34077   34077       0
   34079   34080   34080       0   34082   34083   34083       0   34085   34086
   34086       0   34088   34089   34089       0   34091   34092   34092       0
   34094   34095   34095       0   34097   34098   34098       0   34100   34101
   34101       0   34103   34104   34104       0   34106   34107   34107       0
   34109   34110   34110       0   34112   34113   34113       0   34115   34116
   34116       0   34118   34119   34119       0   34121   34122   34122       0
   34124   34125   34125       0   34127   34128   34128       0   34130   34131
   34131       0   34133   34134   34134       0   34136   34137   34137       0
   34139   34140   34140       0   34142   34143   34143       0   34145   34146
   34146       0   34148   34149   34149       0   34151   34152   34152       0
   34154   34155   34155       0   34157   34158   34158       0   34160   34161
   34161       0   34163   34164   34164       0   34166   34167   34167       0
   34169   34170   34170       0   34172   34173   34173       0   34175   34176
   34176       0   34178   34179   34179       0   34181   34182   34182       0
   34184   34185   34185       0   34187   34188   34188       0   34190   34191
   34191       0   34193   34194   34194       0   34196   34197   34197       0
   34199   34200   34200       0   34202   34203   34203       0   34205   34206
   34206       0   34208   34209   34209       0   34211   34212   34212       0
   34214   34215   34215       0   34217   34218   34218       0   34220   34221
   34221       0   34223   34224   34224       0   34226   34227   34227       0
   34229   34230   34230       0   34232   34233   34233       0   34235   34236
   34236       0   34238   34239   34239       0   34241   34242   34242       0
   34244   34245   34245       0   34247   34248   34248       0   34250   34251
   34251       0   34253   34254   34254       0   34256   34257   34257       0
   34259   34260   34260       0   34262   34263   34263       0   34265   34266
   34266       0   34268   34269   34269       0   34271   34272   34272       0
   34274   34275   34275       0   34277   34278   34278       0   34280   34281
   34281       0   34283   34284   34284       0   34286   34287   34287       0
   34289   34290   34290       0   34292   34293   34293       0   34295   34296
   34296       0   34298   34299   34299       0   34301   34302   34302       0
   34304   34305   34305       0   34307   34308   34308       0   34310   34311
   34311       0   34313   34314   34314       0   34316   34317   34317       0
   34319   34320   34320       0   34322   34323   34323       0   34325   34326
   34326       0   34328   34329   34329       0   34331   34332   34332       0
   34334   34335   34335       0   34337   34338   34338       0   34340   34341
   34341       0   34343   34344   34344       0   34346   34347   34347       0
   34349   34350   34350       0   34352   34353   34353       0   34355   34356
   34356       0   34358   34359   34359       0   34361   34362   34362       0
   34364   34365   34365       0   34367   34368   34368       0   34370   34371
   34371       0   34373   34374   34374       0   34376   34377   34377       0
   34379   34380   34380       0   34382   34383   34383       0   34385   34386
   34386       0   34388   34389   34389       0   34391   34392   34392       0
   34394   34395   34395       0   34397   34398   34398       0   34400   34401
   34401       0   34403   34404   34404       0   34406   34407   34407       0
   34409   34410   34410       0   34412   34413   34413       0   34415   34416
   34416       0   34418   34419   34419       0   34421   34422   34422       0
   34424   34425   34425       0   34427   34428   34428       0   34430   34431
   34431       0   34433   34434   34434       0   34436   34437   34437       0
   34439   34440   34440       0   34442   34443   34443       0   34445   34446
   34446       0   34448   34449   34449       0   34451   34452   34452       0
   34454   34455   34455       0   34457   34458   34458       0   34460   34461
   34461       0   34463   34464   34464       0   34466   34467   34467       0
   34469   34470   34470       0   34472   34473   34473       0   34475   34476
   34476       0   34478   34479   34479       0   34481   34482   34482       0
   34484   34485   34485       0   34487   34488   34488       0   34490   34491
   34491       0   34493   34494   34494       0   34496   34497   34497       0
   34499   34500   34500       0   34502   34503   34503       0   34505   34506
   34506       0   34508   34509   34509       0   34511   34512   34512       0
   34514   34515   34515       0   34517   34518   34518       0   34520   34521
   34521       0   34523   34524   34524       0   34526   34527   34527       0
   34529   34530   34530       0   34532   34533   34533       0   34535   34536
   34536       0   34538   34539   34539       0   34541   34542   34542       0
   34544   34545   34545       0   34547   34548   34548       0   34550   34551
   34551       0   34553   34554   34554       0   34556   34557   34557       0
   34559   34560   34560       0   34562   34563   34563       0   34565   34566
   34566       0   34568   34569   34569       0   34571   34572   34572       0
   34574   34575   34575       0   34577   34578   34578       0   34580   34581
   34581       0   34583   34584   34584       0   34586   34587   34587       0
   34589   34590   34590       0   34592   34593   34593       0   34595   34596
   34596       0   34598   34599   34599       0   34601   34602   34602       0
   34604   34605   34605       0   34607   34608   34608       0   34610   34611
   34611       0   34613   34614   34614       0   34616   34617   34617       0
   34619   34620   34620       0   34622   34623   34623       0   34625   34626
   34626       0   34628   34629   34629       0   34631   34632   34632       0
   34634   34635   34635       0   34637   34638   34638       0   34640   34641
   34641       0   34643   34644   34644       0   34646   34647   34647       0
   34649   34650   34650       0   34652   34653   34653       0   34655   34656
   34656       0   34658   34659   34659       0   34661   34662   34662       0
   34664   34665   34665       0   34667   34668   34668       0   34670   34671
   34671       0   34673   34674   34674       0   34676   34677   34677       0
   34679   34680   34680       0   34682   34683   34683       0   34685   34686
   34686       0   34688   34689   34689       0   34691   34692   34692       0
   34694   34695   34695       0   34697   34698   34698       0   34700   34701
   34701       0   34703   34704   34704       0   34706   34707   34707       0
   34709   34710   34710       0   34712   34713   34713       0   34715   34716
   34716       0   34718   34719   34719       0   34721   34722   34722       0
   34724   34725   34725       0   34727   34728   34728       0   34730   34731
   34731       0   34733   34734   34734       0   34736   34737   34737       0
   34739   34740   34740       0   34742   34743   34743       0   34745   34746
   34746       0   34748   34749   34749       0   34751   34752   34752       0
   34754   34755   34755       0   34757   34758   34758       0   34760   34761
   34761       0   34763   34764   34764       0   34766   34767   34767       0
   34769   34770   34770       0   34772   34773   34773       0   34775   34776
   34776       0   34778   34779   34779       0   34781   34782   34782       0
   34784   34785   34785       0   34787   34788   34788       0   34790   34791
   34791       0   34793   34794   34794       0   34796   34797   34797       0
   34799   34800   34800       0   34802   34803   34803       0   34805   34806
   34806       0   34808   34809   34809       0   34811   34812   34812       0
   34814   34815   34815       0   34817   34818   34818       0   34820   34821
   34821       0   34823   34824   34824       0   34826   34827   34827       0
   34829   34830   34830       0   34832   34833   34833       0   34835   34836
   34836       0   34838   34839   34839       0   34841   34842   34842       0
   34844   34845   34845       0   34847   34848   34848       0   34850   34851
   34851       0   34853   34854   34854       0   34856   34857   34857       0
   34859   34860   34860       0   34862   34863   34863       0   34865   34866
   34866       0   34868   34869   34869       0   34871   34872   34872       0
   34874   34875   34875       0   34877   34878   34878       0   34880   34881
   34881       0   34883   34884   34884       0   34886   34887   34887       0
   34889   34890   34890       0   34892   34893   34893       0   34895   34896
   34896       0   34898   34899   34899       0   34901   34902   34902       0
   34904   34905   34905       0   34907   34908   34908       0   34910   34911
   34911       0   34913   34914   34914       0   34916   34917   34917       0
   34919   34920   34920       0   34922   34923   34923       0   34925   34926
   34926       0   34928   34929   34929       0   34931   34932   34932       0
   34934   34935   34935       0   34937   34938   34938       0   34940   34941
   34941       0   34943   34944   34944       0   34946   34947   34947       0
   34949   34950   34950       0   34952   34953   34953       0   34955   34956
   34956       0   34958   34959   34959       0   34961   34962   34962       0
   34964   34965   34965       0   34967   34968   34968       0   34970   34971
   34971       0   34973   34974   34974       0   34976   34977   34977       0
   34979   34980   34980       0   34982   34983   34983       0   34985   34986
   34986       0   34988   34989   34989       0   34991   34992   34992       0
   34994   34995   34995       0   34997   34998   34998       0   35000   35001
   35001       0   35003   35004   35004       0   35006   35007   35007       0
   35009   35010   35010       0   35012   35013   35013       0   35015   35016
   35016       0   35018   35019   35019       0   35021   35022   35022       0
   35024   35025   35025       0   35027   35028   35028       0   35030   35031
   35031       0   35033   35034   35034       0   35036   35037   35037       0
   35039   35040   35040       0   35042   35043   35043       0   35045   35046
   35046       0   35048   35049   35049       0   35051   35052   35052       0
   35054   35055   35055       0   35057   35058   35058       0   35060   35061
   35061       0   35063   35064   35064       0   35066   35067   35067       0
   35069   35070   35070       0   35072   35073   35073       0   35075   35076
   35076       0   35078   35079   35079       0   35081   35082   35082       0
   35084   35085   35085       0   35087   35088   35088       0   35090   35091
   35091       0   35093   35094   35094       0   35096   35097   35097       0
   35099   35100   35100       0   35102   35103   35103       0   35105   35106
   35106       0   35108   35109   35109       0   35111   35112   35112       0
   35114   35115   35115       0   35117   35118   35118       0   35120   35121
   35121       0   35123   35124   35124       0   35126   35127   35127       0
   35129   35130   35130       0   35132   35133   35133       0   35135   35136
   35136       0   35138   35139   35139       0   35141   35142   35142       0
   35144   35145   35145       0   35147   35148   35148       0   35150   35151
   35151       0   35153   35154   35154       0   35156   35157   35157       0
   35159   35160   35160       0   35162   35163   35163       0   35165   35166
   35166       0   35168   35169   35169       0   35171   35172   35172       0
   35174   35175   35175       0   35177   35178   35178       0   35180   35181
   35181       0   35183   35184   35184       0   35186   35187   35187       0
   35189   35190   35190       0   35192   35193   35193       0   35195   35196
   35196       0   35198   35199   35199       0   35201   35202   35202       0
   35204   35205   35205       0   35207   35208   35208       0   35210   35211
   35211       0   35213   35214   35214       0   35216   35217   35217       0
   35219   35220   35220       0   35222   35223   35223       0   35225   35226
   35226       0   35228   35229   35229       0   35231   35232   35232       0
   35234   35235   35235       0   35237   35238   35238       0   35240   35241
   35241       0   35243   35244   35244       0   35246   35247   35247       0
   35249   35250   35250       0   35252   35253   35253       0   35255   35256
   35256       0   35258   35259   35259       0   35261   35262   35262       0
   35264   35265   35265       0   35267   35268   35268       0   35270   35271
   35271       0   35273   35274   35274       0   35276   35277   35277       0
   35279   35280   35280       0   35282   35283   35283       0   35285   35286
   35286       0   35288   35289   35289       0   35291   35292   35292       0
   35294   35295   35295       0   35297   35298   35298       0   35300   35301
   35301       0   35303   35304   35304       0   35306   35307   35307       0
   35309   35310   35310       0   35312   35313   35313       0   35315   35316
   35316       0   35318   35319   35319       0   35321   35322   35322       0
   35324   35325   35325       0   35327   35328   35328       0   35330   35331
   35331       0   35333   35334   35334       0   35336   35337   35337       0
   35339   35340   35340       0   35342   35343   35343       0   35345   35346
   35346       0   35348   35349   35349       0   35351   35352   35352       0
   35354   35355   35355       0   35357   35358   35358       0   35360   35361
   35361       0   35363   35364   35364       0   35366   35367   35367       0
   35369   35370   35370       0   35372   35373   35373       0   35375   35376
   35376       0   35378   35379   35379       0   35381   35382   35382       0
   35384   35385   35385       0   35387   35388   35388       0   35390   35391
   35391       0   35393   35394   35394       0   35396   35397   35397       0
   35399   35400   35400       0   35402   35403   35403       0   35405   35406
   35406       0   35408   35409   35409       0   35411   35412   35412       0
   35414   35415   35415       0   35417   35418   35418       0   35420   35421
   35421       0   35423   35424   35424       0   35426   35427   35427       0
   35429   35430   35430       0   35432   35433   35433       0   35435   35436
   35436       0   35438   35439   35439       0   35441   35442   35442       0
   35444   35445   35445       0   35447   35448   35448       0   35450   35451
   35451       0   35453   35454   35454       0   35456   35457   35457       0
   35459   35460   35460       0   35462   35463   35463       0   35465   35466
   35466       0   35468   35469   35469       0   35471   35472   35472       0
   35474   35475   35475       0   35477   35478   35478       0   35480   35481
   35481       0   35483   35484   35484       0   35486   35487   35487       0
   35489   35490   35490       0   35492   35493   35493       0   35495   35496
   35496       0   35498   35499   35499       0   35501   35502   35502       0
   35504   35505   35505       0   35507   35508   35508       0   35510   35511
   35511       0   35513   35514   35514       0   35516   35517   35517       0
   35519   35520   35520       0   35522   35523   35523       0   35525   35526
   35526       0   35528   35529   35529       0   35531   35532   35532       0
   35534   35535   35535       0   35537   35538   35538       0   35540   35541
   35541       0   35543   35544   35544       0   35546   35547   35547       0
   35549   35550   35550       0   35552   35553   35553       0   35555   35556
   35556       0   35558   35559   35559       0   35561   35562   35562       0
   35564   35565   35565       0   35567   35568   35568       0   35570   35571
   35571       0   35573   35574   35574       0   35576   35577   35577       0
   35579   35580   35580       0   35582   35583   35583       0   35585   35586
   35586       0   35588   35589   35589       0   35591   35592   35592       0
   35594   35595   35595       0   35597   35598   35598       0   35600   35601
   35601       0   35603   35604   35604       0   35606   35607   35607       0
   35609   35610   35610       0   35612   35613   35613       0   35615   35616
   35616       0   35618   35619   35619       0   35621   35622   35622       0
   35624   35625   35625       0   35627   35628   35628       0   35630   35631
   35631       0   35633   35634   35634       0   35636   35637   35637       0
   35639   35640   35640       0   35642   35643   35643       0   35645   35646
   35646       0   35648   35649   35649       0   35651   35652   35652       0
   35654   35655   35655       0   35657   35658   35658       0   35660   35661
   35661       0   35663   35664   35664       0   35666   35667   35667       0
   35669   35670   35670       0   35672   35673   35673       0   35675   35676
   35676       0   35678   35679   35679       0   35681   35682   35682       0
   35684   35685   35685       0   35687   35688   35688       0   35690   35691
   35691       0   35693   35694   35694       0   35696   35697   35697       0
   35699   35700   35700       0   35702   35703   35703       0   35705   35706
   35706       0   35708   35709   35709       0   35711   35712   35712       0
   35714   35715   35715       0   35717   35718   35718       0   35720   35721
   35721       0   35723   35724   35724       0   35726   35727   35727       0
   35729   35730   35730       0   35732   35733   35733       0   35735   35736
   35736       0   35738   35739   35739       0   35741   35742   35742       0
   35744   35745   35745       0   35747   35748   35748       0   35750   35751
   35751       0   35753   35754   35754       0   35756   35757   35757       0
   35759   35760   35760       0   35762   35763   35763       0   35765   35766
   35766       0   35768   35769   35769       0   35771   35772   35772       0
   35774   35775   35775       0   35777   35778   35778       0   35780   35781
   35781       0   35783   35784   35784       0   35786   35787   35787       0
   35789   35790   35790       0   35792   35793   35793       0   35795   35796
   35796       0   35798   35799   35799       0   35801   35802   35802       0
   35804   35805   35805       0   35807   35808   35808       0   35810   35811
   35811       0   35813   35814   35814       0   35816   35817   35817       0
   35819   35820   35820       0   35822   35823   35823       0   35825   35826
   35826       0   35828   35829   35829       0   35831   35832   35832       0
   35834   35835   35835       0   35837   35838   35838       0   35840   35841
   35841       0   35843   35844   35844       0   35846   35847   35847       0
   35849   35850   35850       0   35852   35853   35853       0   35855   35856
   35856       0   35858   35859   35859       0   35861   35862   35862       0
   35864   35865   35865       0   35867   35868   35868       0   35870   35871
   35871       0   35873   35874   35874       0   35876   35877   35877       0
   35879   35880   35880       0   35882   35883   35883       0   35885   35886
   35886       0   35888   35889   35889       0   35891   35892   35892       0
   35894   35895   35895       0   35897   35898   35898       0   35900   35901
   35901       0   35903   35904   35904       0   35906   35907   35907       0
   35909   35910   35910       0   35912   35913   35913       0   35915   35916
   35916       0   35918   35919   35919       0   35921   35922   35922       0
   35924   35925   35925       0   35927   35928   35928       0   35930   35931
   35931       0   35933   35934   35934       0   35936   35937   35937       0
   35939   35940   35940       0   35942   35943   35943       0   35945   35946
   35946       0   35948   35949   35949       0   35951   35952   35952       0
   35954   35955   35955       0   35957   35958   35958       0   35960   35961
   35961       0   35963   35964   35964       0   35966   35967   35967       0
   35969   35970   35970       0   35972   35973   35973       0   35975   35976
   35976       0   35978   35979   35979       0   35981   35982   35982       0
   35984   35985   35985       0   35987   35988   35988       0   35990   35991
   35991       0   35993   35994   35994       0   35996   35997   35997       0
   35999   36000   36000       0   36002   36003   36003       0   36005   36006
   36006       0   36008   36009   36009       0   36011   36012   36012       0
   36014   36015   36015       0   36017   36018   36018       0   36020   36021
   36021       0   36023   36024   36024       0   36026   36027   36027       0
   36029   36030   36030       0   36032   36033   36033       0   36035   36036
   36036       0   36038   36039   36039       0   36041   36042   36042       0
   36044   36045   36045       0   36047   36048   36048       0   36050   36051
   36051       0   36053   36054   36054       0   36056   36057   36057       0
   36059   36060   36060       0   36062   36063   36063       0   36065   36066
   36066       0   36068   36069   36069       0   36071   36072   36072       0
   36074   36075   36075       0   36077   36078   36078       0   36080   36081
   36081       0   36083   36084   36084       0   36086   36087   36087       0
   36089   36090   36090       0   36092   36093   36093       0   36095   36096
   36096       0   36098   36099   36099       0   36101   36102   36102       0
   36104   36105   36105       0   36107   36108   36108       0   36110   36111
   36111       0   36113   36114   36114       0   36116   36117   36117       0
   36119   36120   36120       0   36122   36123   36123       0   36125   36126
   36126       0   36128   36129   36129       0   36131   36132   36132       0
   36134   36135   36135       0   36137   36138   36138       0   36140   36141
   36141       0   36143   36144   36144       0   36146   36147   36147       0
   36149   36150   36150       0   36152   36153   36153       0   36155   36156
   36156       0   36158   36159   36159       0   36161   36162   36162       0
   36164   36165   36165       0   36167   36168   36168       0   36170   36171
   36171       0   36173   36174   36174       0   36176   36177   36177       0
   36179   36180   36180       0   36182   36183   36183       0   36185   36186
   36186       0   36188   36189   36189       0   36191   36192   36192       0
   36194   36195   36195       0   36197   36198   36198       0   36200   36201
   36201       0   36203   36204   36204       0   36206   36207   36207       0
   36209   36210   36210       0   36212   36213   36213       0   36215   36216
   36216       0   36218   36219   36219       0   36221   36222   36222       0
   36224   36225   36225       0   36227   36228   36228       0   36230   36231
   36231       0   36233   36234   36234       0   36236   36237   36237       0
   36239   36240   36240       0   36242   36243   36243       0   36245   36246
   36246       0   36248   36249   36249       0   36251   36252   36252       0
   36254   36255   36255       0   36257   36258   36258       0   36260   36261
   36261       0   36263   36264   36264       0   36266   36267   36267       0
   36269   36270   36270       0   36272   36273   36273       0   36275   36276
   36276       0   36278   36279   36279       0   36281   36282   36282       0
   36284   36285   36285       0   36287   36288   36288       0   36290   36291
   36291       0   36293   36294   36294       0   36296   36297   36297       0
   36299   36300   36300       0   36302   36303   36303       0   36305   36306
   36306       0   36308   36309   36309       0   36311   36312   36312       0
   36314   36315   36315       0   36317   36318   36318       0   36320   36321
   36321       0   36323   36324   36324       0   36326   36327   36327       0
   36329   36330   36330       0   36332   36333   36333       0   36335   36336
   36336       0   36338   36339   36339       0   36341   36342   36342       0
   36344   36345   36345       0   36347   36348   36348       0   36350   36351
   36351       0   36353   36354   36354       0   36356   36357   36357       0
   36359   36360   36360       0   36362   36363   36363       0   36365   36366
   36366       0   36368   36369   36369       0   36371   36372   36372       0
   36374   36375   36375       0   36377   36378   36378       0   36380   36381
   36381       0   36383   36384   36384       0   36386   36387   36387       0
   36389   36390   36390       0   36392   36393   36393       0   36395   36396
   36396       0   36398   36399   36399       0   36401   36402   36402       0
   36404   36405   36405       0   36407   36408   36408       0   36410   36411
   36411       0   36413   36414   36414       0   36416   36417   36417       0
   36419   36420   36420       0   36422   36423   36423       0   36425   36426
   36426       0   36428   36429   36429       0   36431   36432   36432       0
   36434   36435   36435       0   36437   36438   36438       0   36440   36441
   36441       0   36443   36444   36444       0   36446   36447   36447       0
   36449   36450   36450       0   36452   36453   36453       0   36455   36456
   36456       0   36458   36459   36459       0   36461   36462   36462       0
   36464   36465   36465       0   36467   36468   36468       0   36470   36471
   36471       0   36473   36474   36474       0   36476   36477   36477       0
   36479   36480   36480       0   36482   36483   36483       0   36485   36486
   36486       0   36488   36489   36489       0   36491   36492   36492       0
   36494   36495   36495       0   36497   36498   36498       0   36500   36501
   36501       0   36503   36504   36504       0   36506   36507   36507       0
   36509   36510   36510       0   36512   36513   36513       0   36515   36516
   36516       0   36518   36519   36519       0   36521   36522   36522       0
   36524   36525   36525       0   36527   36528   36528       0   36530   36531
   36531       0   36533   36534   36534       0   36536   36537   36537       0
   36539   36540   36540       0   36542   36543   36543       0   36545   36546
   36546       0   36548   36549   36549       0   36551   36552   36552       0
   36554   36555   36555       0   36557   36558   36558       0   36560   36561
   36561       0   36563   36564   36564       0   36566   36567   36567       0
   36569   36570   36570       0   36572   36573   36573       0   36575   36576
   36576       0   36578   36579   36579       0   36581   36582   36582       0
   36584   36585   36585       0   36587   36588   36588       0   36590   36591
   36591       0   36593   36594   36594       0   36596   36597   36597       0
   36599   36600   36600       0   36602   36603   36603       0   36605   36606
   36606       0   36608   36609   36609       0   36611   36612   36612       0
   36614   36615   36615       0   36617   36618   36618       0   36620   36621
   36621       0   36623   36624   36624       0   36626   36627   36627       0
   36629   36630   36630       0   36632   36633   36633       0   36635   36636
   36636       0   36638   36639   36639       0   36641   36642   36642       0
   36644   36645   36645       0   36647   36648   36648       0   36650   36651
   36651       0   36653   36654   36654       0   36656   36657   36657       0
   36659   36660   36660       0   36662   36663   36663       0   36665   36666
   36666       0   36668   36669   36669       0   36671   36672   36672       0
   36674   36675   36675       0   36677   36678   36678       0   36680   36681
   36681       0   36683   36684   36684       0   36686   36687   36687       0
   36689   36690   36690       0   36692   36693   36693       0   36695   36696
   36696       0   36698   36699   36699       0   36701   36702   36702       0
   36704   36705   36705       0   36707   36708   36708       0   36710   36711
   36711       0   36713   36714   36714       0   36716   36717   36717       0
   36719   36720   36720       0   36722   36723   36723       0   36725   36726
   36726       0   36728   36729   36729       0   36731   36732   36732       0
   36734   36735   36735       0   36737   36738   36738       0   36740   36741
   36741       0   36743   36744   36744       0   36746   36747   36747       0
   36749   36750   36750       0   36752   36753   36753       0   36755   36756
   36756       0   36758   36759   36759       0   36761   36762   36762       0
   36764   36765   36765       0   36767   36768   36768       0   36770   36771
   36771       0   36773   36774   36774       0   36776   36777   36777       0
   36779   36780   36780       0   36782   36783   36783       0   36785   36786
   36786       0   36788   36789   36789       0   36791   36792   36792       0
   36794   36795   36795       0   36797   36798   36798       0   36800   36801
   36801       0   36803   36804   36804       0   36806   36807   36807       0
   36809   36810   36810       0   36812   36813   36813       0   36815   36816
   36816       0   36818   36819   36819       0   36821   36822   36822       0
   36824   36825   36825       0   36827   36828   36828       0   36830   36831
   36831       0   36833   36834   36834       0   36836   36837   36837       0
   36839   36840   36840       0   36842   36843   36843       0   36845   36846
   36846       0   36848   36849   36849       0   36851   36852   36852       0
   36854   36855   36855       0   36857   36858   36858       0   36860   36861
   36861       0   36863   36864   36864       0   36866   36867   36867       0
   36869   36870   36870       0   36872   36873   36873       0   36875   36876
   36876       0   36878   36879   36879       0   36881   36882   36882       0
   36884   36885   36885       0   36887   36888   36888       0   36890   36891
   36891       0   36893   36894   36894       0   36896   36897   36897       0
   36899   36900   36900       0   36902   36903   36903       0   36905   36906
   36906       0   36908   36909   36909       0   36911   36912   36912       0
   36914   36915   36915       0   36917   36918   36918       0   36920   36921
   36921       0   36923   36924   36924       0   36926   36927   36927       0
   36929   36930   36930       0   36932   36933   36933       0   36935   36936
   36936       0   36938   36939   36939       0   36941   36942   36942       0
   36944   36945   36945       0   36947   36948   36948       0   36950   36951
   36951       0   36953   36954   36954       0   36956   36957   36957       0
   36959   36960   36960       0   36962   36963   36963       0   36965   36966
   36966       0   36968   36969   36969       0   36971   36972   36972       0
   36974   36975   36975       0   36977   36978   36978       0   36980   36981
   36981       0   36983   36984   36984       0   36986   36987   36987       0
   36989   36990   36990       0   36992   36993   36993       0   36995   36996
   36996       0   36998   36999   36999       0   37001   37002   37002       0
   37004   37005   37005       0   37007   37008   37008       0   37010   37011
   37011       0   37013   37014   37014       0   37016   37017   37017       0
   37019   37020   37020       0   37022   37023   37023       0   37025   37026
   37026       0   37028   37029   37029       0   37031   37032   37032       0
   37034   37035   37035       0   37037   37038   37038       0   37040   37041
   37041       0   37043   37044   37044       0   37046   37047   37047       0
   37049   37050   37050       0   37052   37053   37053       0   37055   37056
   37056       0   37058   37059   37059       0   37061   37062   37062       0
   37064   37065   37065       0   37067   37068   37068       0   37070   37071
   37071       0   37073   37074   37074       0   37076   37077   37077       0
   37079   37080   37080       0   37082   37083   37083       0   37085   37086
   37086       0   37088   37089   37089       0   37091   37092   37092       0
   37094   37095   37095       0   37097   37098   37098       0   37100   37101
   37101       0   37103   37104   37104       0   37106   37107   37107       0
   37109   37110   37110       0   37112   37113   37113       0   37115   37116
   37116       0   37118   37119   37119       0   37121   37122   37122       0
   37124   37125   37125       0   37127   37128   37128       0   37130   37131
   37131       0   37133   37134   37134       0   37136   37137   37137       0
   37139   37140   37140       0   37142   37143   37143       0   37145   37146
   37146       0   37148   37149   37149       0   37151   37152   37152       0
   37154   37155   37155       0   37157   37158   37158       0   37160   37161
   37161       0   37163   37164   37164       0   37166   37167   37167       0
   37169   37170   37170       0   37172   37173   37173       0   37175   37176
   37176       0   37178   37179   37179       0   37181   37182   37182       0
   37184   37185   37185       0   37187   37188   37188       0   37190   37191
   37191       0   37193   37194   37194       0   37196   37197   37197       0
   37199   37200   37200       0   37202   37203   37203       0   37205   37206
   37206       0   37208   37209   37209       0   37211   37212   37212       0
   37214   37215   37215       0   37217   37218   37218       0   37220   37221
   37221       0   37223   37224   37224       0   37226   37227   37227       0
   37229   37230   37230       0   37232   37233   37233       0   37235   37236
   37236       0   37238   37239   37239       0   37241   37242   37242       0
   37244   37245   37245       0   37247   37248   37248       0   37250   37251
   37251       0   37253   37254   37254       0   37256   37257   37257       0
   37259   37260   37260       0   37262   37263   37263       0   37265   37266
   37266       0   37268   37269   37269       0   37271   37272   37272       0
   37274   37275   37275       0   37277   37278   37278       0   37280   37281
   37281       0   37283   37284   37284       0   37286   37287   37287       0
   37289   37290   37290       0   37292   37293   37293       0   37295   37296
   37296       0   37298   37299   37299       0   37301   37302   37302       0
   37304   37305   37305       0   37307   37308   37308       0   37310   37311
   37311       0   37313   37314   37314       0   37316   37317   37317       0
   37319   37320   37320       0   37322   37323   37323       0   37325   37326
   37326       0   37328   37329   37329       0   37331   37332   37332       0
   37334   37335   37335       0   37337   37338   37338       0   37340   37341
   37341       0   37343   37344   37344       0   37346   37347   37347       0
   37349   37350   37350       0   37352   37353   37353       0   37355   37356
   37356       0   37358   37359   37359       0   37361   37362   37362       0
   37364   37365   37365       0   37367   37368   37368       0   37370   37371
   37371       0   37373   37374   37374       0   37376   37377   37377       0
   37379   37380   37380       0   37382   37383   37383       0   37385   37386
   37386       0   37388   37389   37389       0   37391   37392   37392       0
   37394   37395   37395       0   37397   37398   37398       0   37400   37401
   37401       0   37403   37404   37404       0   37406   37407   37407       0
   37409   37410   37410       0   37412   37413   37413       0   37415   37416
   37416       0   37418   37419   37419       0   37421   37422   37422       0
   37424   37425   37425       0   37427   37428   37428       0   37430   37431
   37431       0   37433   37434   37434       0   37436   37437   37437       0
   37439   37440   37440       0   37442   37443   37443       0   37445   37446
   37446       0   37448   37449   37449       0   37451   37452   37452       0
   37454   37455   37455       0   37457   37458   37458       0   37460   37461
   37461       0   37463   37464   37464       0   37466   37467   37467       0
   37469   37470   37470       0   37472   37473   37473       0   37475   37476
   37476       0   37478   37479   37479       0   37481   37482   37482       0
   37484   37485   37485       0   37487   37488   37488       0   37490   37491
   37491       0   37493   37494   37494       0   37496   37497   37497       0
   37499   37500   37500       0   37502   37503   37503       0   37505   37506
   37506       0   37508   37509   37509       0   37511   37512   37512       0
   37514   37515   37515       0   37517   37518   37518       0   37520   37521
   37521       0   37523   37524   37524       0   37526   37527   37527       0
   37529   37530   37530       0   37532   37533   37533       0   37535   37536
   37536       0   37538   37539   37539       0   37541   37542   37542       0
   37544   37545   37545       0   37547   37548   37548       0   37550   37551
   37551       0   37553   37554   37554       0   37556   37557   37557       0
   37559   37560   37560       0   37562   37563   37563       0   37565   37566
   37566       0   37568   37569   37569       0   37571   37572   37572       0
   37574   37575   37575       0   37577   37578   37578       0   37580   37581
   37581       0   37583   37584   37584       0   37586   37587   37587       0
   37589   37590   37590       0   37592   37593   37593       0   37595   37596
   37596       0   37598   37599   37599       0   37601   37602   37602       0
   37604   37605   37605       0   37607   37608   37608       0   37610   37611
   37611       0   37613   37614   37614       0   37616   37617   37617       0
   37619   37620   37620       0   37622   37623   37623       0   37625   37626
   37626       0   37628   37629   37629       0   37631   37632   37632       0
   37634   37635   37635       0   37637   37638   37638       0   37640   37641
   37641       0   37643   37644   37644       0   37646   37647   37647       0
   37649   37650   37650       0   37652   37653   37653       0   37655   37656
   37656       0   37658   37659   37659       0   37661   37662   37662       0
   37664   37665   37665       0   37667   37668   37668       0   37670   37671
   37671       0   37673   37674   37674       0   37676   37677   37677       0
   37679   37680   37680       0   37682   37683   37683       0   37685   37686
   37686       0   37688   37689   37689       0   37691   37692   37692       0
   37694   37695   37695       0   37697   37698   37698       0   37700   37701
   37701       0   37703   37704   37704       0   37706   37707   37707       0
   37709   37710   37710       0   37712   37713   37713       0   37715   37716
   37716       0   37718   37719   37719       0   37721   37722   37722       0
   37724   37725   37725       0   37727   37728   37728       0   37730   37731
   37731       0   37733   37734   37734       0   37736   37737   37737       0
   37739   37740   37740       0   37742   37743   37743       0   37745   37746
   37746       0   37748   37749   37749       0   37751   37752   37752       0
   37754   37755   37755       0   37757   37758   37758       0   37760   37761
   37761       0   37763   37764   37764       0   37766   37767   37767       0
   37769   37770   37770       0   37772   37773   37773       0   37775   37776
   37776       0   37778   37779   37779       0   37781   37782   37782       0
   37784   37785   37785       0   37787   37788   37788       0   37790   37791
   37791       0   37793   37794   37794       0   37796   37797   37797       0
   37799   37800   37800       0   37802   37803   37803       0   37805   37806
   37806       0   37808   37809   37809       0   37811   37812   37812       0
   37814   37815   37815       0   37817   37818   37818       0   37820   37821
   37821       0   37823   37824   37824       0   37826   37827   37827       0
   37829   37830   37830       0   37832   37833   37833       0   37835   37836
   37836       0   37838   37839   37839       0   37841   37842   37842       0
   37844   37845   37845       0   37847   37848   37848       0   37850   37851
   37851       0   37853   37854   37854       0   37856   37857   37857       0
   37859   37860   37860       0   37862   37863   37863       0   37865   37866
   37866       0   37868   37869   37869       0   37871   37872   37872       0
   37874   37875   37875       0   37877   37878   37878       0   37880   37881
   37881       0   37883   37884   37884       0   37886   37887   37887       0
   37889   37890   37890       0   37892   37893   37893       0   37895   37896
   37896       0   37898   37899   37899       0   37901   37902   37902       0
   37904   37905   37905       0   37907   37908   37908       0   37910   37911
   37911       0   37913   37914   37914       0   37916   37917   37917       0
   37919   37920   37920       0   37922   37923   37923       0   37925   37926
   37926       0   37928   37929   37929       0   37931   37932   37932       0
   37934   37935   37935       0   37937   37938   37938       0   37940   37941
   37941       0   37943   37944   37944       0   37946   37947   37947       0
   37949   37950   37950       0   37952   37953   37953       0   37955   37956
   37956       0   37958   37959   37959       0   37961   37962   37962       0
   37964   37965   37965       0   37967   37968   37968       0   37970   37971
   37971       0   37973   37974   37974       0   37976   37977   37977       0
   37979   37980   37980       0   37982   37983   37983       0   37985   37986
   37986       0   37988   37989   37989       0   37991   37992   37992       0
   37994   37995   37995       0   37997   37998   37998       0   38000   38001
   38001       0   38003   38004   38004       0   38006   38007   38007       0
   38009   38010   38010       0   38012   38013   38013       0   38015   38016
   38016       0   38018   38019   38019       0   38021   38022   38022       0
   38024   38025   38025       0   38027   38028   38028       0   38030   38031
   38031       0   38033   38034   38034       0   38036   38037   38037       0
   38039   38040   38040       0   38042   38043   38043       0   38045   38046
   38046       0   38048   38049   38049       0   38051   38052   38052       0
   38054   38055   38055       0   38057   38058   38058       0   38060   38061
   38061       0   38063   38064   38064       0   38066   38067   38067       0
   38069   38070   38070       0   38072   38073   38073       0   38075   38076
   38076       0   38078   38079   38079       0   38081   38082   38082       0
   38084   38085   38085       0   38087   38088   38088       0   38090   38091
   38091       0   38093   38094   38094       0   38096   38097   38097       0
   38099   38100   38100       0   38102   38103   38103       0   38105   38106
   38106       0   38108   38109   38109       0   38111   38112   38112       0
   38114   38115   38115       0   38117   38118   38118       0   38120   38121
   38121       0   38123   38124   38124       0   38126   38127   38127       0
   38129   38130   38130       0   38132   38133   38133       0   38135   38136
   38136       0   38138   38139   38139       0   38141   38142   38142       0
   38144   38145   38145       0   38147   38148   38148       0   38150   38151
   38151       0   38153   38154   38154       0   38156   38157   38157       0
   38159   38160   38160       0   38162   38163   38163       0   38165   38166
   38166       0   38168   38169   38169       0   38171   38172   38172       0
   38174   38175   38175       0   38177   38178   38178       0   38180   38181
   38181       0   38183   38184   38184       0   38186   38187   38187       0
   38189   38190   38190       0   38192   38193   38193       0   38195   38196
   38196       0   38198   38199   38199       0   38201   38202   38202       0
   38204   38205   38205       0   38207   38208   38208       0   38210   38211
   38211       0   38213   38214   38214       0   38216   38217   38217       0
   38219   38220   38220       0   38222   38223   38223       0   38225   38226
   38226       0   38228   38229   38229       0   38231   38232   38232       0
   38234   38235   38235       0   38237   38238   38238       0   38240   38241
   38241       0   38243   38244   38244       0   38246   38247   38247       0
   38249   38250   38250       0   38252   38253   38253       0   38255   38256
   38256       0   38258   38259   38259       0   38261   38262   38262       0
   38264   38265   38265       0   38267   38268   38268       0   38270   38271
   38271       0   38273   38274   38274       0   38276   38277   38277       0
   38279   38280   38280       0   38282   38283   38283       0   38285   38286
   38286       0   38288   38289   38289       0   38291   38292   38292       0
   38294   38295   38295       0   38297   38298   38298       0   38300   38301
   38301       0   38303   38304   38304       0   38306   38307   38307       0
   38309   38310   38310       0   38312   38313   38313       0   38315   38316
   38316       0   38318   38319   38319       0   38321   38322   38322       0
   38324   38325   38325       0   38327   38328   38328       0   38330   38331
   38331       0   38333   38334   38334       0   38336   38337   38337       0
   38339   38340   38340       0   38342   38343   38343       0   38345   38346
   38346       0   38348   38349   38349       0   38351   38352   38352       0
   38354   38355   38355       0   38357   38358   38358       0   38360   38361
   38361       0   38363   38364   38364       0   38366   38367   38367       0
   38369   38370   38370       0   38372   38373   38373       0   38375   38376
   38376       0   38378   38379   38379       0   38381   38382   38382       0
   38384   38385   38385       0   38387   38388   38388       0   38390   38391
   38391       0   38393   38394   38394       0   38396   38397   38397       0
   38399   38400   38400       0   38402   38403   38403       0   38405   38406
   38406       0   38408   38409   38409       0   38411   38412   38412       0
   38414   38415   38415       0   38417   38418   38418       0   38420   38421
   38421       0   38423   38424   38424       0   38426   38427   38427       0
   38429   38430   38430       0   38432   38433   38433       0   38435   38436
   38436       0   38438   38439   38439       0   38441   38442   38442       0
   38444   38445   38445       0   38447   38448   38448       0   38450   38451
   38451       0   38453   38454   38454       0   38456   38457   38457       0
   38459   38460   38460       0   38462   38463   38463       0   38465   38466
   38466       0   38468   38469   38469       0   38471   38472   38472       0
   38474   38475   38475       0   38477   38478   38478       0   38480   38481
   38481       0   38483   38484   38484       0   38486   38487   38487       0
   38489   38490   38490       0   38492   38493   38493       0   38495   38496
   38496       0   38498   38499   38499       0   38501   38502   38502       0
   38504   38505   38505       0   38507   38508   38508       0   38510   38511
   38511       0   38513   38514   38514       0   38516   38517   38517       0
   38519   38520   38520       0   38522   38523   38523       0   38525   38526
   38526       0   38528   38529   38529       0   38531   38532   38532       0
   38534   38535   38535       0   38537   38538   38538       0   38540   38541
   38541       0   38543   38544   38544       0   38546   38547   38547       0
   38549   38550   38550       0   38552   38553   38553       0   38555   38556
   38556       0   38558   38559   38559       0   38561   38562   38562       0
   38564   38565   38565       0   38567   38568   38568       0   38570   38571
   38571       0   38573   38574   38574       0   38576   38577   38577       0
   38579   38580   38580       0   38582   38583   38583       0   38585   38586
   38586       0   38588   38589   38589       0   38591   38592   38592       0
   38594   38595   38595       0   38597   38598   38598       0   38600   38601
   38601       0   38603   38604   38604       0   38606   38607   38607       0
   38609   38610   38610       0   38612   38613   38613       0   38615   38616
   38616       0   38618   38619   38619       0   38621   38622   38622       0
   38624   38625   38625       0   38627   38628   38628       0   38630   38631
   38631       0   38633   38634   38634       0   38636   38637   38637       0
   38639   38640   38640       0   38642   38643   38643       0   38645   38646
   38646       0   38648   38649   38649       0   38651   38652   38652       0
   38654   38655   38655       0   38657   38658   38658       0   38660   38661
   38661       0   38663   38664   38664       0   38666   38667   38667       0
   38669   38670   38670       0   38672   38673   38673       0   38675   38676
   38676       0   38678   38679   38679       0   38681   38682   38682       0
   38684   38685   38685       0   38687   38688   38688       0   38690   38691
   38691       0   38693   38694   38694       0   38696   38697   38697       0
   38699   38700   38700       0   38702   38703   38703       0   38705   38706
   38706       0   38708   38709   38709       0   38711   38712   38712       0
   38714   38715   38715       0   38717   38718   38718       0   38720   38721
   38721       0   38723   38724   38724       0   38726   38727   38727       0
   38729   38730   38730       0   38732   38733   38733       0   38735   38736
   38736       0   38738   38739   38739       0   38741   38742   38742       0
   38744   38745   38745       0   38747   38748   38748       0   38750   38751
   38751       0   38753   38754   38754       0   38756   38757   38757       0
   38759   38760   38760       0   38762   38763   38763       0   38765   38766
   38766       0   38768   38769   38769       0   38771   38772   38772       0
   38774   38775   38775       0   38777   38778   38778       0   38780   38781
   38781       0   38783   38784   38784       0   38786   38787   38787       0
   38789   38790   38790       0   38792   38793   38793       0   38795   38796
   38796       0   38798   38799   38799       0   38801   38802   38802       0
   38804   38805   38805       0   38807   38808   38808       0   38810   38811
   38811       0   38813   38814   38814       0   38816   38817   38817       0
   38819   38820   38820       0   38822   38823   38823       0   38825   38826
   38826       0   38828   38829   38829       0   38831   38832   38832       0
   38834   38835   38835       0   38837   38838   38838       0   38840   38841
   38841       0   38843   38844   38844       0   38846   38847   38847       0
   38849   38850   38850       0   38852   38853   38853       0   38855   38856
   38856       0   38858   38859   38859       0   38861   38862   38862       0
   38864   38865   38865       0   38867   38868   38868       0   38870   38871
   38871       0   38873   38874   38874       0   38876   38877   38877       0
   38879   38880   38880       0   38882   38883   38883       0   38885   38886
   38886       0   38888   38889   38889       0   38891   38892   38892       0
   38894   38895   38895       0   38897   38898   38898       0   38900   38901
   38901       0   38903   38904   38904       0   38906   38907   38907       0
   38909   38910   38910       0   38912   38913   38913       0   38915   38916
   38916       0   38918   38919   38919       0   38921   38922   38922       0
   38924   38925   38925       0   38927   38928   38928       0   38930   38931
   38931       0   38933   38934   38934       0   38936   38937   38937       0
   38939   38940   38940       0   38942   38943   38943       0   38945   38946
   38946       0   38948   38949   38949       0   38951   38952   38952       0
   38954   38955   38955       0   38957   38958   38958       0   38960   38961
   38961       0   38963   38964   38964       0   38966   38967   38967       0
   38969   38970   38970       0   38972   38973   38973       0   38975   38976
   38976       0   38978   38979   38979       0   38981   38982   38982       0
   38984   38985   38985       0   38987   38988   38988       0   38990   38991
   38991       0   38993   38994   38994       0   38996   38997   38997       0
   38999   39000   39000       0   39002   39003   39003       0   39005   39006
   39006       0   39008   39009   39009       0   39011   39012   39012       0
   39014   39015   39015       0   39017   39018   39018       0   39020   39021
   39021       0   39023   39024   39024       0   39026   39027   39027       0
   39029   39030   39030       0   39032   39033   39033       0   39035   39036
   39036       0   39038   39039   39039       0   39041   39042   39042       0
   39044   39045   39045       0   39047   39048   39048       0   39050   39051
   39051       0   39053   39054   39054       0   39056   39057   39057       0
   39059   39060   39060       0   39062   39063   39063       0   39065   39066
   39066       0   39068   39069   39069       0   39071   39072   39072       0
   39074   39075   39075       0   39077   39078   39078       0   39080   39081
   39081       0   39083   39084   39084       0   39086   39087   39087       0
   39089   39090   39090       0   39092   39093   39093       0   39095   39096
   39096       0   39098   39099   39099       0   39101   39102   39102       0
   39104   39105   39105       0   39107   39108   39108       0   39110   39111
   39111       0   39113   39114   39114       0   39116   39117   39117       0
   39119   39120   39120       0   39122   39123   39123       0   39125   39126
   39126       0   39128   39129   39129       0   39131   39132   39132       0
   39134   39135   39135       0   39137   39138   39138       0   39140   39141
   39141       0   39143   39144   39144       0   39146   39147   39147       0
   39149   39150   39150       0   39152   39153   39153       0   39155   39156
   39156       0   39158   39159   39159       0   39161   39162   39162       0
   39164   39165   39165       0   39167   39168   39168       0   39170   39171
   39171       0   39173   39174   39174       0   39176   39177   39177       0
   39179   39180   39180       0   39182   39183   39183       0   39185   39186
   39186       0   39188   39189   39189       0   39191   39192   39192       0
   39194   39195   39195       0   39197   39198   39198       0   39200   39201
   39201       0   39203   39204   39204       0   39206   39207   39207       0
   39209   39210   39210       0   39212   39213   39213       0   39215   39216
   39216       0   39218   39219   39219       0   39221   39222   39222       0
   39224   39225   39225       0   39227   39228   39228       0   39230   39231
   39231       0   39233   39234   39234       0   39236   39237   39237       0
   39239   39240   39240       0   39242   39243   39243       0   39245   39246
   39246       0   39248   39249   39249       0   39251   39252   39252       0
   39254   39255   39255       0   39257   39258   39258       0   39260   39261
   39261       0   39263   39264   39264       0   39266   39267   39267       0
   39269   39270   39270       0   39272   39273   39273       0   39275   39276
   39276       0   39278   39279   39279       0   39281   39282   39282       0
   39284   39285   39285       0   39287   39288   39288       0   39290   39291
   39291       0   39293   39294   39294       0   39296   39297   39297       0
   39299   39300   39300       0   39302   39303   39303       0   39305   39306
   39306       0   39308   39309   39309       0   39311   39312   39312       0
   39314   39315   39315       0   39317   39318   39318       0   39320   39321
   39321       0   39323   39324   39324       0   39326   39327   39327       0
   39329   39330   39330       0   39332   39333   39333       0   39335   39336
   39336       0   39338   39339   39339       0   39341   39342   39342       0
   39344   39345   39345       0   39347   39348   39348       0   39350   39351
   39351       0   39353   39354   39354       0   39356   39357   39357       0
   39359   39360   39360       0   39362   39363   39363       0   39365   39366
   39366       0   39368   39369   39369       0   39371   39372   39372       0
   39374   39375   39375       0   39377   39378   39378       0   39380   39381
   39381       0   39383   39384   39384       0   39386   39387   39387       0
   39389   39390   39390       0   39392   39393   39393       0   39395   39396
   39396       0   39398   39399   39399       0   39401   39402   39402       0
   39404   39405   39405       0   39407   39408   39408       0   39410   39411
   39411       0   39413   39414   39414       0   39416   39417   39417       0
   39419   39420   39420       0   39422   39423   39423       0   39425   39426
   39426       0   39428   39429   39429       0   39431   39432   39432       0
   39434   39435   39435       0   39437   39438   39438       0   39440   39441
   39441       0   39443   39444   39444       0   39446   39447   39447       0
   39449   39450   39450       0   39452   39453   39453       0   39455   39456
   39456       0   39458   39459   39459       0   39461   39462   39462       0
   39464   39465   39465       0   39467   39468   39468       0   39470   39471
   39471       0   39473   39474   39474       0   39476   39477   39477       0
   39479   39480   39480       0   39482   39483   39483       0   39485   39486
   39486       0   39488   39489   39489       0   39491   39492   39492       0
   39494   39495   39495       0   39497   39498   39498       0   39500   39501
   39501       0   39503   39504   39504       0   39506   39507   39507       0
   39509   39510   39510       0   39512   39513   39513       0   39515   39516
   39516       0   39518   39519   39519       0   39521   39522   39522       0
   39524   39525   39525       0   39527   39528   39528       0   39530   39531
   39531       0   39533   39534   39534       0   39536   39537   39537       0
   39539   39540   39540       0   39542   39543   39543       0   39545   39546
   39546       0   39548   39549   39549       0   39551   39552   39552       0
   39554   39555   39555       0   39557   39558   39558       0   39560   39561
   39561       0   39563   39564   39564       0   39566   39567   39567       0
   39569   39570   39570       0   39572   39573   39573       0   39575   39576
   39576       0   39578   39579   39579       0   39581   39582   39582       0
   39584   39585   39585       0   39587   39588   39588       0   39590   39591
   39591       0   39593   39594   39594       0   39596   39597   39597       0
   39599   39600   39600       0   39602   39603   39603       0   39605   39606
   39606       0   39608   39609   39609       0   39611   39612   39612       0
   39614   39615   39615       0   39617   39618   39618       0   39620   39621
   39621       0   39623   39624   39624       0   39626   39627   39627       0
   39629   39630   39630       0   39632   39633   39633       0   39635   39636
   39636       0   39638   39639   39639       0   39641   39642   39642       0
   39644   39645   39645       0   39647   39648   39648       0   39650   39651
   39651       0   39653   39654   39654       0   39656   39657   39657       0
   39659   39660   39660       0   39662   39663   39663       0   39665   39666
   39666       0   39668   39669   39669       0   39671   39672   39672       0
   39674   39675   39675       0   39677   39678   39678       0   39680   39681
   39681       0   39683   39684   39684       0   39686   39687   39687       0
   39689   39690   39690       0   39692   39693   39693       0   39695   39696
   39696       0   39698   39699   39699       0   39701   39702   39702       0
   39704   39705   39705       0   39707   39708   39708       0   39710   39711
   39711       0   39713   39714   39714       0   39716   39717   39717       0
   39719   39720   39720       0   39722   39723   39723       0   39725   39726
   39726       0   39728   39729   39729       0   39731   39732   39732       0
   39734   39735   39735       0   39737   39738   39738       0   39740   39741
   39741       0   39743   39744   39744       0   39746   39747   39747       0
   39749   39750   39750       0   39752   39753   39753       0   39755   39756
   39756       0   39758   39759   39759       0   39761   39762   39762       0
   39764   39765   39765       0   39767   39768   39768       0   39770   39771
   39771       0   39773   39774   39774       0   39776   39777   39777       0
   39779   39780   39780       0   39782   39783   39783       0   39785   39786
   39786       0   39788   39789   39789       0   39791   39792   39792       0
   39794   39795   39795       0   39797   39798   39798       0   39800   39801
   39801       0   39803   39804   39804       0   39806   39807   39807       0
   39809   39810   39810       0   39812   39813   39813       0   39815   39816
   39816       0   39818   39819   39819       0   39821   39822   39822       0
   39824   39825   39825       0   39827   39828   39828       0   39830   39831
   39831       0   39833   39834   39834       0   39836   39837   39837       0
   39839   39840   39840       0   39842   39843   39843       0   39845   39846
   39846       0   39848   39849   39849       0   39851   39852   39852       0
   39854   39855   39855       0   39857   39858   39858       0   39860   39861
   39861       0   39863   39864   39864       0   39866   39867   39867       0
   39869   39870   39870       0   39872   39873   39873       0   39875   39876
   39876       0   39878   39879   39879       0   39881   39882   39882       0
   39884   39885   39885       0   39887   39888   39888       0   39890   39891
   39891       0   39893   39894   39894       0   39896   39897   39897       0
   39899   39900   39900       0   39902   39903   39903       0   39905   39906
   39906       0   39908   39909   39909       0   39911   39912   39912       0
   39914   39915   39915       0   39917   39918   39918       0   39920   39921
   39921       0   39923   39924   39924       0   39926   39927   39927       0
   39929   39930   39930       0   39932   39933   39933       0   39935   39936
   39936       0   39938   39939   39939       0   39941   39942   39942       0
   39944   39945   39945       0   39947   39948   39948       0   39950   39951
   39951       0   39953   39954   39954       0   39956   39957   39957       0
   39959   39960   39960       0   39962   39963   39963       0   39965   39966
   39966       0   39968   39969   39969       0   39971   39972   39972       0
   39974   39975   39975       0   39977   39978   39978       0   39980   39981
   39981       0   39983   39984   39984       0   39986   39987   39987       0
   39989   39990   39990       0   39992   39993   39993       0   39995   39996
   39996       0   39998   39999   39999       0   40001   40002   40002       0
   40004   40005   40005       0   40007   40008   40008       0   40010   40011
   40011       0   40013   40014   40014       0   40016   40017   40017       0
   40019   40020   40020       0   40022   40023   40023       0   40025   40026
   40026       0   40028   40029   40029       0   40031   40032   40032       0
   40034   40035   40035       0   40037   40038   40038       0   40040   40041
   40041       0   40043   40044   40044       0   40046   40047   40047       0
   40049   40050   40050       0   40052   40053   40053       0   40055   40056
   40056       0   40058   40059   40059       0   40061   40062   40062       0
   40064   40065   40065       0   40067   40068   40068       0   40070   40071
   40071       0   40073   40074   40074       0   40076   40077   40077       0
   40079   40080   40080       0   40082   40083   40083       0   40085   40086
   40086       0   40088   40089   40089       0   40091   40092   40092       0
   40094   40095   40095       0   40097   40098   40098       0   40100   40101
   40101       0   40103   40104   40104       0   40106   40107   40107       0
   40109   40110   40110       0   40112   40113   40113       0   40115   40116
   40116       0   40118   40119   40119       0   40121   40122   40122       0
   40124   40125   40125       0   40127   40128   40128       0   40130   40131
   40131       0   40133   40134   40134       0   40136   40137   40137       0
   40139   40140   40140       0   40142   40143   40143       0   40145   40146
   40146       0   40148   40149   40149       0   40151   40152   40152       0
   40154   40155   40155       0   40157   40158   40158       0   40160   40161
   40161       0   40163   40164   40164       0   40166   40167   40167       0
   40169   40170   40170       0   40172   40173   40173       0   40175   40176
   40176       0   40178   40179   40179       0   40181   40182   40182       0
   40184   40185   40185       0   40187   40188   40188       0   40190   40191
   40191       0   40193   40194   40194       0   40196   40197   40197       0
   40199   40200   40200       0   40202   40203   40203       0   40205   40206
   40206       0   40208   40209   40209       0   40211   40212   40212       0
   40214   40215   40215       0   40217   40218   40218       0   40220   40221
   40221       0   40223   40224   40224       0   40226   40227   40227       0
   40229   40230   40230       0   40232   40233   40233       0   40235   40236
   40236       0   40238   40239   40239       0   40241   40242   40242       0
   40244   40245   40245       0   40247   40248   40248       0   40250   40251
   40251       0   40253   40254   40254       0   40256   40257   40257       0
   40259   40260   40260       0   40262   40263   40263       0   40265   40266
   40266       0   40268   40269   40269       0   40271   40272   40272       0
   40274   40275   40275       0   40277   40278   40278       0   40280   40281
   40281       0   40283   40284   40284       0   40286   40287   40287       0
   40289   40290   40290       0   40292   40293   40293       0   40295   40296
   40296       0   40298   40299   40299       0   40301   40302   40302       0
   40304   40305   40305       0   40307   40308   40308       0   40310   40311
   40311       0   40313   40314   40314       0   40316   40317   40317       0
   40319   40320   40320       0   40322   40323   40323       0   40325   40326
   40326       0   40328   40329   40329       0   40331   40332   40332       0
   40334   40335   40335       0   40337   40338   40338       0   40340   40341
   40341       0   40343   40344   40344       0   40346   40347   40347       0
   40349   40350   40350       0   40352   40353   40353       0   40355   40356
   40356       0   40358   40359   40359       0   40361   40362   40362       0
   40364   40365   40365       0   40367   40368   40368       0   40370   40371
   40371       0   40373   40374   40374       0   40376   40377   40377       0
   40379   40380   40380       0   40382   40383   40383       0   40385   40386
   40386       0   40388   40389   40389       0   40391   40392   40392       0
   40394   40395   40395       0   40397   40398   40398       0   40400   40401
   40401       0   40403   40404   40404       0   40406   40407   40407       0
   40409   40410   40410       0   40412   40413   40413       0   40415   40416
   40416       0   40418   40419   40419       0   40421   40422   40422       0
   40424   40425   40425       0   40427   40428   40428       0   40430   40431
   40431       0   40433   40434   40434       0   40436   40437   40437       0
   40439   40440   40440       0   40442   40443   40443       0   40445   40446
   40446       0   40448   40449   40449       0   40451   40452   40452       0
   40454   40455   40455       0   40457   40458   40458       0   40460   40461
   40461       0   40463   40464   40464       0   40466   40467   40467       0
   40469   40470   40470       0   40472   40473   40473       0   40475   40476
   40476       0   40478   40479   40479       0   40481   40482   40482       0
   40484   40485   40485       0   40487   40488   40488       0   40490   40491
   40491       0   40493   40494   40494       0   40496   40497   40497       0
   40499   40500   40500       0   40502   40503   40503       0   40505   40506
   40506       0   40508   40509   40509       0   40511   40512   40512       0
   40514   40515   40515       0   40517   40518   40518       0   40520   40521
   40521       0   40523   40524   40524       0   40526   40527   40527       0
   40529   40530   40530       0   40532   40533   40533       0   40535   40536
   40536       0   40538   40539   40539       0   40541   40542   40542       0
   40544   40545   40545       0   40547   40548   40548       0   40550   40551
   40551       0   40553   40554   40554       0   40556   40557   40557       0
   40559   40560   40560       0   40562   40563   40563       0   40565   40566
   40566       0   40568   40569   40569       0   40571   40572   40572       0
   40574   40575   40575       0   40577   40578   40578       0   40580   40581
   40581       0   40583   40584   40584       0   40586   40587   40587       0
   40589   40590   40590       0   40592   40593   40593       0   40595   40596
   40596       0   40598   40599   40599       0   40601   40602   40602       0
   40604   40605   40605       0   40607   40608   40608       0   40610   40611
   40611       0   40613   40614   40614       0   40616   40617   40617       0
   40619   40620   40620       0   40622   40623   40623       0   40625   40626
   40626       0   40628   40629   40629       0   40631   40632   40632       0
   40634   40635   40635       0   40637   40638   40638       0   40640   40641
   40641       0   40643   40644   40644       0   40646   40647   40647       0
   40649   40650   40650       0   40652   40653   40653       0   40655   40656
   40656       0   40658   40659   40659       0   40661   40662   40662       0
   40664   40665   40665       0   40667   40668   40668       0   40670   40671
   40671       0   40673   40674   40674       0   40676   40677   40677       0
   40679   40680   40680       0   40682   40683   40683       0   40685   40686
   40686       0   40688   40689   40689       0   40691   40692   40692       0
   40694   40695   40695       0   40697   40698   40698       0   40700   40701
   40701       0   40703   40704   40704       0   40706   40707   40707       0
   40709   40710   40710       0   40712   40713   40713       0   40715   40716
   40716       0   40718   40719   40719       0   40721   40722   40722       0
   40724   40725   40725       0   40727   40728   40728       0   40730   40731
   40731       0   40733   40734   40734       0   40736   40737   40737       0
   40739   40740   40740       0   40742   40743   40743       0   40745   40746
   40746       0   40748   40749   40749       0   40751   40752   40752       0
   40754   40755   40755       0   40757   40758   40758       0   40760   40761
   40761       0   40763   40764   40764       0   40766   40767   40767       0
   40769   40770   40770       0   40772   40773   40773       0   40775   40776
   40776       0   40778   40779   40779       0   40781   40782   40782       0
   40784   40785   40785       0   40787   40788   40788       0   40790   40791
   40791       0   40793   40794   40794       0   40796   40797   40797       0
   40799   40800   40800       0   40802   40803   40803       0   40805   40806
   40806       0   40808   40809   40809       0   40811   40812   40812       0
   40814   40815   40815       0   40817   40818   40818       0   40820   40821
   40821       0   40823   40824   40824       0   40826   40827   40827       0
   40829   40830   40830       0   40832   40833   40833       0   40835   40836
   40836       0   40838   40839   40839       0   40841   40842   40842       0
   40844   40845   40845       0   40847   40848   40848       0   40850   40851
   40851       0   40853   40854   40854       0   40856   40857   40857       0
   40859   40860   40860       0   40862   40863   40863       0   40865   40866
   40866       0   40868   40869   40869       0   40871   40872   40872       0
   40874   40875   40875       0   40877   40878   40878       0   40880   40881
   40881       0   40883   40884   40884       0   40886   40887   40887       0
   40889   40890   40890       0   40892   40893   40893       0   40895   40896
   40896       0   40898   40899   40899       0   40901   40902   40902       0
   40904   40905   40905       0   40907   40908   40908       0   40910   40911
   40911       0   40913   40914   40914       0   40916   40917   40917       0
   40919   40920   40920       0   40922   40923   40923       0   40925   40926
   40926       0   40928   40929   40929       0   40931   40932   40932       0
   40934   40935   40935       0   40937   40938   40938       0   40940   40941
   40941       0   40943   40944   40944       0   40946   40947   40947       0
   40949   40950   40950       0   40952   40953   40953       0   40955   40956
   40956       0   40958   40959   40959       0   40961   40962   40962       0
   40964   40965   40965       0   40967   40968   40968       0   40970   40971
   40971       0   40973   40974   40974       0   40976   40977   40977       0
   40979   40980   40980       0   40982   40983   40983       0   40985   40986
   40986       0   40988   40989   40989       0   40991   40992   40992       0
   40994   40995   40995       0   40997   40998   40998       0   41000   41001
   41001       0   41003   41004   41004       0   41006   41007   41007       0
   41009   41010   41010       0   41012   41013   41013       0   41015   41016
   41016       0   41018   41019   41019       0   41021   41022   41022       0
   41024   41025   41025       0   41027   41028   41028       0   41030   41031
   41031       0   41033   41034   41034       0   41036   41037   41037       0
   41039   41040   41040       0   41042   41043   41043       0   41045   41046
   41046       0   41048   41049   41049       0   41051   41052   41052       0
   41054   41055   41055       0   41057   41058   41058       0   41060   41061
   41061       0   41063   41064   41064       0   41066   41067   41067       0
   41069   41070   41070       0   41072   41073   41073       0   41075   41076
   41076       0   41078   41079   41079       0   41081   41082   41082       0
   41084   41085   41085       0   41087   41088   41088       0   41090   41091
   41091       0   41093   41094   41094       0   41096   41097   41097       0
   41099   41100   41100       0   41102   41103   41103       0   41105   41106
   41106       0   41108   41109   41109       0   41111   41112   41112       0
   41114   41115   41115       0   41117   41118   41118       0   41120   41121
   41121       0   41123   41124   41124       0   41126   41127   41127       0
   41129   41130   41130       0   41132   41133   41133       0   41135   41136
   41136       0   41138   41139   41139       0   41141   41142   41142       0
   41144   41145   41145       0   41147   41148   41148       0   41150   41151
   41151       0   41153   41154   41154       0   41156   41157   41157       0
   41159   41160   41160       0   41162   41163   41163       0   41165   41166
   41166       0   41168   41169   41169       0   41171   41172   41172       0
   41174   41175   41175       0   41177   41178   41178       0   41180   41181
   41181       0   41183   41184   41184       0   41186   41187   41187       0
   41189   41190   41190       0   41192   41193   41193       0   41195   41196
   41196       0   41198   41199   41199       0   41201   41202   41202       0
   41204   41205   41205       0   41207   41208   41208       0   41210   41211
   41211       0   41213   41214   41214       0   41216   41217   41217       0
   41219   41220   41220       0   41222   41223   41223       0   41225   41226
   41226       0   41228   41229   41229       0   41231   41232   41232       0
   41234   41235   41235       0   41237   41238   41238       0   41240   41241
   41241       0   41243   41244   41244       0   41246   41247   41247       0
   41249   41250   41250       0   41252   41253   41253       0   41255   41256
   41256       0   41258   41259   41259       0   41261   41262   41262       0
   41264   41265   41265       0   41267   41268   41268       0   41270   41271
   41271       0   41273   41274   41274       0   41276   41277   41277       0
   41279   41280   41280       0   41282   41283   41283       0   41285   41286
   41286       0   41288   41289   41289       0   41291   41292   41292       0
   41294   41295   41295       0   41297   41298   41298       0   41300   41301
   41301       0   41303   41304   41304       0   41306   41307   41307       0
   41309   41310   41310       0   41312   41313   41313       0   41315   41316
   41316       0   41318   41319   41319       0   41321   41322   41322       0
   41324   41325   41325       0   41327   41328   41328       0   41330   41331
   41331       0   41333   41334   41334       0   41336   41337   41337       0
   41339   41340   41340       0   41342   41343   41343       0   41345   41346
   41346       0   41348   41349   41349       0   41351   41352   41352       0
   41354   41355   41355       0   41357   41358   41358       0   41360   41361
   41361       0   41363   41364   41364       0   41366   41367   41367       0
   41369   41370   41370       0   41372   41373   41373       0   41375   41376
   41376       0   41378   41379   41379       0   41381   41382   41382       0
   41384   41385   41385       0   41387   41388   41388       0   41390   41391
   41391       0   41393   41394   41394       0   41396   41397   41397       0
   41399   41400   41400       0   41402   41403   41403       0   41405   41406
   41406       0   41408   41409   41409       0   41411   41412   41412       0
   41414   41415   41415       0   41417   41418   41418       0   41420   41421
   41421       0   41423   41424   41424       0   41426   41427   41427       0
   41429   41430   41430       0   41432   41433   41433       0   41435   41436
   41436       0   41438   41439   41439       0   41441   41442   41442       0
   41444   41445   41445       0   41447   41448   41448       0   41450   41451
   41451       0   41453   41454   41454       0   41456   41457   41457       0
   41459   41460   41460       0   41462   41463   41463       0   41465   41466
   41466       0   41468   41469   41469       0   41471   41472   41472       0
   41474   41475   41475       0   41477   41478   41478       0   41480   41481
   41481       0   41483   41484   41484       0   41486   41487   41487       0
   41489   41490   41490       0   41492   41493   41493       0   41495   41496
   41496       0   41498   41499   41499       0   41501   41502   41502       0
   41504   41505   41505       0   41507   41508   41508       0   41510   41511
   41511       0   41513   41514   41514       0   41516   41517   41517       0
   41519   41520   41520       0   41522   41523   41523       0   41525   41526
   41526       0   41528   41529   41529       0   41531   41532   41532       0
   41534   41535   41535       0   41537   41538   41538       0   41540   41541
   41541       0   41543   41544   41544       0   41546   41547   41547       0
   41549   41550   41550       0   41552   41553   41553       0   41555   41556
   41556       0   41558   41559   41559       0   41561   41562   41562       0
   41564   41565   41565       0   41567   41568   41568       0   41570   41571
   41571       0   41573   41574   41574       0   41576   41577   41577       0
   41579   41580   41580       0   41582   41583   41583       0   41585   41586
   41586       0   41588   41589   41589       0   41591   41592   41592       0
   41594   41595   41595       0   41597   41598   41598       0   41600   41601
   41601       0   41603   41604   41604       0   41606   41607   41607       0
   41609   41610   41610       0   41612   41613   41613       0   41615   41616
   41616       0   41618   41619   41619       0   41621   41622   41622       0
   41624   41625   41625       0   41627   41628   41628       0   41630   41631
   41631       0   41633   41634   41634       0   41636   41637   41637       0
   41639   41640   41640       0   41642   41643   41643       0   41645   41646
   41646       0   41648   41649   41649       0   41651   41652   41652       0
   41654   41655   41655       0   41657   41658   41658       0   41660   41661
   41661       0   41663   41664   41664       0   41666   41667   41667       0
   41669   41670   41670       0   41672   41673   41673       0   41675   41676
   41676       0   41678   41679   41679       0   41681   41682   41682       0
   41684   41685   41685       0   41687   41688   41688       0   41690   41691
   41691       0   41693   41694   41694       0   41696   41697   41697       0
   41699   41700   41700       0   41702   41703   41703       0   41705   41706
   41706       0   41708   41709   41709       0   41711   41712   41712       0
   41714   41715   41715       0   41717   41718   41718       0   41720   41721
   41721       0   41723   41724   41724       0   41726   41727   41727       0
   41729   41730   41730       0   41732   41733   41733       0   41735   41736
   41736       0   41738   41739   41739       0   41741   41742   41742       0
   41744   41745   41745       0   41747   41748   41748       0   41750   41751
   41751       0   41753   41754   41754       0   41756   41757   41757       0
   41759   41760   41760       0   41762   41763   41763       0   41765   41766
   41766       0   41768   41769   41769       0   41771   41772   41772       0
   41774   41775   41775       0   41777   41778   41778       0   41780   41781
   41781       0   41783   41784   41784       0   41786   41787   41787       0
   41789   41790   41790       0   41792   41793   41793       0   41795   41796
   41796       0   41798   41799   41799       0   41801   41802   41802       0
   41804   41805   41805       0   41807   41808   41808       0   41810   41811
   41811       0   41813   41814   41814       0   41816   41817   41817       0
   41819   41820   41820       0   41822   41823   41823       0   41825   41826
   41826       0   41828   41829   41829       0   41831   41832   41832       0
   41834   41835   41835       0   41837   41838   41838       0   41840   41841
   41841       0   41843   41844   41844       0   41846   41847   41847       0
   41849   41850   41850       0   41852   41853   41853       0   41855   41856
   41856       0   41858   41859   41859       0   41861   41862   41862       0
   41864   41865   41865       0   41867   41868   41868       0   41870   41871
   41871       0   41873   41874   41874       0   41876   41877   41877       0
   41879   41880   41880       0   41882   41883   41883       0   41885   41886
   41886       0   41888   41889   41889       0   41891   41892   41892       0
   41894   41895   41895       0   41897   41898   41898       0   41900   41901
   41901       0   41903   41904   41904       0   41906   41907   41907       0
   41909   41910   41910       0   41912   41913   41913       0   41915   41916
   41916       0   41918   41919   41919       0   41921   41922   41922       0
   41924   41925   41925       0   41927   41928   41928       0   41930   41931
   41931       0   41933   41934   41934       0   41936   41937   41937       0
   41939   41940   41940       0   41942   41943   41943       0   41945   41946
   41946       0   41948   41949   41949       0   41951   41952   41952       0
   41954   41955   41955       0   41957   41958   41958       0   41960   41961
   41961       0   41963   41964   41964       0   41966   41967   41967       0
   41969   41970   41970       0   41972   41973   41973       0   41975   41976
   41976       0   41978   41979   41979       0   41981   41982   41982       0
   41984   41985   41985       0   41987   41988   41988       0   41990   41991
   41991       0   41993   41994   41994       0   41996   41997   41997       0
   41999   42000   42000       0   42002   42003   42003       0   42005   42006
   42006       0   42008   42009   42009       0   42011   42012   42012       0
   42014   42015   42015       0   42017   42018   42018       0   42020   42021
   42021       0   42023   42024   42024       0   42026   42027   42027       0
   42029   42030   42030       0   42032   42033   42033       0   42035   42036
   42036       0   42038   42039   42039       0   42041   42042   42042       0
   42044   42045   42045       0   42047   42048   42048       0   42050   42051
   42051       0   42053   42054   42054       0   42056   42057   42057       0
   42059   42060   42060       0   42062   42063   42063       0   42065   42066
   42066       0   42068   42069   42069       0   42071   42072   42072       0
   42074   42075   42075       0   42077   42078   42078       0   42080   42081
   42081       0   42083   42084   42084       0   42086   42087   42087       0
   42089   42090   42090       0   42092   42093   42093       0   42095   42096
   42096       0   42098   42099   42099       0   42101   42102   42102       0
   42104   42105   42105       0   42107   42108   42108       0   42110   42111
   42111       0   42113   42114   42114       0   42116   42117   42117       0
   42119   42120   42120       0   42122   42123   42123       0   42125   42126
   42126       0   42128   42129   42129       0   42131   42132   42132       0
   42134   42135   42135       0   42137   42138   42138       0   42140   42141
   42141       0   42143   42144   42144       0   42146   42147   42147       0
   42149   42150   42150       0   42152   42153   42153       0   42155   42156
   42156       0   42158   42159   42159       0   42161   42162   42162       0
   42164   42165   42165       0   42167   42168   42168       0   42170   42171
   42171       0   42173   42174   42174       0   42176   42177   42177       0
   42179   42180   42180       0   42182   42183   42183       0   42185   42186
   42186       0   42188   42189   42189       0   42191   42192   42192       0
   42194   42195   42195       0   42197   42198   42198       0   42200   42201
   42201       0   42203   42204   42204       0   42206   42207   42207       0
   42209   42210   42210       0   42212   42213   42213       0   42215   42216
   42216       0   42218   42219   42219       0   42221   42222   42222       0
   42224   42225   42225       0   42227   42228   42228       0   42230   42231
   42231       0   42233   42234   42234       0   42236   42237   42237       0
   42239   42240   42240       0   42242   42243   42243       0   42245   42246
   42246       0   42248   42249   42249       0   42251   42252   42252       0
   42254   42255   42255       0   42257   42258   42258       0   42260   42261
   42261       0   42263   42264   42264       0   42266   42267   42267       0
   42269   42270   42270       0   42272   42273   42273       0   42275   42276
   42276       0   42278   42279   42279       0   42281   42282   42282       0
   42284   42285   42285       0   42287   42288   42288       0   42290   42291
   42291       0   42293   42294   42294       0   42296   42297   42297       0
   42299   42300   42300       0   42302   42303   42303       0   42305   42306
   42306       0   42308   42309   42309       0   42311   42312   42312       0
   42314   42315   42315       0   42317   42318   42318       0   42320   42321
   42321       0   42323   42324   42324       0   42326   42327   42327       0
   42329   42330   42330       0   42332   42333   42333       0   42335   42336
   42336       0   42338   42339   42339       0   42341   42342   42342       0
   42344   42345   42345       0   42347   42348   42348       0   42350   42351
   42351       0   42353   42354   42354       0   42356   42357   42357       0
   42359   42360   42360       0   42362   42363   42363       0   42365   42366
   42366       0   42368   42369   42369       0   42371   42372   42372       0
   42374   42375   42375       0   42377   42378   42378       0   42380   42381
   42381       0   42383   42384   42384       0   42386   42387   42387       0
   42389   42390   42390       0   42392   42393   42393       0   42395   42396
   42396       0   42398   42399   42399       0   42401   42402   42402       0
   42404   42405   42405       0   42407   42408   42408       0   42410   42411
   42411       0   42413   42414   42414       0   42416   42417   42417       0
   42419   42420   42420       0   42422   42423   42423       0   42425   42426
   42426       0   42428   42429   42429       0   42431   42432   42432       0
   42434   42435   42435       0   42437   42438   42438       0   42440   42441
   42441       0   42443   42444   42444       0   42446   42447   42447       0
   42449   42450   42450       0   42452   42453   42453       0   42455   42456
   42456       0   42458   42459   42459       0   42461   42462   42462       0
   42464   42465   42465       0   42467   42468   42468       0   42470   42471
   42471       0   42473   42474   42474       0   42476   42477   42477       0
   42479   42480   42480       0   42482   42483   42483       0   42485   42486
   42486       0   42488   42489   42489       0   42491   42492   42492       0
   42494   42495   42495       0   42497   42498   42498       0   42500   42501
   42501       0   42503   42504   42504       0   42506   42507   42507       0
   42509   42510   42510       0   42512   42513   42513       0   42515   42516
   42516       0   42518   42519   42519       0   42521   42522   42522       0
   42524   42525   42525       0   42527   42528   42528       0   42530   42531
   42531       0   42533   42534   42534       0   42536   42537   42537       0
   42539   42540   42540       0   42542   42543   42543       0   42545   42546
   42546       0   42548   42549   42549       0   42551   42552   42552       0
   42554   42555   42555       0   42557   42558   42558       0   42560   42561
   42561       0   42563   42564   42564       0   42566   42567   42567       0
   42569   42570   42570       0   42572   42573   42573       0   42575   42576
   42576       0   42578   42579   42579       0   42581   42582   42582       0
   42584   42585   42585       0   42587   42588   42588       0   42590   42591
   42591       0   42593   42594   42594       0   42596   42597   42597       0
   42599   42600   42600       0   42602   42603   42603       0   42605   42606
   42606       0   42608   42609   42609       0   42611   42612   42612       0
   42614   42615   42615       0   42617   42618   42618       0   42620   42621
   42621       0   42623   42624   42624       0   42626   42627   42627       0
   42629   42630   42630       0   42632   42633   42633       0   42635   42636
   42636       0   42638   42639   42639       0   42641   42642   42642       0
   42644   42645   42645       0   42647   42648   42648       0   42650   42651
   42651       0   42653   42654   42654       0   42656   42657   42657       0
   42659   42660   42660       0   42662   42663   42663       0   42665   42666
   42666       0   42668   42669   42669       0   42671   42672   42672       0
   42674   42675   42675       0   42677   42678   42678       0   42680   42681
   42681       0   42683   42684   42684       0   42686   42687   42687       0
   42689   42690   42690       0   42692   42693   42693       0   42695   42696
   42696       0   42698   42699   42699       0   42701   42702   42702       0
   42704   42705   42705       0   42707   42708   42708       0   42710   42711
   42711       0   42713   42714   42714       0   42716   42717   42717       0
   42719   42720   42720       0   42722   42723   42723       0   42725   42726
   42726       0   42728   42729   42729       0   42731   42732   42732       0
   42734   42735   42735       0   42737   42738   42738       0   42740   42741
   42741       0   42743   42744   42744       0   42746   42747   42747       0
   42749   42750   42750       0   42752   42753   42753       0   42755   42756
   42756       0   42758   42759   42759       0   42761   42762   42762       0
   42764   42765   42765       0   42767   42768   42768       0   42770   42771
   42771       0   42773   42774   42774       0   42776   42777   42777       0
   42779   42780   42780       0   42782   42783   42783       0   42785   42786
   42786       0   42788   42789   42789       0   42791   42792   42792       0
   42794   42795   42795       0   42797   42798   42798       0   42800   42801
   42801       0   42803   42804   42804       0   42806   42807   42807       0
   42809   42810   42810       0   42812   42813   42813       0   42815   42816
   42816       0   42818   42819   42819       0   42821   42822   42822       0
   42824   42825   42825       0   42827   42828   42828       0   42830   42831
   42831       0   42833   42834   42834       0   42836   42837   42837       0
   42839   42840   42840       0   42842   42843   42843       0   42845   42846
   42846       0   42848   42849   42849       0   42851   42852   42852       0
   42854   42855   42855       0   42857   42858   42858       0   42860   42861
   42861       0   42863   42864   42864       0   42866   42867   42867       0
   42869   42870   42870       0   42872   42873   42873       0   42875   42876
   42876       0   42878   42879   42879       0   42881   42882   42882       0
   42884   42885   42885       0   42887   42888   42888       0   42890   42891
   42891       0   42893   42894   42894       0   42896   42897   42897       0
   42899   42900   42900       0   42902   42903   42903       0   42905   42906
   42906       0   42908   42909   42909       0   42911   42912   42912       0
   42914   42915   42915       0   42917   42918   42918       0   42920   42921
   42921       0   42923   42924   42924       0   42926   42927   42927       0
   42929   42930   42930       0   42932   42933   42933       0   42935   42936
   42936       0   42938   42939   42939       0   42941   42942   42942       0
   42944   42945   42945       0   42947   42948   42948       0   42950   42951
   42951       0   42953   42954   42954       0   42956   42957   42957       0
   42959   42960   42960       0   42962   42963   42963       0   42965   42966
   42966       0   42968   42969   42969       0   42971   42972   42972       0
   42974   42975   42975       0   42977   42978   42978       0   42980   42981
   42981       0   42983   42984   42984       0   42986   42987   42987       0
   42989   42990   42990       0   42992   42993   42993       0   42995   42996
   42996       0   42998   42999   42999       0   43001   43002   43002       0
   43004   43005   43005       0   43007   43008   43008       0   43010   43011
   43011       0   43013   43014   43014       0   43016   43017   43017       0
   43019   43020   43020       0   43022   43023   43023       0   43025   43026
   43026       0   43028   43029   43029       0   43031   43032   43032       0
   43034   43035   43035       0   43037   43038   43038       0   43040   43041
   43041       0   43043   43044   43044       0   43046   43047   43047       0
   43049   43050   43050       0   43052   43053   43053       0   43055   43056
   43056       0   43058   43059   43059       0   43061   43062   43062       0
   43064   43065   43065       0   43067   43068   43068       0   43070   43071
   43071       0   43073   43074   43074       0   43076   43077   43077       0
   43079   43080   43080       0   43082   43083   43083       0   43085   43086
   43086       0   43088   43089   43089       0   43091   43092   43092       0
   43094   43095   43095       0   43097   43098   43098       0   43100   43101
   43101       0   43103   43104   43104       0   43106   43107   43107       0
   43109   43110   43110       0   43112   43113   43113       0   43115   43116
   43116       0   43118   43119   43119       0   43121   43122   43122       0
   43124   43125   43125       0   43127   43128   43128       0   43130   43131
   43131       0   43133   43134   43134       0   43136   43137   43137       0
   43139   43140   43140       0   43142   43143   43143       0   43145   43146
   43146       0   43148   43149   43149       0   43151   43152   43152       0
   43154   43155   43155       0   43157   43158   43158       0   43160   43161
   43161       0   43163   43164   43164       0   43166   43167   43167       0
   43169   43170   43170       0   43172   43173   43173       0   43175   43176
   43176       0   43178   43179   43179       0   43181   43182   43182       0
   43184   43185   43185       0   43187   43188   43188       0   43190   43191
   43191       0   43193   43194   43194       0   43196   43197   43197       0
   43199   43200   43200       0   43202   43203   43203       0   43205   43206
   43206       0   43208   43209   43209       0   43211   43212   43212       0
   43214   43215   43215       0   43217   43218   43218       0   43220   43221
   43221       0   43223   43224   43224       0   43226   43227   43227       0
   43229   43230   43230       0   43232   43233   43233       0   43235   43236
   43236       0   43238   43239   43239       0   43241   43242   43242       0
   43244   43245   43245       0   43247   43248   43248       0   43250   43251
   43251       0   43253   43254   43254       0   43256   43257   43257       0
   43259   43260   43260       0   43262   43263   43263       0   43265   43266
   43266       0   43268   43269   43269       0   43271   43272   43272       0
   43274   43275   43275       0   43277   43278   43278       0   43280   43281
   43281       0   43283   43284   43284       0   43286   43287   43287       0
   43289   43290   43290       0   43292   43293   43293       0   43295   43296
   43296       0   43298   43299   43299       0   43301   43302   43302       0
   43304   43305   43305       0   43307   43308   43308       0   43310   43311
   43311       0   43313   43314   43314       0   43316   43317   43317       0
   43319   43320   43320       0   43322   43323   43323       0   43325   43326
   43326       0   43328   43329   43329       0   43331   43332   43332       0
   43334   43335   43335       0   43337   43338   43338       0   43340   43341
   43341       0   43343   43344   43344       0   43346   43347   43347       0
   43349   43350   43350       0   43352   43353   43353       0   43355   43356
   43356       0   43358   43359   43359       0   43361   43362   43362       0
   43364   43365   43365       0   43367   43368   43368       0   43370   43371
   43371       0   43373   43374   43374       0   43376   43377   43377       0
   43379   43380   43380       0   43382   43383   43383       0   43385   43386
   43386       0   43388   43389   43389       0   43391   43392   43392       0
   43394   43395   43395       0   43397   43398   43398       0   43400   43401
   43401       0   43403   43404   43404       0   43406   43407   43407       0
   43409   43410   43410       0   43412   43413   43413       0   43415   43416
   43416       0   43418   43419   43419       0   43421   43422   43422       0
   43424   43425   43425       0   43427   43428   43428       0   43430   43431
   43431       0   43433   43434   43434       0   43436   43437   43437       0
   43439   43440   43440       0   43442   43443   43443       0   43445   43446
   43446       0   43448   43449   43449       0   43451   43452   43452       0
   43454   43455   43455       0   43457   43458   43458       0   43460   43461
   43461       0   43463   43464   43464       0   43466   43467   43467       0
   43469   43470   43470       0   43472   43473   43473       0   43475   43476
   43476       0   43478   43479   43479       0   43481   43482   43482       0
   43484   43485   43485       0   43487   43488   43488       0   43490   43491
   43491       0   43493   43494   43494       0   43496   43497   43497       0
   43499   43500   43500       0   43502   43503   43503       0   43505   43506
   43506       0   43508   43509   43509       0   43511   43512   43512       0
   43514   43515   43515       0   43517   43518   43518       0   43520   43521
   43521       0   43523   43524   43524       0   43526   43527   43527       0
   43529   43530   43530       0   43532   43533   43533       0   43535   43536
   43536       0   43538   43539   43539       0   43541   43542   43542       0
   43544   43545   43545       0   43547   43548   43548       0   43550   43551
   43551       0   43553   43554   43554       0   43556   43557   43557       0
   43559   43560   43560       0   43562   43563   43563       0   43565   43566
   43566       0   43568   43569   43569       0   43571   43572   43572       0
   43574   43575   43575       0   43577   43578   43578       0   43580   43581
   43581       0   43583   43584   43584       0   43586   43587   43587       0
   43589   43590   43590       0   43592   43593   43593       0   43595   43596
   43596       0   43598   43599   43599       0   43601   43602   43602       0
   43604   43605   43605       0   43607   43608   43608       0   43610   43611
   43611       0   43613   43614   43614       0   43616   43617   43617       0
   43619   43620   43620       0   43622   43623   43623       0   43625   43626
   43626       0   43628   43629   43629       0   43631   43632   43632       0
   43634   43635   43635       0   43637   43638   43638       0   43640   43641
   43641       0   43643   43644   43644       0   43646   43647   43647       0
   43649   43650   43650       0   43652   43653   43653       0   43655   43656
   43656       0   43658   43659   43659       0   43661   43662   43662       0
   43664   43665   43665       0   43667   43668   43668       0   43670   43671
   43671       0   43673   43674   43674       0   43676   43677   43677       0
   43679   43680   43680       0   43682   43683   43683       0   43685   43686
   43686       0   43688   43689   43689       0   43691   43692   43692       0
   43694   43695   43695       0   43697   43698   43698       0   43700   43701
   43701       0   43703   43704   43704       0   43706   43707   43707       0
   43709   43710   43710       0   43712   43713   43713       0   43715   43716
   43716       0   43718   43719   43719       0   43721   43722   43722       0
   43724   43725   43725       0   43727   43728   43728       0   43730   43731
   43731       0   43733   43734   43734       0   43736   43737   43737       0
   43739   43740   43740       0   43742   43743   43743       0   43745   43746
   43746       0   43748   43749   43749       0   43751   43752   43752       0
   43754   43755   43755       0   43757   43758   43758       0   43760   43761
   43761       0   43763   43764   43764       0   43766   43767   43767       0
   43769   43770   43770       0   43772   43773   43773       0   43775   43776
   43776       0   43778   43779   43779       0   43781   43782   43782       0
   43784   43785   43785       0   43787   43788   43788       0   43790   43791
   43791       0   43793   43794   43794       0   43796   43797   43797       0
   43799   43800   43800       0   43802   43803   43803       0   43805   43806
   43806       0   43808   43809   43809       0   43811   43812   43812       0
   43814   43815   43815       0   43817   43818   43818       0   43820   43821
   43821       0   43823   43824   43824       0   43826   43827   43827       0
   43829   43830   43830       0   43832   43833   43833       0   43835   43836
   43836       0   43838   43839   43839       0   43841   43842   43842       0
   43844   43845   43845       0   43847   43848   43848       0   43850   43851
   43851       0   43853   43854   43854       0   43856   43857   43857       0
   43859   43860   43860       0   43862   43863   43863       0   43865   43866
   43866       0   43868   43869   43869       0   43871   43872   43872       0
   43874   43875   43875       0   43877   43878   43878       0   43880   43881
   43881       0   43883   43884   43884       0   43886   43887   43887       0
   43889   43890   43890       0   43892   43893   43893       0   43895   43896
   43896       0   43898   43899   43899       0   43901   43902   43902       0
   43904   43905   43905       0   43907   43908   43908       0   43910   43911
   43911       0   43913   43914   43914       0   43916   43917   43917       0
   43919   43920   43920       0   43922   43923   43923       0   43925   43926
   43926       0   43928   43929   43929       0   43931   43932   43932       0
   43934   43935   43935       0   43937   43938   43938       0   43940   43941
   43941       0   43943   43944   43944       0   43946   43947   43947       0
   43949   43950   43950       0   43952   43953   43953       0   43955   43956
   43956       0   43958   43959   43959       0   43961   43962   43962       0
   43964   43965   43965       0   43967   43968   43968       0   43970   43971
   43971       0   43973   43974   43974       0   43976   43977   43977       0
   43979   43980   43980       0   43982   43983   43983       0   43985   43986
   43986       0   43988   43989   43989       0   43991   43992   43992       0
   43994   43995   43995       0   43997   43998   43998       0   44000   44001
   44001       0   44003   44004   44004       0   44006   44007   44007       0
   44009   44010   44010       0   44012   44013   44013       0   44015   44016
   44016       0   44018   44019   44019       0   44021   44022   44022       0
   44024   44025   44025       0   44027   44028   44028       0   44030   44031
   44031       0   44033   44034   44034       0   44036   44037   44037       0
   44039   44040   44040       0   44042   44043   44043       0   44045   44046
   44046       0   44048   44049   44049       0   44051   44052   44052       0
   44054   44055   44055       0   44057   44058   44058       0   44060   44061
   44061       0   44063   44064   44064       0   44066   44067   44067       0
   44069   44070   44070       0   44072   44073   44073       0   44075   44076
   44076       0   44078   44079   44079       0   44081   44082   44082       0
   44084   44085   44085       0   44087   44088   44088       0   44090   44091
   44091       0   44093   44094   44094       0   44096   44097   44097       0
   44099   44100   44100       0   44102   44103   44103       0   44105   44106
   44106       0   44108   44109   44109       0   44111   44112   44112       0
   44114   44115   44115       0   44117   44118   44118       0   44120   44121
   44121       0   44123   44124   44124       0   44126   44127   44127       0
   44129   44130   44130       0   44132   44133   44133       0   44135   44136
   44136       0   44138   44139   44139       0   44141   44142   44142       0
   44144   44145   44145       0   44147   44148   44148       0   44150   44151
   44151       0   44153   44154   44154       0   44156   44157   44157       0
   44159   44160   44160       0   44162   44163   44163       0   44165   44166
   44166       0   44168   44169   44169       0   44171   44172   44172       0
   44174   44175   44175       0   44177   44178   44178       0   44180   44181
   44181       0   44183   44184   44184       0   44186   44187   44187       0
   44189   44190   44190       0   44192   44193   44193       0   44195   44196
   44196       0   44198   44199   44199       0   44201   44202   44202       0
   44204   44205   44205       0   44207   44208   44208       0   44210   44211
   44211       0   44213   44214   44214       0   44216   44217   44217       0
   44219   44220   44220       0   44222   44223   44223       0   44225   44226
   44226       0   44228   44229   44229       0   44231   44232   44232       0
   44234   44235   44235       0   44237   44238   44238       0   44240   44241
   44241       0   44243   44244   44244       0   44246   44247   44247       0
   44249   44250   44250       0   44252   44253   44253       0   44255   44256
   44256       0   44258   44259   44259       0   44261   44262   44262       0
   44264   44265   44265       0   44267   44268   44268       0   44270   44271
   44271       0   44273   44274   44274       0   44276   44277   44277       0
   44279   44280   44280       0   44282   44283   44283       0   44285   44286
   44286       0   44288   44289   44289       0   44291   44292   44292       0
   44294   44295   44295       0   44297   44298   44298       0   44300   44301
   44301       0   44303   44304   44304       0   44306   44307   44307       0
   44309   44310   44310       0   44312   44313   44313       0   44315   44316
   44316       0   44318   44319   44319       0   44321   44322   44322       0
   44324   44325   44325       0   44327   44328   44328       0   44330   44331
   44331       0   44333   44334   44334       0   44336   44337   44337       0
   44339   44340   44340       0   44342   44343   44343       0   44345   44346
   44346       0   44348   44349   44349       0   44351   44352   44352       0
   44354   44355   44355       0   44357   44358   44358       0   44360   44361
   44361       0   44363   44364   44364       0   44366   44367   44367       0
   44369   44370   44370       0   44372   44373   44373       0   44375   44376
   44376       0   44378   44379   44379       0   44381   44382   44382       0
   44384   44385   44385       0   44387   44388   44388       0   44390   44391
   44391       0   44393   44394   44394       0   44396   44397   44397       0
   44399   44400   44400       0   44402   44403   44403       0   44405   44406
   44406       0   44408   44409   44409       0   44411   44412   44412       0
   44414   44415   44415       0   44417   44418   44418       0   44420   44421
   44421       0   44423   44424   44424       0   44426   44427   44427       0
   44429   44430   44430       0   44432   44433   44433       0   44435   44436
   44436       0   44438   44439   44439       0   44441   44442   44442       0
   44444   44445   44445       0   44447   44448   44448       0   44450   44451
   44451       0   44453   44454   44454       0   44456   44457   44457       0
   44459   44460   44460       0   44462   44463   44463       0   44465   44466
   44466       0   44468   44469   44469       0   44471   44472   44472       0
   44474   44475   44475       0   44477   44478   44478       0   44480   44481
   44481       0   44483   44484   44484       0   44486   44487   44487       0
   44489   44490   44490       0   44492   44493   44493       0   44495   44496
   44496       0   44498   44499   44499       0   44501   44502   44502       0
   44504   44505   44505       0   44507   44508   44508       0   44510   44511
   44511       0   44513   44514   44514       0   44516   44517   44517       0
   44519   44520   44520       0   44522   44523   44523       0   44525   44526
   44526       0   44528   44529   44529       0   44531   44532   44532       0
   44534   44535   44535       0   44537   44538   44538       0   44540   44541
   44541       0   44543   44544   44544       0   44546   44547   44547       0
   44549   44550   44550       0   44552   44553   44553       0   44555   44556
   44556       0   44558   44559   44559       0   44561   44562   44562       0
   44564   44565   44565       0   44567   44568   44568       0   44570   44571
   44571       0   44573   44574   44574       0   44576   44577   44577       0
   44579   44580   44580       0   44582   44583   44583       0   44585   44586
   44586       0   44588   44589   44589       0   44591   44592   44592       0
   44594   44595   44595       0   44597   44598   44598       0   44600   44601
   44601       0   44603   44604   44604       0   44606   44607   44607       0
   44609   44610   44610       0   44612   44613   44613       0   44615   44616
   44616       0   44618   44619   44619       0   44621   44622   44622       0
   44624   44625   44625       0   44627   44628   44628       0   44630   44631
   44631       0   44633   44634   44634       0   44636   44637   44637       0
   44639   44640   44640       0   44642   44643   44643       0   44645   44646
   44646       0   44648   44649   44649       0   44651   44652   44652       0
   44654   44655   44655       0   44657   44658   44658       0   44660   44661
   44661       0   44663   44664   44664       0   44666   44667   44667       0
   44669   44670   44670       0   44672   44673   44673       0   44675   44676
   44676       0   44678   44679   44679       0   44681   44682   44682       0
   44684   44685   44685       0   44687   44688   44688       0   44690   44691
   44691       0   44693   44694   44694       0   44696   44697   44697       0
   44699   44700   44700       0   44702   44703   44703       0   44705   44706
   44706       0   44708   44709   44709       0   44711   44712   44712       0
   44714   44715   44715       0   44717   44718   44718       0   44720   44721
   44721       0   44723   44724   44724       0   44726   44727   44727       0
   44729   44730   44730       0   44732   44733   44733       0   44735   44736
   44736       0   44738   44739   44739       0   44741   44742   44742       0
   44744   44745   44745       0   44747   44748   44748       0   44750   44751
   44751       0   44753   44754   44754       0   44756   44757   44757       0
   44759   44760   44760       0   44762   44763   44763       0   44765   44766
   44766       0   44768   44769   44769       0   44771   44772   44772       0
   44774   44775   44775       0   44777   44778   44778       0   44780   44781
   44781       0   44783   44784   44784       0   44786   44787   44787       0
   44789   44790   44790       0   44792   44793   44793       0   44795   44796
   44796       0   44798   44799   44799       0   44801   44802   44802       0
   44804   44805   44805       0   44807   44808   44808       0   44810   44811
   44811       0   44813   44814   44814       0   44816   44817   44817       0
   44819   44820   44820       0   44822   44823   44823       0   44825   44826
   44826       0   44828   44829   44829       0   44831   44832   44832       0
   44834   44835   44835       0   44837   44838   44838       0   44840   44841
   44841       0   44843   44844   44844       0   44846   44847   44847       0
   44849   44850   44850       0   44852   44853   44853       0   44855   44856
   44856       0   44858   44859   44859       0   44861   44862   44862       0
   44864   44865   44865       0   44867   44868   44868       0   44870   44871
   44871       0   44873   44874   44874       0   44876   44877   44877       0
   44879   44880   44880       0   44882   44883   44883       0   44885   44886
   44886       0   44888   44889   44889       0   44891   44892   44892       0
   44894   44895   44895       0   44897   44898   44898       0   44900   44901
   44901       0   44903   44904   44904       0   44906   44907   44907       0
   44909   44910   44910       0   44912   44913   44913       0   44915   44916
   44916       0   44918   44919   44919       0   44921   44922   44922       0
   44924   44925   44925       0   44927   44928   44928       0   44930   44931
   44931       0   44933   44934   44934       0   44936   44937   44937       0
   44939   44940   44940       0   44942   44943   44943       0   44945   44946
   44946       0   44948   44949   44949       0   44951   44952   44952       0
   44954   44955   44955       0   44957   44958   44958       0   44960   44961
   44961       0   44963   44964   44964       0   44966   44967   44967       0
   44969   44970   44970       0   44972   44973   44973       0   44975   44976
   44976       0   44978   44979   44979       0   44981   44982   44982       0
   44984   44985   44985       0   44987   44988   44988       0   44990   44991
   44991       0   44993   44994   44994       0   44996   44997   44997       0
   44999   45000   45000       0   45002   45003   45003       0   45005   45006
   45006       0   45008   45009   45009       0   45011   45012   45012       0
   45014   45015   45015       0   45017   45018   45018       0   45020   45021
   45021       0   45023   45024   45024       0   45026   45027   45027       0
   45029   45030   45030       0   45032   45033   45033       0   45035   45036
   45036       0   45038   45039   45039       0   45041   45042   45042       0
   45044   45045   45045       0   45047   45048   45048       0   45050   45051
   45051       0   45053   45054   45054       0   45056   45057   45057       0
   45059   45060   45060       0   45062   45063   45063       0   45065   45066
   45066       0   45068   45069   45069       0   45071   45072   45072       0
   45074   45075   45075       0   45077   45078   45078       0   45080   45081
   45081       0   45083   45084   45084       0   45086   45087   45087       0
   45089   45090   45090       0   45092   45093   45093       0   45095   45096
   45096       0   45098   45099   45099       0   45101   45102   45102       0
   45104   45105   45105       0   45107   45108   45108       0   45110   45111
   45111       0   45113   45114   45114       0   45116   45117   45117       0
   45119   45120   45120       0   45122   45123   45123       0   45125   45126
   45126       0   45128   45129   45129       0   45131   45132   45132       0
   45134   45135   45135       0   45137   45138   45138       0   45140   45141
   45141       0   45143   45144   45144       0   45146   45147   45147       0
   45149   45150   45150       0   45152   45153   45153       0   45155   45156
   45156       0   45158   45159   45159       0   45161   45162   45162       0
   45164   45165   45165       0   45167   45168   45168       0   45170   45171
   45171       0   45173   45174   45174       0   45176   45177   45177       0
   45179   45180   45180       0   45182   45183   45183       0   45185   45186
   45186       0   45188   45189   45189       0   45191   45192   45192       0
   45194   45195   45195       0   45197   45198   45198       0   45200   45201
   45201       0   45203   45204   45204       0   45206   45207   45207       0
   45209   45210   45210       0   45212   45213   45213       0   45215   45216
   45216       0   45218   45219   45219       0   45221   45222   45222       0
   45224   45225   45225       0   45227   45228   45228       0   45230   45231
   45231       0   45233   45234   45234       0   45236   45237   45237       0
   45239   45240   45240       0   45242   45243   45243       0   45245   45246
   45246       0   45248   45249   45249       0   45251   45252   45252       0
   45254   45255   45255       0   45257   45258   45258       0   45260   45261
   45261       0   45263   45264   45264       0   45266   45267   45267       0
   45269   45270   45270       0   45272   45273   45273       0   45275   45276
   45276       0   45278   45279   45279       0   45281   45282   45282       0
   45284   45285   45285       0   45287   45288   45288       0   45290   45291
   45291       0   45293   45294   45294       0   45296   45297   45297       0
   45299   45300   45300       0   45302   45303   45303       0   45305   45306
   45306       0   45308   45309   45309       0   45311   45312   45312       0
   45314   45315   45315       0   45317   45318   45318       0   45320   45321
   45321       0   45323   45324   45324       0   45326   45327   45327       0
   45329   45330   45330       0   45332   45333   45333       0   45335   45336
   45336       0   45338   45339   45339       0   45341   45342   45342       0
   45344   45345   45345       0   45347   45348   45348       0   45350   45351
   45351       0   45353   45354   45354       0   45356   45357   45357       0
   45359   45360   45360       0   45362   45363   45363       0   45365   45366
   45366       0   45368   45369   45369       0   45371   45372   45372       0
   45374   45375   45375       0   45377   45378   45378       0   45380   45381
   45381       0   45383   45384   45384       0   45386   45387   45387       0
   45389   45390   45390       0   45392   45393   45393       0   45395   45396
   45396       0   45398   45399   45399       0   45401   45402   45402       0
   45404   45405   45405       0   45407   45408   45408       0   45410   45411
   45411       0   45413   45414   45414       0   45416   45417   45417       0
   45419   45420   45420       0   45422   45423   45423       0   45425   45426
   45426       0   45428   45429   45429       0   45431   45432   45432       0
   45434   45435   45435       0   45437   45438   45438       0   45440   45441
   45441       0   45443   45444   45444       0   45446   45447   45447       0
   45449   45450   45450       0   45452   45453   45453       0   45455   45456
   45456       0   45458   45459   45459       0   45461   45462   45462       0
   45464   45465   45465       0   45467   45468   45468       0   45470   45471
   45471       0   45473   45474   45474       0   45476   45477   45477       0
   45479   45480   45480       0   45482   45483   45483       0   45485   45486
   45486       0   45488   45489   45489       0   45491   45492   45492       0
   45494   45495   45495       0   45497   45498   45498       0   45500   45501
   45501       0   45503   45504   45504       0   45506   45507   45507       0
   45509   45510   45510       0   45512   45513   45513       0   45515   45516
   45516       0   45518   45519   45519       0   45521   45522   45522       0
   45524   45525   45525       0   45527   45528   45528       0   45530   45531
   45531       0   45533   45534   45534       0   45536   45537   45537       0
   45539   45540   45540       0   45542   45543   45543       0   45545   45546
   45546       0   45548   45549   45549       0   45551   45552   45552       0
   45554   45555   45555       0   45557   45558   45558       0   45560   45561
   45561       0   45563   45564   45564       0   45566   45567   45567       0
   45569   45570   45570       0   45572   45573   45573       0   45575   45576
   45576       0   45578   45579   45579       0   45581   45582   45582       0
   45584   45585   45585       0   45587   45588   45588       0   45590   45591
   45591       0   45593   45594   45594       0   45596   45597   45597       0
   45599   45600   45600       0   45602   45603   45603       0   45605   45606
   45606       0   45608   45609   45609       0   45611   45612   45612       0
   45614   45615   45615       0   45617   45618   45618       0   45620   45621
   45621       0   45623   45624   45624       0   45626   45627   45627       0
   45629   45630   45630       0   45632   45633   45633       0   45635   45636
   45636       0   45638   45639   45639       0   45641   45642   45642       0
   45644   45645   45645       0   45647   45648   45648       0   45650   45651
   45651       0   45653   45654   45654       0   45656   45657   45657       0
   45659   45660   45660       0   45662   45663   45663       0   45665   45666
   45666       0   45668   45669   45669       0   45671   45672   45672       0
   45674   45675   45675       0   45677   45678   45678       0   45680   45681
   45681       0   45683   45684   45684       0   45686   45687   45687       0
   45689   45690   45690       0   45692   45693   45693       0   45695   45696
   45696       0   45698   45699   45699       0   45701   45702   45702       0
   45704   45705   45705       0   45707   45708   45708       0   45710   45711
   45711       0   45713   45714   45714       0   45716   45717   45717       0
   45719   45720   45720       0   45722   45723   45723       0   45725   45726
   45726       0   45728   45729   45729       0   45731   45732   45732       0
   45734   45735   45735       0   45737   45738   45738       0   45740   45741
   45741       0   45743   45744   45744       0   45746   45747   45747       0
   45749   45750   45750       0   45752   45753   45753       0   45755   45756
   45756       0   45758   45759   45759       0   45761   45762   45762       0
   45764   45765   45765       0   45767   45768   45768       0   45770   45771
   45771       0   45773   45774   45774       0   45776   45777   45777       0
   45779   45780   45780       0   45782   45783   45783       0   45785   45786
   45786       0   45788   45789   45789       0   45791   45792   45792       0
   45794   45795   45795       0   45797   45798   45798       0   45800   45801
   45801       0   45803   45804   45804       0   45806   45807   45807       0
   45809   45810   45810       0   45812   45813   45813       0   45815   45816
   45816       0   45818   45819   45819       0   45821   45822   45822       0
   45824   45825   45825       0   45827   45828   45828       0   45830   45831
   45831       0   45833   45834   45834       0   45836   45837   45837       0
   45839   45840   45840       0   45842   45843   45843       0   45845   45846
   45846       0   45848   45849   45849       0   45851   45852   45852       0
   45854   45855   45855       0   45857   45858   45858       0   45860   45861
   45861       0   45863   45864   45864       0   45866   45867   45867       0
   45869   45870   45870       0   45872   45873   45873       0   45875   45876
   45876       0   45878   45879   45879       0   45881   45882   45882       0
   45884   45885   45885       0   45887   45888   45888       0   45890   45891
   45891       0   45893   45894   45894       0   45896   45897   45897       0
   45899   45900   45900       0   45902   45903   45903       0   45905   45906
   45906       0   45908   45909   45909       0   45911   45912   45912       0
   45914   45915   45915       0   45917   45918   45918       0   45920   45921
   45921       0   45923   45924   45924       0   45926   45927   45927       0
   45929   45930   45930       0   45932   45933   45933       0   45935   45936
   45936       0   45938   45939   45939       0   45941   45942   45942       0
   45944   45945   45945       0   45947   45948   45948       0   45950   45951
   45951       0   45953   45954   45954       0   45956   45957   45957       0
   45959   45960   45960       0   45962   45963   45963       0   45965   45966
   45966       0   45968   45969   45969       0   45971   45972   45972       0
   45974   45975   45975       0   45977   45978   45978       0   45980   45981
   45981       0   45983   45984   45984       0   45986   45987   45987       0
   45989   45990   45990       0   45992   45993   45993       0   45995   45996
   45996       0   45998   45999   45999       0   46001   46002   46002       0
   46004   46005   46005       0   46007   46008   46008       0   46010   46011
   46011       0   46013   46014   46014       0   46016   46017   46017       0
   46019   46020   46020       0   46022   46023   46023       0   46025   46026
   46026       0   46028   46029   46029       0   46031   46032   46032       0
   46034   46035   46035       0   46037   46038   46038       0   46040   46041
   46041       0   46043   46044   46044       0   46046   46047   46047       0
   46049   46050   46050       0   46052   46053   46053       0   46055   46056
   46056       0   46058   46059   46059       0   46061   46062   46062       0
   46064   46065   46065       0   46067   46068   46068       0   46070   46071
   46071       0   46073   46074   46074       0   46076   46077   46077       0
   46079   46080   46080       0   46082   46083   46083       0   46085   46086
   46086       0   46088   46089   46089       0   46091   46092   46092       0
   46094   46095   46095       0   46097   46098   46098       0   46100   46101
   46101       0   46103   46104   46104       0   46106   46107   46107       0
   46109   46110   46110       0   46112   46113   46113       0   46115   46116
   46116       0   46118   46119   46119       0   46121   46122   46122       0
   46124   46125   46125       0   46127   46128   46128       0   46130   46131
   46131       0   46133   46134   46134       0   46136   46137   46137       0
   46139   46140   46140       0   46142   46143   46143       0   46145   46146
   46146       0   46148   46149   46149       0   46151   46152   46152       0
   46154   46155   46155       0   46157   46158   46158       0   46160   46161
   46161       0   46163   46164   46164       0   46166   46167   46167       0
   46169   46170   46170       0   46172   46173   46173       0   46175   46176
   46176       0   46178   46179   46179       0   46181   46182   46182       0
   46184   46185   46185       0   46187   46188   46188       0   46190   46191
   46191       0   46193   46194   46194       0   46196   46197   46197       0
   46199   46200   46200       0   46202   46203   46203       0   46205   46206
   46206       0   46208   46209   46209       0   46211   46212   46212       0
   46214   46215   46215       0   46217   46218   46218       0   46220   46221
   46221       0   46223   46224   46224       0   46226   46227   46227       0
   46229   46230   46230       0   46232   46233   46233       0   46235   46236
   46236       0   46238   46239   46239       0   46241   46242   46242       0
   46244   46245   46245       0   46247   46248   46248       0   46250   46251
   46251       0   46253   46254   46254       0   46256   46257   46257       0
   46259   46260   46260       0   46262   46263   46263       0   46265   46266
   46266       0   46268   46269   46269       0   46271   46272   46272       0
   46274   46275   46275       0   46277   46278   46278       0   46280   46281
   46281       0   46283   46284   46284       0   46286   46287   46287       0
   46289   46290   46290       0   46292   46293   46293       0   46295   46296
   46296       0   46298   46299   46299       0   46301   46302   46302       0
   46304   46305   46305       0   46307   46308   46308       0   46310   46311
   46311       0   46313   46314   46314       0   46316   46317   46317       0
   46319   46320   46320       0   46322   46323   46323       0   46325   46326
   46326       0   46328   46329   46329       0   46331   46332   46332       0
   46334   46335   46335       0   46337   46338   46338       0   46340   46341
   46341       0   46343   46344   46344       0   46346   46347   46347       0
   46349   46350   46350       0   46352   46353   46353       0   46355   46356
   46356       0   46358   46359   46359       0   46361   46362   46362       0
   46364   46365   46365       0   46367   46368   46368       0   46370   46371
   46371       0   46373   46374   46374       0   46376   46377   46377       0
   46379   46380   46380       0   46382   46383   46383       0   46385   46386
   46386       0   46388   46389   46389       0   46391   46392   46392       0
   46394   46395   46395       0   46397   46398   46398       0   46400   46401
   46401       0   46403   46404   46404       0   46406   46407   46407       0
   46409   46410   46410       0   46412   46413   46413       0   46415   46416
   46416       0   46418   46419   46419       0   46421   46422   46422       0
   46424   46425   46425       0   46427   46428   46428       0   46430   46431
   46431       0   46433   46434   46434       0   46436   46437   46437       0
   46439   46440   46440       0   46442   46443   46443       0   46445   46446
   46446       0   46448   46449   46449       0   46451   46452   46452       0
   46454   46455   46455       0   46457   46458   46458       0   46460   46461
   46461       0   46463   46464   46464       0   46466   46467   46467       0
   46469   46470   46470       0   46472   46473   46473       0   46475   46476
   46476       0   46478   46479   46479       0   46481   46482   46482       0
   46484   46485   46485       0   46487   46488   46488       0   46490   46491
   46491       0   46493   46494   46494       0   46496   46497   46497       0
   46499   46500   46500       0   46502   46503   46503       0   46505   46506
   46506       0   46508   46509   46509       0   46511   46512   46512       0
   46514   46515   46515       0   46517   46518   46518       0   46520   46521
   46521       0   46523   46524   46524       0   46526   46527   46527       0
   46529   46530   46530       0   46532   46533   46533       0   46535   46536
   46536       0   46538   46539   46539       0   46541   46542   46542       0
   46544   46545   46545       0   46547   46548   46548       0   46550   46551
   46551       0   46553   46554   46554       0   46556   46557   46557       0
   46559   46560   46560       0   46562   46563   46563       0   46565   46566
   46566       0   46568   46569   46569       0   46571   46572   46572       0
   46574   46575   46575       0   46577   46578   46578       0   46580   46581
   46581       0   46583   46584   46584       0   46586   46587   46587       0
   46589   46590   46590       0   46592   46593   46593       0   46595   46596
   46596       0   46598   46599   46599       0   46601   46602   46602       0
   46604   46605   46605       0   46607   46608   46608       0   46610   46611
   46611       0   46613   46614   46614       0   46616   46617   46617       0
   46619   46620   46620       0   46622   46623   46623       0   46625   46626
   46626       0   46628   46629   46629       0   46631   46632   46632       0
   46634   46635   46635       0   46637   46638   46638       0   46640   46641
   46641       0   46643   46644   46644       0   46646   46647   46647       0
   46649   46650   46650       0   46652   46653   46653       0   46655   46656
   46656       0   46658   46659   46659       0   46661   46662   46662       0
   46664   46665   46665       0   46667   46668   46668       0   46670   46671
   46671       0   46673   46674   46674       0   46676   46677   46677       0
   46679   46680   46680       0   46682   46683   46683       0   46685   46686
   46686       0   46688   46689   46689       0   46691   46692   46692       0
   46694   46695   46695       0   46697   46698   46698       0   46700   46701
   46701       0   46703   46704   46704       0   46706   46707   46707       0
   46709   46710   46710       0   46712   46713   46713       0   46715   46716
   46716       0   46718   46719   46719       0   46721   46722   46722       0
   46724   46725   46725       0   46727   46728   46728       0   46730   46731
   46731       0   46733   46734   46734       0   46736   46737   46737       0
   46739   46740   46740       0   46742   46743   46743       0   46745   46746
   46746       0   46748   46749   46749       0   46751   46752   46752       0
   46754   46755   46755       0   46757   46758   46758       0   46760   46761
   46761       0   46763   46764   46764       0   46766   46767   46767       0
   46769   46770   46770       0   46772   46773   46773       0   46775   46776
   46776       0   46778   46779   46779       0   46781   46782   46782       0
   46784   46785   46785       0   46787   46788   46788       0   46790   46791
   46791       0   46793   46794   46794       0   46796   46797   46797       0
   46799   46800   46800       0   46802   46803   46803       0   46805   46806
   46806       0   46808   46809   46809       0   46811   46812   46812       0
   46814   46815   46815       0   46817   46818   46818       0   46820   46821
   46821       0   46823   46824   46824       0   46826   46827   46827       0
   46829   46830   46830       0   46832   46833   46833       0   46835   46836
   46836       0   46838   46839   46839       0   46841   46842   46842       0
   46844   46845   46845       0   46847   46848   46848       0   46850   46851
   46851       0   46853   46854   46854       0   46856   46857   46857       0
   46859   46860   46860       0   46862   46863   46863       0   46865   46866
   46866       0   46868   46869   46869       0   46871   46872   46872       0
   46874   46875   46875       0   46877   46878   46878       0   46880   46881
   46881       0   46883   46884   46884       0   46886   46887   46887       0
   46889   46890   46890       0   46892   46893   46893       0   46895   46896
   46896       0   46898   46899   46899       0   46901   46902   46902       0
   46904   46905   46905       0   46907   46908   46908       0   46910   46911
   46911       0   46913   46914   46914       0   46916   46917   46917       0
   46919   46920   46920       0   46922   46923   46923       0   46925   46926
   46926       0   46928   46929   46929       0   46931   46932   46932       0
   46934   46935   46935       0   46937   46938   46938       0   46940   46941
   46941       0   46943   46944   46944       0   46946   46947   46947       0
   46949   46950   46950       0   46952   46953   46953       0   46955   46956
   46956       0   46958   46959   46959       0   46961   46962   46962       0
   46964   46965   46965       0   46967   46968   46968       0   46970   46971
   46971       0   46973   46974   46974       0   46976   46977   46977       0
   46979   46980   46980       0   46982   46983   46983       0   46985   46986
   46986       0   46988   46989   46989       0   46991   46992   46992       0
   46994   46995   46995       0   46997   46998   46998       0   47000   47001
   47001       0   47003   47004   47004       0   47006   47007   47007       0
   47009   47010   47010       0   47012   47013   47013       0   47015   47016
   47016       0   47018   47019   47019       0   47021   47022   47022       0
   47024   47025   47025       0   47027   47028   47028       0   47030   47031
   47031       0   47033   47034   47034       0   47036   47037   47037       0
   47039   47040   47040       0   47042   47043   47043       0   47045   47046
   47046       0   47048   47049   47049       0   47051   47052   47052       0
   47054   47055   47055       0   47057   47058   47058       0   47060   47061
   47061       0   47063   47064   47064       0   47066   47067   47067       0
   47069   47070   47070       0   47072   47073   47073       0   47075   47076
   47076       0   47078   47079   47079       0   47081   47082   47082       0
   47084   47085   47085       0   47087   47088   47088       0   47090   47091
   47091       0   47093   47094   47094       0   47096   47097   47097       0
   47099   47100   47100       0   47102   47103   47103       0   47105   47106
   47106       0   47108   47109   47109       0   47111   47112   47112       0
   47114   47115   47115       0   47117   47118   47118       0   47120   47121
   47121       0   47123   47124   47124       0   47126   47127   47127       0
   47129   47130   47130       0   47132   47133   47133       0   47135   47136
   47136       0   47138   47139   47139       0   47141   47142   47142       0
   47144   47145   47145       0   47147   47148   47148       0   47150   47151
   47151       0   47153   47154   47154       0   47156   47157   47157       0
   47159   47160   47160       0   47162   47163   47163       0   47165   47166
   47166       0   47168   47169   47169       0   47171   47172   47172       0
   47174   47175   47175       0   47177   47178   47178       0   47180   47181
   47181       0   47183   47184   47184       0   47186   47187   47187       0
   47189   47190   47190       0   47192   47193   47193       0   47195   47196
   47196       0   47198   47199   47199       0   47201   47202   47202       0
   47204   47205   47205       0   47207   47208   47208       0   47210   47211
   47211       0   47213   47214   47214       0   47216   47217   47217       0
   47219   47220   47220       0   47222   47223   47223       0   47225   47226
   47226       0   47228   47229   47229       0   47231   47232   47232       0
   47234   47235   47235       0   47237   47238   47238       0   47240   47241
   47241       0   47243   47244   47244       0   47246   47247   47247       0
   47249   47250   47250       0   47252   47253   47253       0   47255   47256
   47256       0   47258   47259   47259       0   47261   47262   47262       0
   47264   47265   47265       0   47267   47268   47268       0   47270   47271
   47271       0   47273   47274   47274       0   47276   47277   47277       0
   47279   47280   47280       0   47282   47283   47283       0   47285   47286
   47286       0   47288   47289   47289       0   47291   47292   47292       0
   47294   47295   47295       0   47297   47298   47298       0   47300   47301
   47301       0   47303   47304   47304       0   47306   47307   47307       0
   47309   47310   47310       0   47312   47313   47313       0   47315   47316
   47316       0   47318   47319   47319       0   47321   47322   47322       0
   47324   47325   47325       0   47327   47328   47328       0   47330   47331
   47331       0   47333   47334   47334       0   47336   47337   47337       0
   47339   47340   47340       0   47342   47343   47343       0   47345   47346
   47346       0   47348   47349   47349       0   47351   47352   47352       0
   47354   47355   47355       0   47357   47358   47358       0   47360   47361
   47361       0   47363   47364   47364       0   47366   47367   47367       0
   47369   47370   47370       0   47372   47373   47373       0   47375   47376
   47376       0   47378   47379   47379       0   47381   47382   47382       0
   47384   47385   47385       0   47387   47388   47388       0   47390   47391
   47391       0   47393   47394   47394       0   47396   47397   47397       0
   47399   47400   47400       0   47402   47403   47403       0   47405   47406
   47406       0   47408   47409   47409       0   47411   47412   47412       0
   47414   47415   47415       0   47417   47418   47418       0   47420   47421
   47421       0   47423   47424   47424       0   47426   47427   47427       0
   47429   47430   47430       0   47432   47433   47433       0   47435   47436
   47436       0   47438   47439   47439       0   47441   47442   47442       0
   47444   47445   47445       0   47447   47448   47448       0   47450   47451
   47451       0   47453   47454   47454       0   47456   47457   47457       0
   47459   47460   47460       0   47462   47463   47463       0   47465   47466
   47466       0   47468   47469   47469       0   47471   47472   47472       0
   47474   47475   47475       0   47477   47478   47478       0   47480   47481
   47481       0   47483   47484   47484       0   47486   47487   47487       0
   47489   47490   47490       0   47492   47493   47493       0   47495   47496
   47496       0   47498   47499   47499       0   47501   47502   47502       0
   47504   47505   47505       0   47507   47508   47508       0   47510   47511
   47511       0   47513   47514   47514       0   47516   47517   47517       0
   47519   47520   47520       0   47522   47523   47523       0   47525   47526
   47526       0   47528   47529   47529       0   47531   47532   47532       0
   47534   47535   47535       0   47537   47538   47538       0   47540   47541
   47541       0   47543   47544   47544       0   47546   47547   47547       0
   47549   47550   47550       0   47552   47553   47553       0   47555   47556
   47556       0   47558   47559   47559       0   47561   47562   47562       0
   47564   47565   47565       0   47567   47568   47568       0   47570   47571
   47571       0   47573   47574   47574       0   47576   47577   47577       0
   47579   47580   47580       0   47582   47583   47583       0   47585   47586
   47586       0   47588   47589   47589       0   47591   47592   47592       0
   47594   47595   47595       0   47597   47598   47598       0   47600   47601
   47601       0   47603   47604   47604       0   47606   47607   47607       0
   47609   47610   47610       0   47612   47613   47613       0   47615   47616
   47616       0   47618   47619   47619       0   47621   47622   47622       0
   47624   47625   47625       0   47627   47628   47628       0   47630   47631
   47631       0   47633   47634   47634       0   47636   47637   47637       0
   47639   47640   47640       0   47642   47643   47643       0   47645   47646
   47646       0   47648   47649   47649       0   47651   47652   47652       0
   47654   47655   47655       0   47657   47658   47658       0   47660   47661
   47661       0   47663   47664   47664       0   47666   47667   47667       0
   47669   47670   47670       0   47672   47673   47673       0   47675   47676
   47676       0   47678   47679   47679       0   47681   47682   47682       0
   47684   47685   47685       0   47687   47688   47688       0   47690   47691
   47691       0   47693   47694   47694       0   47696   47697   47697       0
   47699   47700   47700       0   47702   47703   47703       0   47705   47706
   47706       0   47708   47709   47709       0   47711   47712   47712       0
   47714   47715   47715       0   47717   47718   47718       0   47720   47721
   47721       0   47723   47724   47724       0   47726   47727   47727       0
   47729   47730   47730       0   47732   47733   47733       0   47735   47736
   47736       0   47738   47739   47739       0   47741   47742   47742       0
   47744   47745   47745       0   47747   47748   47748       0   47750   47751
   47751       0   47753   47754   47754       0   47756   47757   47757       0
   47759   47760   47760       0   47762   47763   47763       0   47765   47766
   47766       0   47768   47769   47769       0   47771   47772   47772       0
   47774   47775   47775       0   47777   47778   47778       0   47780   47781
   47781       0   47783   47784   47784       0   47786   47787   47787       0
   47789   47790   47790       0   47792   47793   47793       0   47795   47796
   47796       0   47798   47799   47799       0   47801   47802   47802       0
   47804   47805   47805       0   47807   47808   47808       0   47810   47811
   47811       0   47813   47814   47814       0   47816   47817   47817       0
   47819   47820   47820       0   47822   47823   47823       0   47825   47826
   47826       0   47828   47829   47829       0   47831   47832   47832       0
   47834   47835   47835       0   47837   47838   47838       0   47840   47841
   47841       0   47843   47844   47844       0   47846   47847   47847       0
   47849   47850   47850       0   47852   47853   47853       0   47855   47856
   47856       0   47858   47859   47859       0   47861   47862   47862       0
   47864   47865   47865       0   47867   47868   47868       0   47870   47871
   47871       0   47873   47874   47874       0   47876   47877   47877       0
   47879   47880   47880       0   47882   47883   47883       0   47885   47886
   47886       0   47888   47889   47889       0   47891   47892   47892       0
   47894   47895   47895       0   47897   47898   47898       0   47900   47901
   47901       0   47903   47904   47904       0   47906   47907   47907       0
   47909   47910   47910       0   47912   47913   47913       0   47915   47916
   47916       0   47918   47919   47919       0   47921   47922   47922       0
   47924   47925   47925       0   47927   47928   47928       0   47930   47931
   47931       0   47933   47934   47934       0   47936   47937   47937       0
   47939   47940   47940       0   47942   47943   47943       0   47945   47946
   47946       0   47948   47949   47949       0   47951   47952   47952       0
   47954   47955   47955       0   47957   47958   47958       0   47960   47961
   47961       0   47963   47964   47964       0   47966   47967   47967       0
   47969   47970   47970       0   47972   47973   47973       0   47975   47976
   47976       0   47978   47979   47979       0   47981   47982   47982       0
   47984   47985   47985       0   47987   47988   47988       0   47990   47991
   47991       0   47993   47994   47994       0   47996   47997   47997       0
   47999   48000   48000       0   48002   48003   48003       0   48005   48006
   48006       0   48008   48009   48009       0   48011   48012   48012       0
   48014   48015   48015       0   48017   48018   48018       0   48020   48021
   48021       0   48023   48024   48024       0   48026   48027   48027       0
   48029   48030   48030       0   48032   48033   48033       0   48035   48036
   48036       0   48038   48039   48039       0   48041   48042   48042       0
   48044   48045   48045       0   48047   48048   48048       0   48050   48051
   48051       0   48053   48054   48054       0   48056   48057   48057       0
   48059   48060   48060       0   48062   48063   48063       0   48065   48066
   48066       0   48068   48069   48069       0   48071   48072   48072       0
   48074   48075   48075       0   48077   48078   48078       0   48080   48081
   48081       0   48083   48084   48084       0   48086   48087   48087       0
   48089   48090   48090       0   48092   48093   48093       0   48095   48096
   48096       0   48098   48099   48099       0   48101   48102   48102       0
   48104   48105   48105       0   48107   48108   48108       0   48110   48111
   48111       0   48113   48114   48114       0   48116   48117   48117       0
   48119   48120   48120       0   48122   48123   48123       0   48125   48126
   48126       0   48128   48129   48129       0   48131   48132   48132       0
   48134   48135   48135       0   48137   48138   48138       0   48140   48141
   48141       0   48143   48144   48144       0   48146   48147   48147       0
   48149   48150   48150       0   48152   48153   48153       0   48155   48156
   48156       0   48158   48159   48159       0   48161   48162   48162       0
   48164   48165   48165       0   48167   48168   48168       0   48170   48171
   48171       0   48173   48174   48174       0   48176   48177   48177       0
   48179   48180   48180       0   48182   48183   48183       0   48185   48186
   48186       0   48188   48189   48189       0   48191   48192   48192       0
   48194   48195   48195       0   48197   48198   48198       0   48200   48201
   48201       0   48203   48204   48204       0   48206   48207   48207       0
   48209   48210   48210       0   48212   48213   48213       0   48215   48216
   48216       0   48218   48219   48219       0   48221   48222   48222       0
   48224   48225   48225       0   48227   48228   48228       0   48230   48231
   48231       0   48233   48234   48234       0   48236   48237   48237       0
   48239   48240   48240       0   48242   48243   48243       0   48245   48246
   48246       0   48248   48249   48249       0   48251   48252   48252       0
   48254   48255   48255       0   48257   48258   48258       0   48260   48261
   48261       0   48263   48264   48264       0   48266   48267   48267       0
   48269   48270   48270       0   48272   48273   48273       0   48275   48276
   48276       0   48278   48279   48279       0   48281   48282   48282       0
   48284   48285   48285       0   48287   48288   48288       0   48290   48291
   48291       0   48293   48294   48294       0   48296   48297   48297       0
   48299   48300   48300       0   48302   48303   48303       0   48305   48306
   48306       0   48308   48309   48309       0   48311   48312   48312       0
   48314   48315   48315       0   48317   48318   48318       0   48320   48321
   48321       0   48323   48324   48324       0   48326   48327   48327       0
   48329   48330   48330       0   48332   48333   48333       0   48335   48336
   48336       0   48338   48339   48339       0   48341   48342   48342       0
   48344   48345   48345       0   48347   48348   48348       0   48350   48351
   48351       0   48353   48354   48354       0   48356   48357   48357       0
   48359   48360   48360       0   48362   48363   48363       0   48365   48366
   48366       0   48368   48369   48369       0   48371   48372   48372       0
   48374   48375   48375       0   48377   48378   48378       0   48380   48381
   48381       0   48383   48384   48384       0   48386   48387   48387       0
   48389   48390   48390       0   48392   48393   48393       0   48395   48396
   48396       0   48398   48399   48399       0   48401   48402   48402       0
   48404   48405   48405       0   48407   48408   48408       0   48410   48411
   48411       0   48413   48414   48414       0   48416   48417   48417       0
   48419   48420   48420       0   48422   48423   48423       0   48425   48426
   48426       0   48428   48429   48429       0   48431   48432   48432       0
   48434   48435   48435       0   48437   48438   48438       0   48440   48441
   48441       0   48443   48444   48444       0   48446   48447   48447       0
   48449   48450   48450       0   48452   48453   48453       0   48455   48456
   48456       0   48458   48459   48459       0   48461   48462   48462       0
   48464   48465   48465       0   48467   48468   48468       0   48470   48471
   48471       0   48473   48474   48474       0   48476   48477   48477       0
   48479   48480   48480       0   48482   48483   48483       0   48485   48486
   48486       0   48488   48489   48489       0   48491   48492   48492       0
   48494   48495   48495       0   48497   48498   48498       0   48500   48501
   48501       0   48503   48504   48504       0   48506   48507   48507       0
   48509   48510   48510       0   48512   48513   48513       0   48515   48516
   48516       0   48518   48519   48519       0   48521   48522   48522       0
   48524   48525   48525       0   48527   48528   48528       0   48530   48531
   48531       0   48533   48534   48534       0   48536   48537   48537       0
   48539   48540   48540       0   48542   48543   48543       0   48545   48546
   48546       0   48548   48549   48549       0   48551   48552   48552       0
   48554   48555   48555       0   48557   48558   48558       0   48560   48561
   48561       0   48563   48564   48564       0   48566   48567   48567       0
   48569   48570   48570       0   48572   48573   48573       0   48575   48576
   48576       0   48578   48579   48579       0   48581   48582   48582       0
   48584   48585   48585       0   48587   48588   48588       0   48590   48591
   48591       0   48593   48594   48594       0   48596   48597   48597       0
   48599   48600   48600       0   48602   48603   48603       0   48605   48606
   48606       0   48608   48609   48609       0   48611   48612   48612       0
   48614   48615   48615       0   48617   48618   48618       0   48620   48621
   48621       0   48623   48624   48624       0   48626   48627   48627       0
   48629   48630   48630       0   48632   48633   48633       0   48635   48636
   48636       0   48638   48639   48639       0   48641   48642   48642       0
   48644   48645   48645       0   48647   48648   48648       0   48650   48651
   48651       0   48653   48654   48654       0   48656   48657   48657       0
   48659   48660   48660       0   48662   48663   48663       0   48665   48666
   48666       0   48668   48669   48669       0   48671   48672   48672       0
   48674   48675   48675       0   48677   48678   48678       0   48680   48681
   48681       0   48683   48684   48684       0   48686   48687   48687       0
   48689   48690   48690       0   48692   48693   48693       0   48695   48696
   48696       0   48698   48699   48699       0   48701   48702   48702       0
   48704   48705   48705       0   48707   48708   48708       0   48710   48711
   48711       0   48713   48714   48714       0   48716   48717   48717       0
   48719   48720   48720       0   48722   48723   48723       0   48725   48726
   48726       0   48728   48729   48729       0   48731   48732   48732       0
   48734   48735   48735       0   48737   48738   48738       0   48740   48741
   48741       0   48743   48744   48744       0   48746   48747   48747       0
   48749   48750   48750       0   48752   48753   48753       0   48755   48756
   48756       0   48758   48759   48759       0   48761   48762   48762       0
   48764   48765   48765       0   48767   48768   48768       0   48770   48771
   48771       0   48773   48774   48774       0   48776   48777   48777       0
   48779   48780   48780       0   48782   48783   48783       0   48785   48786
   48786       0   48788   48789   48789       0   48791   48792   48792       0
   48794   48795   48795       0   48797   48798   48798       0   48800   48801
   48801       0   48803   48804   48804       0   48806   48807   48807       0
   48809   48810   48810       0   48812   48813   48813       0   48815   48816
   48816       0   48818   48819   48819       0   48821   48822   48822       0
   48824   48825   48825       0   48827   48828   48828       0   48830   48831
   48831       0   48833   48834   48834       0   48836   48837   48837       0
   48839   48840   48840       0   48842   48843   48843       0   48845   48846
   48846       0   48848   48849   48849       0   48851   48852   48852       0
   48854   48855   48855       0   48857   48858   48858       0   48860   48861
   48861       0   48863   48864   48864       0   48866   48867   48867       0
   48869   48870   48870       0   48872   48873   48873       0   48875   48876
   48876       0   48878   48879   48879       0   48881   48882   48882       0
   48884   48885   48885       0   48887   48888   48888       0   48890   48891
   48891       0   48893   48894   48894       0   48896   48897   48897       0
   48899   48900   48900       0   48902   48903   48903       0   48905   48906
   48906       0   48908   48909   48909       0   48911   48912   48912       0
   48914   48915   48915       0   48917   48918   48918       0   48920   48921
   48921       0   48923   48924   48924       0   48926   48927   48927       0
   48929   48930   48930       0   48932   48933   48933       0   48935   48936
   48936       0   48938   48939   48939       0   48941   48942   48942       0
   48944   48945   48945       0   48947   48948   48948       0   48950   48951
   48951       0   48953   48954   48954       0   48956   48957   48957       0
   48959   48960   48960       0   48962   48963   48963       0   48965   48966
   48966       0   48968   48969   48969       0   48971   48972   48972       0
   48974   48975   48975       0   48977   48978   48978       0   48980   48981
   48981       0   48983   48984   48984       0   48986   48987   48987       0
   48989   48990   48990       0   48992   48993   48993       0   48995   48996
   48996       0   48998   48999   48999       0   49001   49002   49002       0
   49004   49005   49005       0   49007   49008   49008       0   49010   49011
   49011       0   49013   49014   49014       0   49016   49017   49017       0
   49019   49020   49020       0   49022   49023   49023       0   49025   49026
   49026       0   49028   49029   49029       0   49031   49032   49032       0
   49034   49035   49035       0   49037   49038   49038       0   49040   49041
   49041       0   49043   49044   49044       0   49046   49047   49047       0
   49049   49050   49050       0   49052   49053   49053       0   49055   49056
   49056       0   49058   49059   49059       0   49061   49062   49062       0
   49064   49065   49065       0   49067   49068   49068       0   49070   49071
   49071       0   49073   49074   49074       0   49076   49077   49077       0
   49079   49080   49080       0   49082   49083   49083       0   49085   49086
   49086       0   49088   49089   49089       0   49091   49092   49092       0
   49094   49095   49095       0   49097   49098   49098       0   49100   49101
   49101       0   49103   49104   49104       0   49106   49107   49107       0
   49109   49110   49110       0   49112   49113   49113       0   49115   49116
   49116       0   49118   49119   49119       0   49121   49122   49122       0
   49124   49125   49125       0   49127   49128   49128       0   49130   49131
   49131       0   49133   49134   49134       0   49136   49137   49137       0
   49139   49140   49140       0   49142   49143   49143       0   49145   49146
   49146       0   49148   49149   49149       0   49151   49152   49152       0
   49154   49155   49155       0   49157   49158   49158       0   49160   49161
   49161       0   49163   49164   49164       0   49166   49167   49167       0
   49169   49170   49170       0   49172   49173   49173       0   49175   49176
   49176       0   49178   49179   49179       0   49181   49182   49182       0
   49184   49185   49185       0   49187   49188   49188       0   49190   49191
   49191       0   49193   49194   49194       0   49196   49197   49197       0
   49199   49200   49200       0   49202   49203   49203       0   49205   49206
   49206       0   49208   49209   49209       0   49211   49212   49212       0
   49214   49215   49215       0   49217   49218   49218       0   49220   49221
   49221       0   49223   49224   49224       0   49226   49227   49227       0
   49229   49230   49230       0   49232   49233   49233       0   49235   49236
   49236       0   49238   49239   49239       0   49241   49242   49242       0
   49244   49245   49245       0   49247   49248   49248       0   49250   49251
   49251       0   49253   49254   49254       0   49256   49257   49257       0
   49259   49260   49260       0   49262   49263   49263       0   49265   49266
   49266       0   49268   49269   49269       0   49271   49272   49272       0
   49274   49275   49275       0   49277   49278   49278       0   49280   49281
   49281       0   49283   49284   49284       0   49286   49287   49287       0
   49289   49290   49290       0   49292   49293   49293       0   49295   49296
   49296       0   49298   49299   49299       0   49301   49302   49302       0
   49304   49305   49305       0   49307   49308   49308       0   49310   49311
   49311       0   49313   49314   49314       0   49316   49317   49317       0
   49319   49320   49320       0   49322   49323   49323       0   49325   49326
   49326       0   49328   49329   49329       0   49331   49332   49332       0
   49334   49335   49335       0   49337   49338   49338       0   49340   49341
   49341       0   49343   49344   49344       0   49346   49347   49347       0
   49349   49350   49350       0   49352   49353   49353       0   49355   49356
   49356       0   49358   49359   49359       0   49361   49362   49362       0
   49364   49365   49365       0   49367   49368   49368       0   49370   49371
   49371       0   49373   49374   49374       0   49376   49377   49377       0
   49379   49380   49380       0   49382   49383   49383       0   49385   49386
   49386       0   49388   49389   49389       0   49391   49392   49392       0
   49394   49395   49395       0   49397   49398   49398       0   49400   49401
   49401       0   49403   49404   49404       0   49406   49407   49407       0
   49409   49410   49410       0   49412   49413   49413       0   49415   49416
   49416       0   49418   49419   49419       0   49421   49422   49422       0
   49424   49425   49425       0   49427   49428   49428       0   49430   49431
   49431       0   49433   49434   49434       0   49436   49437   49437       0
   49439   49440   49440       0   49442   49443   49443       0   49445   49446
   49446       0   49448   49449   49449       0   49451   49452   49452       0
   49454   49455   49455       0   49457   49458   49458       0   49460   49461
   49461       0   49463   49464   49464       0   49466   49467   49467       0
   49469   49470   49470       0   49472   49473   49473       0   49475   49476
   49476       0   49478   49479   49479       0   49481   49482   49482       0
   49484   49485   49485       0   49487   49488   49488       0   49490   49491
   49491       0   49493   49494   49494       0   49496   49497   49497       0
   49499   49500   49500       0   49502   49503   49503       0   49505   49506
   49506       0   49508   49509   49509       0   49511   49512   49512       0
   49514   49515   49515       0   49517   49518   49518       0   49520   49521
   49521       0   49523   49524   49524       0   49526   49527   49527       0
   49529   49530   49530       0   49532   49533   49533       0   49535   49536
   49536       0   49538   49539   49539       0   49541   49542   49542       0
   49544   49545   49545       0   49547   49548   49548       0   49550   49551
   49551       0   49553   49554   49554       0   49556   49557   49557       0
   49559   49560   49560       0   49562   49563   49563       0   49565   49566
   49566       0   49568   49569   49569       0   49571   49572   49572       0
   49574   49575   49575       0   49577   49578   49578       0   49580   49581
   49581       0   49583   49584   49584       0   49586   49587   49587       0
   49589   49590   49590       0   49592   49593   49593       0   49595   49596
   49596       0   49598   49599   49599       0   49601   49602   49602       0
   49604   49605   49605       0   49607   49608   49608       0   49610   49611
   49611       0   49613   49614   49614       0   49616   49617   49617       0
   49619   49620   49620       0   49622   49623   49623       0   49625   49626
   49626       0   49628   49629   49629       0   49631   49632   49632       0
   49634   49635   49635       0   49637   49638   49638       0   49640   49641
   49641       0   49643   49644   49644       0   49646   49647   49647       0
   49649   49650   49650       0   49652   49653   49653       0   49655   49656
   49656       0   49658   49659   49659       0   49661   49662   49662       0
   49664   49665   49665       0   49667   49668   49668       0   49670   49671
   49671       0   49673   49674   49674       0   49676   49677   49677       0
   49679   49680   49680       0   49682   49683   49683       0   49685   49686
   49686       0   49688   49689   49689       0   49691   49692   49692       0
   49694   49695   49695       0   49697   49698   49698       0   49700   49701
   49701       0   49703   49704   49704       0   49706   49707   49707       0
   49709   49710   49710       0   49712   49713   49713       0   49715   49716
   49716       0   49718   49719   49719       0   49721   49722   49722       0
   49724   49725   49725       0   49727   49728   49728       0   49730   49731
   49731       0   49733   49734   49734       0   49736   49737   49737       0
   49739   49740   49740       0   49742   49743   49743       0   49745   49746
   49746       0   49748   49749   49749       0   49751   49752   49752       0
   49754   49755   49755       0   49757   49758   49758       0   49760   49761
   49761       0   49763   49764   49764       0   49766   49767   49767       0
   49769   49770   49770       0   49772   49773   49773       0   49775   49776
   49776       0   49778   49779   49779       0   49781   49782   49782       0
   49784   49785   49785       0   49787   49788   49788       0   49790   49791
   49791       0   49793   49794   49794       0   49796   49797   49797       0
   49799   49800   49800       0   49802   49803   49803       0   49805   49806
   49806       0   49808   49809   49809       0   49811   49812   49812       0
   49814   49815   49815       0   49817   49818   49818       0   49820   49821
   49821       0   49823   49824   49824       0   49826   49827   49827       0
   49829   49830   49830       0   49832   49833   49833       0   49835   49836
   49836       0   49838   49839   49839       0   49841   49842   49842       0
   49844   49845   49845       0   49847   49848   49848       0   49850   49851
   49851       0   49853   49854   49854       0   49856   49857   49857       0
   49859   49860   49860       0   49862   49863   49863       0   49865   49866
   49866       0   49868   49869   49869       0   49871   49872   49872       0
   49874   49875   49875       0   49877   49878   49878       0   49880   49881
   49881       0   49883   49884   49884       0   49886   49887   49887       0
   49889   49890   49890       0   49892   49893   49893       0   49895   49896
   49896       0   49898   49899   49899       0   49901   49902   49902       0
   49904   49905   49905       0   49907   49908   49908       0   49910   49911
   49911       0   49913   49914   49914       0   49916   49917   49917       0
   49919   49920   49920       0   49922   49923   49923       0   49925   49926
   49926       0   49928   49929   49929       0   49931   49932   49932       0
   49934   49935   49935       0   49937   49938   49938       0   49940   49941
   49941       0   49943   49944   49944       0   49946   49947   49947       0
   49949   49950   49950       0   49952   49953   49953       0   49955   49956
   49956       0   49958   49959   49959       0   49961   49962   49962       0
   49964   49965   49965       0   49967   49968   49968       0   49970   49971
   49971       0   49973   49974   49974       0   49976   49977   49977       0
   49979   49980   49980       0   49982   49983   49983       0   49985   49986
   49986       0   49988   49989   49989       0   49991   49992   49992       0
   49994   49995   49995       0   49997   49998   49998       0   50000   50001
   50001       0   50003   50004   50004       0   50006   50007   50007       0
   50009   50010   50010       0   50012   50013   50013       0   50015   50016
   50016       0   50018   50019   50019       0   50021   50022   50022       0
   50024   50025   50025       0   50027   50028   50028       0   50030   50031
   50031       0   50033   50034   50034       0   50036   50037   50037       0
   50039   50040   50040       0   50042   50043   50043       0   50045   50046
   50046       0   50048   50049   50049       0   50051   50052   50052       0
   50054   50055   50055       0   50057   50058   50058       0   50060   50061
   50061       0   50063   50064   50064       0   50066   50067   50067       0
   50069   50070   50070       0   50072   50073   50073       0   50075   50076
   50076       0   50078   50079   50079       0   50081   50082   50082       0
   50084   50085   50085       0   50087   50088   50088       0   50090   50091
   50091       0   50093   50094   50094       0   50096   50097   50097       0
   50099   50100   50100       0   50102   50103   50103       0   50105   50106
   50106       0   50108   50109   50109       0   50111   50112   50112       0
   50114   50115   50115       0   50117   50118   50118       0   50120   50121
   50121       0   50123   50124   50124       0   50126   50127   50127       0
   50129   50130   50130       0   50132   50133   50133       0   50135   50136
   50136       0   50138   50139   50139       0   50141   50142   50142       0
   50144   50145   50145       0   50147   50148   50148       0   50150   50151
   50151       0   50153   50154   50154       0   50156   50157   50157       0
   50159   50160   50160       0   50162   50163   50163       0   50165   50166
   50166       0   50168   50169   50169       0   50171   50172   50172       0
   50174   50175   50175       0   50177   50178   50178       0   50180   50181
   50181       0   50183   50184   50184       0   50186   50187   50187       0
   50189   50190   50190       0   50192   50193   50193       0   50195   50196
   50196       0   50198   50199   50199       0   50201   50202   50202       0
   50204   50205   50205       0   50207   50208   50208       0   50210   50211
   50211       0   50213   50214   50214       0   50216   50217   50217       0
   50219   50220   50220       0   50222   50223   50223       0   50225   50226
   50226       0   50228   50229   50229       0   50231   50232   50232       0
   50234   50235   50235       0   50237   50238   50238       0   50240   50241
   50241       0   50243   50244   50244       0   50246   50247   50247       0
   50249   50250   50250       0   50252   50253   50253       0   50255   50256
   50256       0   50258   50259   50259       0   50261   50262   50262       0
   50264   50265   50265       0   50267   50268   50268       0   50270   50271
   50271       0   50273   50274   50274       0   50276   50277   50277       0
   50279   50280   50280       0   50282   50283   50283       0   50285   50286
   50286       0   50288   50289   50289       0   50291   50292   50292       0
   50294   50295   50295       0   50297   50298   50298       0   50300   50301
   50301       0   50303   50304   50304       0   50306   50307   50307       0
   50309   50310   50310       0   50312   50313   50313       0   50315   50316
   50316       0   50318   50319   50319       0   50321   50322   50322       0
   50324   50325   50325       0   50327   50328   50328       0   50330   50331
   50331       0   50333   50334   50334       0   50336   50337   50337       0
   50339   50340   50340       0   50342   50343   50343       0   50345   50346
   50346       0   50348   50349   50349       0   50351   50352   50352       0
   50354   50355   50355       0   50357   50358   50358       0   50360   50361
   50361       0   50363   50364   50364       0   50366   50367   50367       0
   50369   50370   50370       0   50372   50373   50373       0   50375   50376
   50376       0   50378   50379   50379       0   50381   50382   50382       0
   50384   50385   50385       0   50387   50388   50388       0   50390   50391
   50391       0   50393   50394   50394       0   50396   50397   50397       0
   50399   50400   50400       0   50402   50403   50403       0   50405   50406
   50406       0   50408   50409   50409       0   50411   50412   50412       0
   50414   50415   50415       0   50417   50418   50418       0   50420   50421
   50421       0   50423   50424   50424       0   50426   50427   50427       0
   50429   50430   50430       0   50432   50433   50433       0   50435   50436
   50436       0   50438   50439   50439       0   50441   50442   50442       0
   50444   50445   50445       0   50447   50448   50448       0   50450   50451
   50451       0   50453   50454   50454       0   50456   50457   50457       0
   50459   50460   50460       0   50462   50463   50463       0   50465   50466
   50466       0   50468   50469   50469       0   50471   50472   50472       0
   50474   50475   50475       0   50477   50478   50478       0   50480   50481
   50481       0   50483   50484   50484       0   50486   50487   50487       0
   50489   50490   50490       0   50492   50493   50493       0   50495   50496
   50496       0   50498   50499   50499       0   50501   50502   50502       0
   50504   50505   50505       0   50507   50508   50508       0   50510   50511
   50511       0   50513   50514   50514       0   50516   50517   50517       0
   50519   50520   50520       0   50522   50523   50523       0   50525   50526
   50526       0   50528   50529   50529       0   50531   50532   50532       0
   50534   50535   50535       0   50537   50538   50538       0   50540   50541
   50541       0   50543   50544   50544       0   50546   50547   50547       0
   50549   50550   50550       0   50552   50553   50553       0   50555   50556
   50556       0   50558   50559   50559       0   50561   50562   50562       0
   50564   50565   50565       0   50567   50568   50568       0   50570   50571
   50571       0   50573   50574   50574       0   50576   50577   50577       0
   50579   50580   50580       0   50582   50583   50583       0   50585   50586
   50586       0   50588   50589   50589       0   50591   50592   50592       0
   50594   50595   50595       0   50597   50598   50598       0   50600   50601
   50601       0   50603   50604   50604       0   50606   50607   50607       0
   50609   50610   50610       0   50612   50613   50613       0   50615   50616
   50616       0   50618   50619   50619       0   50621   50622   50622       0
   50624   50625   50625       0   50627   50628   50628       0   50630   50631
   50631       0   50633   50634   50634       0   50636   50637   50637       0
   50639   50640   50640       0   50642   50643   50643       0   50645   50646
   50646       0   50648   50649   50649       0   50651   50652   50652       0
   50654   50655   50655       0   50657   50658   50658       0   50660   50661
   50661       0   50663   50664   50664       0   50666   50667   50667       0
   50669   50670   50670       0   50672   50673   50673       0   50675   50676
   50676       0   50678   50679   50679       0   50681   50682   50682       0
   50684   50685   50685       0   50687   50688   50688       0   50690   50691
   50691       0   50693   50694   50694       0   50696   50697   50697       0
   50699   50700   50700       0   50702   50703   50703       0   50705   50706
   50706       0   50708   50709   50709       0   50711   50712   50712       0
   50714   50715   50715       0   50717   50718   50718       0   50720   50721
   50721       0   50723   50724   50724       0   50726   50727   50727       0
   50729   50730   50730       0   50732   50733   50733       0   50735   50736
   50736       0   50738   50739   50739       0   50741   50742   50742       0
   50744   50745   50745       0   50747   50748   50748       0   50750   50751
   50751       0   50753   50754   50754       0   50756   50757   50757       0
   50759   50760   50760       0   50762   50763   50763       0   50765   50766
   50766       0   50768   50769   50769       0   50771   50772   50772       0
   50774   50775   50775       0   50777   50778   50778       0   50780   50781
   50781       0   50783   50784   50784       0   50786   50787   50787       0
   50789   50790   50790       0   50792   50793   50793       0   50795   50796
   50796       0   50798   50799   50799       0   50801   50802   50802       0
   50804   50805   50805       0   50807   50808   50808       0   50810   50811
   50811       0   50813   50814   50814       0   50816   50817   50817       0
   50819   50820   50820       0   50822   50823   50823       0   50825   50826
   50826       0   50828   50829   50829       0   50831   50832   50832       0
   50834   50835   50835       0   50837   50838   50838       0   50840   50841
   50841       0   50843   50844   50844       0   50846   50847   50847       0
   50849   50850   50850       0   50852   50853   50853       0   50855   50856
   50856       0   50858   50859   50859       0   50861   50862   50862       0
   50864   50865   50865       0   50867   50868   50868       0   50870   50871
   50871       0   50873   50874   50874       0   50876   50877   50877       0
   50879   50880   50880       0   50882   50883   50883       0   50885   50886
   50886       0   50888   50889   50889       0   50891   50892   50892       0
   50894   50895   50895       0   50897   50898   50898       0   50900   50901
   50901       0   50903   50904   50904       0   50906   50907   50907       0
   50909   50910   50910       0   50912   50913   50913       0   50915   50916
   50916       0   50918   50919   50919       0   50921   50922   50922       0
   50924   50925   50925       0   50927   50928   50928       0   50930   50931
   50931       0   50933   50934   50934       0   50936   50937   50937       0
   50939   50940   50940       0   50942   50943   50943       0   50945   50946
   50946       0   50948   50949   50949       0   50951   50952   50952       0
   50954   50955   50955       0   50957   50958   50958       0   50960   50961
   50961       0   50963   50964   50964       0   50966   50967   50967       0
   50969   50970   50970       0   50972   50973   50973       0   50975   50976
   50976       0   50978   50979   50979       0   50981   50982   50982       0
   50984   50985   50985       0   50987   50988   50988       0   50990   50991
   50991       0   50993   50994   50994       0   50996   50997   50997       0
   50999   51000   51000       0   51002   51003   51003       0   51005   51006
   51006       0   51008   51009   51009       0   51011   51012   51012       0
   51014   51015   51015       0   51017   51018   51018       0   51020   51021
   51021       0   51023   51024   51024       0   51026   51027   51027       0
   51029   51030   51030       0   51032   51033   51033       0   51035   51036
   51036       0   51038   51039   51039       0   51041   51042   51042       0
   51044   51045   51045       0   51047   51048   51048       0   51050   51051
   51051       0   51053   51054   51054       0   51056   51057   51057       0
   51059   51060   51060       0   51062   51063   51063       0   51065   51066
   51066       0   51068   51069   51069       0   51071   51072   51072       0
   51074   51075   51075       0   51077   51078   51078       0   51080   51081
   51081       0   51083   51084   51084       0   51086   51087   51087       0
   51089   51090   51090       0   51092   51093   51093       0   51095   51096
   51096       0   51098   51099   51099       0   51101   51102   51102       0
   51104   51105   51105       0   51107   51108   51108       0   51110   51111
   51111       0   51113   51114   51114       0   51116   51117   51117       0
   51119   51120   51120       0   51122   51123   51123       0   51125   51126
   51126       0   51128   51129   51129       0   51131   51132   51132       0
   51134   51135   51135       0   51137   51138   51138       0   51140   51141
   51141       0   51143   51144   51144       0   51146   51147   51147       0
   51149   51150   51150       0   51152   51153   51153       0   51155   51156
   51156       0   51158   51159   51159       0   51161   51162   51162       0
   51164   51165   51165       0   51167   51168   51168       0   51170   51171
   51171       0   51173   51174   51174       0   51176   51177   51177       0
   51179   51180   51180       0   51182   51183   51183       0   51185   51186
   51186       0   51188   51189   51189       0   51191   51192   51192       0
   51194   51195   51195       0   51197   51198   51198       0   51200   51201
   51201       0   51203   51204   51204       0   51206   51207   51207       0
   51209   51210   51210       0   51212   51213   51213       0   51215   51216
   51216       0   51218   51219   51219       0   51221   51222   51222       0
   51224   51225   51225       0   51227   51228   51228       0   51230   51231
   51231       0   51233   51234   51234       0   51236   51237   51237       0
   51239   51240   51240       0   51242   51243   51243       0   51245   51246
   51246       0   51248   51249   51249       0   51251   51252   51252       0
   51254   51255   51255       0   51257   51258   51258       0   51260   51261
   51261       0   51263   51264   51264       0   51266   51267   51267       0
   51269   51270   51270       0   51272   51273   51273       0   51275   51276
   51276       0   51278   51279   51279       0   51281   51282   51282       0
   51284   51285   51285       0   51287   51288   51288       0   51290   51291
   51291       0   51293   51294   51294       0   51296   51297   51297       0
   51299   51300   51300       0   51302   51303   51303       0   51305   51306
   51306       0   51308   51309   51309       0   51311   51312   51312       0
   51314   51315   51315       0   51317   51318   51318       0   51320   51321
   51321       0   51323   51324   51324       0   51326   51327   51327       0
   51329   51330   51330       0   51332   51333   51333       0   51335   51336
   51336       0   51338   51339   51339       0   51341   51342   51342       0
   51344   51345   51345       0   51347   51348   51348       0   51350   51351
   51351       0   51353   51354   51354       0   51356   51357   51357       0
   51359   51360   51360       0   51362   51363   51363       0   51365   51366
   51366       0   51368   51369   51369       0   51371   51372   51372       0
   51374   51375   51375       0   51377   51378   51378       0   51380   51381
   51381       0   51383   51384   51384       0   51386   51387   51387       0
   51389   51390   51390       0   51392   51393   51393       0   51395   51396
   51396       0   51398   51399   51399       0   51401   51402   51402       0
   51404   51405   51405       0   51407   51408   51408       0   51410   51411
   51411       0   51413   51414   51414       0   51416   51417   51417       0
   51419   51420   51420       0   51422   51423   51423       0   51425   51426
   51426       0   51428   51429   51429       0   51431   51432   51432       0
   51434   51435   51435       0   51437   51438   51438       0   51440   51441
   51441       0   51443   51444   51444       0   51446   51447   51447       0
   51449   51450   51450       0   51452   51453   51453       0   51455   51456
   51456       0   51458   51459   51459       0   51461   51462   51462       0
   51464   51465   51465       0   51467   51468   51468       0   51470   51471
   51471       0   51473   51474   51474       0   51476   51477   51477       0
   51479   51480   51480       0   51482   51483   51483       0   51485   51486
   51486       0   51488   51489   51489       0   51491   51492   51492       0
   51494   51495   51495       0   51497   51498   51498       0   51500   51501
   51501       0   51503   51504   51504       0   51506   51507   51507       0
   51509   51510   51510       0   51512   51513   51513       0   51515   51516
   51516       0   51518   51519   51519       0   51521   51522   51522       0
   51524   51525   51525       0   51527   51528   51528       0   51530   51531
   51531       0   51533   51534   51534       0   51536   51537   51537       0
   51539   51540   51540       0   51542   51543   51543       0   51545   51546
   51546       0   51548   51549   51549       0   51551   51552   51552       0
   51554   51555   51555       0   51557   51558   51558       0   51560   51561
   51561       0   51563   51564   51564       0   51566   51567   51567       0
   51569   51570   51570       0   51572   51573   51573       0   51575   51576
   51576       0   51578   51579   51579       0   51581   51582   51582       0
   51584   51585   51585       0   51587   51588   51588       0   51590   51591
   51591       0   51593   51594   51594       0   51596   51597   51597       0
   51599   51600   51600       0   51602   51603   51603       0   51605   51606
   51606       0   51608   51609   51609       0   51611   51612   51612       0
   51614   51615   51615       0   51617   51618   51618       0   51620   51621
   51621       0   51623   51624   51624       0   51626   51627   51627       0
   51629   51630   51630       0   51632   51633   51633       0   51635   51636
   51636       0   51638   51639   51639       0   51641   51642   51642       0
   51644   51645   51645       0   51647   51648   51648       0   51650   51651
   51651       0   51653   51654   51654       0   51656   51657   51657       0
   51659   51660   51660       0   51662   51663   51663       0   51665   51666
   51666       0   51668   51669   51669       0   51671   51672   51672       0
   51674   51675   51675       0   51677   51678   51678       0   51680   51681
   51681       0   51683   51684   51684       0   51686   51687   51687       0
   51689   51690   51690       0   51692   51693   51693       0   51695   51696
   51696       0   51698   51699   51699       0   51701   51702   51702       0
   51704   51705   51705       0   51707   51708   51708       0   51710   51711
   51711       0   51713   51714   51714       0   51716   51717   51717       0
   51719   51720   51720       0   51722   51723   51723       0   51725   51726
   51726       0   51728   51729   51729       0   51731   51732   51732       0
   51734   51735   51735       0   51737   51738   51738       0   51740   51741
   51741       0   51743   51744   51744       0   51746   51747   51747       0
   51749   51750   51750       0   51752   51753   51753       0   51755   51756
   51756       0   51758   51759   51759       0   51761   51762   51762       0
   51764   51765   51765       0   51767   51768   51768       0   51770   51771
   51771       0   51773   51774   51774       0   51776   51777   51777       0
   51779   51780   51780       0   51782   51783   51783       0   51785   51786
   51786       0   51788   51789   51789       0   51791   51792   51792       0
   51794   51795   51795       0   51797   51798   51798       0   51800   51801
   51801       0   51803   51804   51804       0   51806   51807   51807       0
   51809   51810   51810       0   51812   51813   51813       0   51815   51816
   51816       0   51818   51819   51819       0   51821   51822   51822       0
   51824   51825   51825       0   51827   51828   51828       0   51830   51831
   51831       0   51833   51834   51834       0   51836   51837   51837       0
   51839   51840   51840       0   51842   51843   51843       0   51845   51846
   51846       0   51848   51849   51849       0   51851   51852   51852       0
   51854   51855   51855       0   51857   51858   51858       0   51860   51861
   51861       0   51863   51864   51864       0   51866   51867   51867       0
   51869   51870   51870       0   51872   51873   51873       0   51875   51876
   51876       0   51878   51879   51879       0   51881   51882   51882       0
   51884   51885   51885       0   51887   51888   51888       0   51890   51891
   51891       0   51893   51894   51894       0   51896   51897   51897       0
   51899   51900   51900       0   51902   51903   51903       0   51905   51906
   51906       0   51908   51909   51909       0   51911   51912   51912       0
   51914   51915   51915       0   51917   51918   51918       0   51920   51921
   51921       0   51923   51924   51924       0   51926   51927   51927       0
   51929   51930   51930       0   51932   51933   51933       0   51935   51936
   51936       0   51938   51939   51939       0   51941   51942   51942       0
   51944   51945   51945       0   51947   51948   51948       0   51950   51951
   51951       0   51953   51954   51954       0   51956   51957   51957       0
   51959   51960   51960       0   51962   51963   51963       0   51965   51966
   51966       0   51968   51969   51969       0   51971   51972   51972       0
   51974   51975   51975       0   51977   51978   51978       0   51980   51981
   51981       0   51983   51984   51984       0   51986   51987   51987       0
   51989   51990   51990       0   51992   51993   51993       0   51995   51996
   51996       0   51998   51999   51999       0   52001   52002   52002       0
   52004   52005   52005       0   52007   52008   52008       0   52010   52011
   52011       0   52013   52014   52014       0   52016   52017   52017       0
   52019   52020   52020       0   52022   52023   52023       0   52025   52026
   52026       0   52028   52029   52029       0   52031   52032   52032       0
   52034   52035   52035       0   52037   52038   52038       0   52040   52041
   52041       0   52043   52044   52044       0   52046   52047   52047       0
   52049   52050   52050       0   52052   52053   52053       0   52055   52056
   52056       0   52058   52059   52059       0   52061   52062   52062       0
   52064   52065   52065       0   52067   52068   52068       0   52070   52071
   52071       0   52073   52074   52074       0   52076   52077   52077       0
   52079   52080   52080       0   52082   52083   52083       0   52085   52086
   52086       0   52088   52089   52089       0   52091   52092   52092       0
   52094   52095   52095       0   52097   52098   52098       0   52100   52101
   52101       0   52103   52104   52104       0   52106   52107   52107       0
   52109   52110   52110       0   52112   52113   52113       0   52115   52116
   52116       0   52118   52119   52119       0   52121   52122   52122       0
   52124   52125   52125       0   52127   52128   52128       0   52130   52131
   52131       0   52133   52134   52134       0   52136   52137   52137       0
   52139   52140   52140       0   52142   52143   52143       0   52145   52146
   52146       0   52148   52149   52149       0   52151   52152   52152       0
   52154   52155   52155       0   52157   52158   52158       0   52160   52161
   52161       0   52163   52164   52164       0   52166   52167   52167       0
   52169   52170   52170       0   52172   52173   52173       0   52175   52176
   52176       0   52178   52179   52179       0   52181   52182   52182       0
   52184   52185   52185       0   52187   52188   52188       0   52190   52191
   52191       0   52193   52194   52194       0   52196   52197   52197       0
   52199   52200   52200       0   52202   52203   52203       0   52205   52206
   52206       0   52208   52209   52209       0   52211   52212   52212       0
   52214   52215   52215       0   52217   52218   52218       0   52220   52221
   52221       0   52223   52224   52224       0   52226   52227   52227       0
   52229   52230   52230       0   52232   52233   52233       0   52235   52236
   52236       0   52238   52239   52239       0   52241   52242   52242       0
   52244   52245   52245       0   52247   52248   52248       0   52250   52251
   52251       0   52253   52254   52254       0   52256   52257   52257       0
   52259   52260   52260       0   52262   52263   52263       0   52265   52266
   52266       0   52268   52269   52269       0   52271   52272   52272       0
   52274   52275   52275       0   52277   52278   52278       0   52280   52281
   52281       0   52283   52284   52284       0   52286   52287   52287       0
   52289   52290   52290       0   52292   52293   52293       0   52295   52296
   52296       0   52298   52299   52299       0   52301   52302   52302       0
   52304   52305   52305       0   52307   52308   52308       0   52310   52311
   52311       0   52313   52314   52314       0   52316   52317   52317       0
   52319   52320   52320       0   52322   52323   52323       0   52325   52326
   52326       0   52328   52329   52329       0   52331   52332   52332       0
   52334   52335   52335       0   52337   52338   52338       0   52340   52341
   52341       0   52343   52344   52344       0   52346   52347   52347       0
   52349   52350   52350       0   52352   52353   52353       0   52355   52356
   52356       0   52358   52359   52359       0   52361   52362   52362       0
   52364   52365   52365       0   52367   52368   52368       0   52370   52371
   52371       0   52373   52374   52374       0   52376   52377   52377       0
   52379   52380   52380       0   52382   52383   52383       0   52385   52386
   52386       0   52388   52389   52389       0   52391   52392   52392       0
   52394   52395   52395       0   52397   52398   52398       0   52400   52401
   52401       0   52403   52404   52404       0   52406   52407   52407       0
   52409   52410   52410       0   52412   52413   52413       0   52415   52416
   52416       0   52418   52419   52419       0   52421   52422   52422       0
   52424   52425   52425       0   52427   52428   52428       0   52430   52431
   52431       0   52433   52434   52434       0   52436   52437   52437       0
   52439   52440   52440       0   52442   52443   52443       0   52445   52446
   52446       0   52448   52449   52449       0   52451   52452   52452       0
   52454   52455   52455       0   52457   52458   52458       0   52460   52461
   52461       0   52463   52464   52464       0   52466   52467   52467       0
   52469   52470   52470       0   52472   52473   52473       0   52475   52476
   52476       0   52478   52479   52479       0   52481   52482   52482       0
   52484   52485   52485       0   52487   52488   52488       0   52490   52491
   52491       0   52493   52494   52494       0   52496   52497   52497       0
   52499   52500   52500       0   52502   52503   52503       0   52505   52506
   52506       0   52508   52509   52509       0   52511   52512   52512       0
   52514   52515   52515       0   52517   52518   52518       0   52520   52521
   52521       0   52523   52524   52524       0   52526   52527   52527       0
   52529   52530   52530       0   52532   52533   52533       0   52535   52536
   52536       0   52538   52539   52539       0   52541   52542   52542       0
   52544   52545   52545       0   52547   52548   52548       0   52550   52551
   52551       0   52553   52554   52554       0   52556   52557   52557       0
   52559   52560   52560       0   52562   52563   52563       0   52565   52566
   52566       0   52568   52569   52569       0   52571   52572   52572       0
   52574   52575   52575       0   52577   52578   52578       0   52580   52581
   52581       0   52583   52584   52584       0   52586   52587   52587       0
   52589   52590   52590       0   52592   52593   52593       0   52595   52596
   52596       0   52598   52599   52599       0   52601   52602   52602       0
   52604   52605   52605       0   52607   52608   52608       0   52610   52611
   52611       0   52613   52614   52614       0   52616   52617   52617       0
   52619   52620   52620       0   52622   52623   52623       0   52625   52626
   52626       0   52628   52629   52629       0   52631   52632   52632       0
   52634   52635   52635       0   52637   52638   52638       0   52640   52641
   52641       0   52643   52644   52644       0   52646   52647   52647       0
   52649   52650   52650       0   52652   52653   52653       0   52655   52656
   52656       0   52658   52659   52659       0   52661   52662   52662       0
   52664   52665   52665       0   52667   52668   52668       0   52670   52671
   52671       0   52673   52674   52674       0   52676   52677   52677       0
   52679   52680   52680       0   52682   52683   52683       0   52685   52686
   52686       0   52688   52689   52689       0   52691   52692   52692       0
   52694   52695   52695       0   52697   52698   52698       0   52700   52701
   52701       0   52703   52704   52704       0   52706   52707   52707       0
   52709   52710   52710       0   52712   52713   52713       0   52715   52716
   52716       0   52718   52719   52719       0   52721   52722   52722       0
   52724   52725   52725       0   52727   52728   52728       0   52730   52731
   52731       0   52733   52734   52734       0   52736   52737   52737       0
   52739   52740   52740       0   52742   52743   52743       0   52745   52746
   52746       0   52748   52749   52749       0   52751   52752   52752       0
   52754   52755   52755       0   52757   52758   52758       0   52760   52761
   52761       0   52763   52764   52764       0   52766   52767   52767       0
   52769   52770   52770       0   52772   52773   52773       0   52775   52776
   52776       0   52778   52779   52779       0   52781   52782   52782       0
   52784   52785   52785       0   52787   52788   52788       0   52790   52791
   52791       0   52793   52794   52794       0   52796   52797   52797       0
   52799   52800   52800       0   52802   52803   52803       0   52805   52806
   52806       0   52808   52809   52809       0   52811   52812   52812       0
   52814   52815   52815       0   52817   52818   52818       0   52820   52821
   52821       0   52823   52824   52824       0   52826   52827   52827       0
   52829   52830   52830       0   52832   52833   52833       0   52835   52836
   52836       0   52838   52839   52839       0   52841   52842   52842       0
   52844   52845   52845       0   52847   52848   52848       0   52850   52851
   52851       0   52853   52854   52854       0   52856   52857   52857       0
   52859   52860   52860       0   52862   52863   52863       0   52865   52866
   52866       0   52868   52869   52869       0   52871   52872   52872       0
   52874   52875   52875       0   52877   52878   52878       0   52880   52881
   52881       0   52883   52884   52884       0   52886   52887   52887       0
   52889   52890   52890       0   52892   52893   52893       0   52895   52896
   52896       0   52898   52899   52899       0   52901   52902   52902       0
   52904   52905   52905       0   52907   52908   52908       0   52910   52911
   52911       0   52913   52914   52914       0   52916   52917   52917       0
   52919   52920   52920       0   52922   52923   52923       0   52925   52926
   52926       0   52928   52929   52929       0   52931   52932   52932       0
   52934   52935   52935       0   52937   52938   52938       0   52940   52941
   52941       0   52943   52944   52944       0   52946   52947   52947       0
   52949   52950   52950       0   52952   52953   52953       0   52955   52956
   52956       0   52958   52959   52959       0   52961   52962   52962       0
   52964   52965   52965       0   52967   52968   52968       0   52970   52971
   52971       0   52973   52974   52974       0   52976   52977   52977       0
   52979   52980   52980       0   52982   52983   52983       0   52985   52986
   52986       0   52988   52989   52989       0   52991   52992   52992       0
   52994   52995   52995       0   52997   52998   52998       0   53000   53001
   53001       0   53003   53004   53004       0   53006   53007   53007       0
   53009   53010   53010       0   53012   53013   53013       0   53015   53016
   53016       0   53018   53019   53019       0   53021   53022   53022       0
   53024   53025   53025       0   53027   53028   53028       0   53030   53031
   53031       0   53033   53034   53034       0   53036   53037   53037       0
   53039   53040   53040       0   53042   53043   53043       0   53045   53046
   53046       0   53048   53049   53049       0   53051   53052   53052       0
   53054   53055   53055       0   53057   53058   53058       0   53060   53061
   53061       0   53063   53064   53064       0   53066   53067   53067       0
   53069   53070   53070       0   53072   53073   53073       0   53075   53076
   53076       0   53078   53079   53079       0   53081   53082   53082       0
   53084   53085   53085       0   53087   53088   53088       0   53090   53091
   53091       0   53093   53094   53094       0   53096   53097   53097       0
   53099   53100   53100       0   53102   53103   53103       0   53105   53106
   53106       0   53108   53109   53109       0   53111   53112   53112       0
   53114   53115   53115       0   53117   53118   53118       0   53120   53121
   53121       0   53123   53124   53124       0   53126   53127   53127       0
   53129   53130   53130       0   53132   53133   53133       0   53135   53136
   53136       0   53138   53139   53139       0   53141   53142   53142       0
   53144   53145   53145       0   53147   53148   53148       0   53150   53151
   53151       0   53153   53154   53154       0   53156   53157   53157       0
   53159   53160   53160       0   53162   53163   53163       0   53165   53166
   53166       0   53168   53169   53169       0   53171   53172   53172       0
   53174   53175   53175       0   53177   53178   53178       0   53180   53181
   53181       0   53183   53184   53184       0   53186   53187   53187       0
   53189   53190   53190       0   53192   53193   53193       0   53195   53196
   53196       0   53198   53199   53199       0   53201   53202   53202       0
   53204   53205   53205       0   53207   53208   53208       0   53210   53211
   53211       0   53213   53214   53214       0   53216   53217   53217       0
   53219   53220   53220       0   53222   53223   53223       0   53225   53226
   53226       0   53228   53229   53229       0   53231   53232   53232       0
   53234   53235   53235       0   53237   53238   53238       0   53240   53241
   53241       0   53243   53244   53244       0   53246   53247   53247       0
   53249   53250   53250       0   53252   53253   53253       0   53255   53256
   53256       0   53258   53259   53259       0   53261   53262   53262       0
   53264   53265   53265       0   53267   53268   53268       0   53270   53271
   53271       0   53273   53274   53274       0   53276   53277   53277       0
   53279   53280   53280       0   53282   53283   53283       0   53285   53286
   53286       0   53288   53289   53289       0   53291   53292   53292       0
   53294   53295   53295       0   53297   53298   53298       0   53300   53301
   53301       0   53303   53304   53304       0   53306   53307   53307       0
   53309   53310   53310       0   53312   53313   53313       0   53315   53316
   53316       0   53318   53319   53319       0   53321   53322   53322       0
   53324   53325   53325       0   53327   53328   53328       0   53330   53331
   53331       0   53333   53334   53334       0   53336   53337   53337       0
   53339   53340   53340       0   53342   53343   53343       0   53345   53346
   53346       0   53348   53349   53349       0   53351   53352   53352       0
   53354   53355   53355       0   53357   53358   53358       0   53360   53361
   53361       0   53363   53364   53364       0   53366   53367   53367       0
   53369   53370   53370       0   53372   53373   53373       0   53375   53376
   53376       0   53378   53379   53379       0   53381   53382   53382       0
   53384   53385   53385       0   53387   53388   53388       0   53390   53391
   53391       0   53393   53394   53394       0   53396   53397   53397       0
   53399   53400   53400       0   53402   53403   53403       0   53405   53406
   53406       0   53408   53409   53409       0   53411   53412   53412       0
   53414   53415   53415       0   53417   53418   53418       0   53420   53421
   53421       0   53423   53424   53424       0   53426   53427   53427       0
   53429   53430   53430       0   53432   53433   53433       0   53435   53436
   53436       0   53438   53439   53439       0   53441   53442   53442       0
   53444   53445   53445       0   53447   53448   53448       0   53450   53451
   53451       0   53453   53454   53454       0   53456   53457   53457       0
   53459   53460   53460       0   53462   53463   53463       0   53465   53466
   53466       0   53468   53469   53469       0   53471   53472   53472       0
   53474   53475   53475       0   53477   53478   53478       0   53480   53481
   53481       0   53483   53484   53484       0   53486   53487   53487       0
   53489   53490   53490       0   53492   53493   53493       0   53495   53496
   53496       0   53498   53499   53499       0   53501   53502   53502       0
   53504   53505   53505       0   53507   53508   53508       0   53510   53511
   53511       0   53513   53514   53514       0   53516   53517   53517       0
   53519   53520   53520       0   53522   53523   53523       0   53525   53526
   53526       0
%FLAG HBOND_ACOEF                                                               
%FORMAT(5E16.8)                                                                 

%FLAG HBOND_BCOEF                                                               
%FORMAT(5E16.8)                                                                 

%FLAG HBCUT                                                                     
%FORMAT(5E16.8)                                                                 

%FLAG AMBER_ATOM_TYPE                                                           
%FORMAT(20a4)                                                                   
HC  CT  HC  HC  C   O   N   H   CX  H1  CT  HC  HC  CT  HC  HC  C   O   N   H   
H   C   O   N   H   CX  H1  CT  H1  H1  S   C   O   N   H   CX  H1  CT  H1  H1  
S   C   O   N   H   CX  H1  CT  H1  CT  HC  HC  HC  OH  HO  C   O   N   H   CX  
H1  CT  H1  H1  OH  HO  C   O   N   H   CX  H1  CT  HC  CT  HC  HC  HC  CT  HC  
HC  CT  HC  HC  HC  C   O   N   H   CX  H1  CT  H1  H1  S   C   O   N   H   CX  
H1  CT  H1  H1  OH  HO  C   O   N   H   CX  H1  CT  HC  HC  CT  HC  CT  HC  HC  
HC  CT  HC  HC  HC  C   O   N   H   CX  H1  CT  HC  HC  CA  CA  HA  CA  HA  C   
OH  HO  CA  HA  CA  HA  C   O   N   H   CX  H1  CT  HC  HC  CT  HC  HC  C   O   
N   H   H   C   O   N   H   CX  H1  CT  HC  HC  CT  HC  CT  HC  HC  HC  CT  HC  
HC  HC  C   O   N   H   CX  H1  CT  HC  HC  CT  HC  HC  C   OH  OH  HO  C   O   
HO  HO  HO  N   H   CX  H1  CT  HC  HC  C   O   N   H   H   C   O   N   H   CX  
H1  CT  HC  HC  CA  CA  HA  CA  HA  C   OH  HO  CA  HA  CA  HA  C   O   N   H   
CX  H1  CT  H1  H1  S   C   O   N   H   CT  H1  H1  H1  HC  CT  HC  HC  C   O   
N   H   CX  H1  CT  HC  HC  CC  NA  H   CR  H5  NA  H   CW  H4  C   O   N   H   
CX  H1  CT  HC  HC  CT  HC  CT  HC  HC  HC  CT  HC  HC  HC  C   O   N   H   CX  
H1  CT  H1  H1  S   C   O   N   H   CX  H1  H1  C   O   N   H   CX  H1  CT  H1  
H1  OH  HO  C   O   N   H   CX  H1  CT  HC  HC  CC  NA  H   CR  H5  NA  H   CW  
H4  C   O   N   H   CX  H1  CT  HC  HC  CT  HC  CT  HC  HC  HC  CT  HC  HC  HC  
C   O   N   H   CX  H1  CT  HC  CT  HC  HC  HC  CT  HC  HC  HC  C   O   N   H   
CX  H1  CT  HC  HC  CT  HC  HC  C   OH  OH  HO  C   O   HO  HO  HO  N   H   CX  
H1  CT  HC  HC  HC  C   O   N   H   CX  H1  CT  HC  HC  CT  HC  CT  HC  HC  HC  
CT  HC  HC  HC  C   O   N   H   CX  H1  CT  HC  HC  CA  CA  HA  CA  HA  C   OH  
HO  CA  HA  CA  HA  C   O   N   H   CX  H1  CT  HC  HC  CT  HC  CT  HC  HC  HC  
CT  HC  HC  HC  C   O   N   H   CX  H1  CT  HC  CT  HC  HC  HC  CT  HC  HC  HC  
C   O   N   H   CX  H1  CT  H1  H1  S   C   O   N   H   CX  H1  H1  C   O   N   
H   CX  H1  CT  HC  HC  CT  HC  HC  C   OH  OH  HO  C   O   HO  HO  HO  N   H   
CX  H1  CT  HC  HC  CT  HC  HC  CT  H1  H1  N2  H   CA  N2  H   H   N2  H   H   
C   O   N   H   CX  H1  H1  C   O   N   H   CX  H1  CT  HC  HC  CA  CA  HA  CA  
HA  CA  HA  CA  HA  CA  HA  C   O   N   H   CX  H1  CT  HC  HC  CA  CA  HA  CA  
HA  CA  HA  CA  HA  CA  HA  C   O   N   H   CX  H1  CT  HC  HC  CA  CA  HA  CA  
HA  C   OH  HO  CA  HA  CA  HA  C   O   N   H   CX  H1  CT  H1  CT  HC  HC  HC  
OH  HO  C   O   N   H   CT  H1  H1  H1  HC  CT  HC  HC  C   O   N   H   CX  H1  
CT  HC  HC  CT  HC  HC  C   O   N   H   H   C   O   N   H   CX  H1  CT  H1  H1  
S   C   O   N   H   CX  H1  CT  H1  H1  S   C   O   N   H   CX  H1  CT  H1  CT  
HC  HC  HC  OH  HO  C   O   N   H   CX  H1  CT  H1  H1  OH  HO  C   O   N   H   
CX  H1  CT  HC  CT  HC  HC  HC  CT  HC  HC  CT  HC  HC  HC  C   O   N   H   CX  
H1  CT  H1  H1  S   C   O   N   H   CX  H1  CT  H1  H1  OH  HO  C   O   N   H   
CX  H1  CT  HC  HC  CT  HC  CT  HC  HC  HC  CT  HC  HC  HC  C   O   N   H   CX  
H1  CT  HC  HC  CA  CA  HA  CA  HA  C   OH  HO  CA  HA  CA  HA  C   O   N   H   
CX  H1  CT  HC  HC  CT  HC  HC  C   O   N   H   H   C   O   N   H   CX  H1  CT  
HC  HC  CT  HC  CT  HC  HC  HC  CT  HC  HC  HC  C   O   N   H   CX  H1  CT  HC  
HC  CT  HC  HC  C   OH  OH  HO  C   O   HO  HO  HO  N   H   CX  H1  CT  HC  HC  
C   O   N   H   H   C   O   N   H   CX  H1  CT  HC  HC  CA  CA  HA  CA  HA  C   
OH  HO  CA  HA  CA  HA  C   O   N   H   CX  H1  CT  H1  H1  S   C   O   N   H   
CT  H1  H1  H1  HC  CT  HC  HC  C   O   N   H   CX  H1  CT  HC  HC  CC  NA  H   
CR  H5  NA  H   CW  H4  C   O   N   H   CX  H1  CT  HC  HC  CT  HC  CT  HC  HC  
HC  CT  HC  HC  HC  C   O   N   H   CX  H1  CT  H1  H1  S   C   O   N   H   CX  
H1  H1  C   O   N   H   CX  H1  CT  H1  H1  OH  HO  C   O   N   H   CX  H1  CT  
HC  HC  CC  NA  H   CR  H5  NA  H   CW  H4  C   O   N   H   CX  H1  CT  HC  HC  
CT  HC  CT  HC  HC  HC  CT  HC  HC  HC  C   O   N   H   CX  H1  CT  HC  CT  HC  
HC  HC  CT  HC  HC  HC  C   O   N   H   CX  H1  CT  HC  HC  CT  HC  HC  C   OH  
OH  HO  C   O   HO  HO  HO  N   H   CX  H1  CT  HC  HC  HC  C   O   N   H   CX  
H1  CT  HC  HC  CT  HC  CT  HC  HC  HC  CT  HC  HC  HC  C   O   N   H   CX  H1  
CT  HC  HC  CA  CA  HA  CA  HA  C   OH  HO  CA  HA  CA  HA  C   O   N   H   CX  
H1  CT  HC  HC  CT  HC  CT  HC  HC  HC  CT  HC  HC  HC  C   O   N   H   CX  H1  
CT  HC  CT  HC  HC  HC  CT  HC  HC  HC  C   O   N   H   CX  H1  CT  H1  H1  S   
C   O   N   H   CX  H1  H1  C   O   N   H   CX  H1  CT  HC  HC  CT  HC  HC  C   
OH  OH  HO  C   O   HO  HO  HO  N   H   CX  H1  CT  HC  HC  CT  HC  HC  CT  H1  
H1  N2  H   CA  N2  H   H   N2  H   H   C   O   N   H   CX  H1  H1  C   O   N   
H   CX  H1  CT  HC  HC  CA  CA  HA  CA  HA  CA  HA  CA  HA  CA  HA  C   O   N   
H   CX  H1  CT  HC  HC  CA  CA  HA  CA  HA  CA  HA  CA  HA  CA  HA  C   O   N   
H   CX  H1  CT  HC  HC  CA  CA  HA  CA  HA  C   OH  HO  CA  HA  CA  HA  C   O   
N   H   CX  H1  CT  H1  CT  HC  HC  HC  OH  HO  C   O   N   H   CT  H1  H1  H1  
HC  CT  HC  HC  C   O   N   H   CX  H1  CT  HC  HC  CT  HC  HC  C   O   N   H   
H   C   O   N   H   CX  H1  CT  H1  H1  S   C   O   N   H   CX  H1  CT  H1  H1  
S   C   O   N   H   CX  H1  CT  H1  CT  HC  HC  HC  OH  HO  C   O   N   H   CX  
H1  CT  H1  H1  OH  HO  C   O   N   H   CX  H1  CT  HC  CT  HC  HC  HC  CT  HC  
HC  CT  HC  HC  HC  C   O   N   H   CX  H1  CT  H1  H1  S   C   O   N   H   CX  
H1  CT  H1  H1  OH  HO  C   O   N   H   CX  H1  CT  HC  HC  CT  HC  CT  HC  HC  
HC  CT  HC  HC  HC  C   O   N   H   CX  H1  CT  HC  HC  CA  CA  HA  CA  HA  C   
OH  HO  CA  HA  CA  HA  C   O   N   H   CX  H1  CT  HC  HC  CT  HC  HC  C   O   
N   H   H   C   O   N   H   CX  H1  CT  HC  HC  CT  HC  CT  HC  HC  HC  CT  HC  
HC  HC  C   O   N   H   CX  H1  CT  HC  HC  CT  HC  HC  C   OH  OH  HO  C   O   
HO  HO  HO  N   H   CX  H1  CT  HC  HC  C   O   N   H   H   C   O   N   H   CX  
H1  CT  HC  HC  CA  CA  HA  CA  HA  C   OH  HO  CA  HA  CA  HA  C   O   N   H   
CX  H1  CT  H1  H1  S   C   O   N   H   CT  H1  H1  H1  HC  CT  HC  HC  C   O   
N   H   CX  H1  CT  HC  HC  CC  NA  H   CR  H5  NA  H   CW  H4  C   O   N   H   
CX  H1  CT  HC  HC  CT  HC  CT  HC  HC  HC  CT  HC  HC  HC  C   O   N   H   CX  
H1  CT  H1  H1  S   C   O   N   H   CX  H1  H1  C   O   N   H   CX  H1  CT  H1  
H1  OH  HO  C   O   N   H   CX  H1  CT  HC  HC  CC  NA  H   CR  H5  NA  H   CW  
H4  C   O   N   H   CX  H1  CT  HC  HC  CT  HC  CT  HC  HC  HC  CT  HC  HC  HC  
C   O   N   H   CX  H1  CT  HC  CT  HC  HC  HC  CT  HC  HC  HC  C   O   N   H   
CX  H1  CT  HC  HC  CT  HC  HC  C   OH  OH  HO  C   O   HO  HO  HO  N   H   CX  
H1  CT  HC  HC  HC  C   O   N   H   CX  H1  CT  HC  HC  CT  HC  CT  HC  HC  HC  
CT  HC  HC  HC  C   O   N   H   CX  H1  CT  HC  HC  CA  CA  HA  CA  HA  C   OH  
HO  CA  HA  CA  HA  C   O   N   H   CX  H1  CT  HC  HC  CT  HC  CT  HC  HC  HC  
CT  HC  HC  HC  C   O   N   H   CX  H1  CT  HC  CT  HC  HC  HC  CT  HC  HC  HC  
C   O   N   H   CX  H1  CT  H1  H1  S   C   O   N   H   CX  H1  H1  C   O   N   
H   CX  H1  CT  HC  HC  CT  HC  HC  C   OH  OH  HO  C   O   HO  HO  HO  N   H   
CX  H1  CT  HC  HC  CT  HC  HC  CT  H1  H1  N2  H   CA  N2  H   H   N2  H   H   
C   O   N   H   CX  H1  H1  C   O   N   H   CX  H1  CT  HC  HC  CA  CA  HA  CA  
HA  CA  HA  CA  HA  CA  HA  C   O   N   H   CX  H1  CT  HC  HC  CA  CA  HA  CA  
HA  CA  HA  CA  HA  CA  HA  C   O   N   H   CX  H1  CT  HC  HC  CA  CA  HA  CA  
HA  C   OH  HO  CA  HA  CA  HA  C   O   N   H   CX  H1  CT  H1  CT  HC  HC  HC  
OH  HO  C   O   N   H   CT  H1  H1  H1  HC  CT  HC  HC  C   O   N   H   CX  H1  
CT  HC  HC  CT  HC  HC  C   O   N   H   H   C   O   N   H   CX  H1  CT  H1  H1  
S   C   O   N   H   CX  H1  CT  H1  H1  S   C   O   N   H   CX  H1  CT  H1  CT  
HC  HC  HC  OH  HO  C   O   N   H   CX  H1  CT  H1  H1  OH  HO  C   O   N   H   
CX  H1  CT  HC  CT  HC  HC  HC  CT  HC  HC  CT  HC  HC  HC  C   O   N   H   CX  
H1  CT  H1  H1  S   C   O   N   H   CX  H1  CT  H1  H1  OH  HO  C   O   N   H   
CX  H1  CT  HC  HC  CT  HC  CT  HC  HC  HC  CT  HC  HC  HC  C   O   N   H   CX  
H1  CT  HC  HC  CA  CA  HA  CA  HA  C   OH  HO  CA  HA  CA  HA  C   O   N   H   
CX  H1  CT  HC  HC  CT  HC  HC  C   O   N   H   H   C   O   N   H   CX  H1  CT  
HC  HC  CT  HC  CT  HC  HC  HC  CT  HC  HC  HC  C   O   N   H   CX  H1  CT  HC  
HC  CT  HC  HC  C   OH  OH  HO  C   O   HO  HO  HO  N   H   CX  H1  CT  HC  HC  
C   O   N   H   H   C   O   N   H   CX  H1  CT  HC  HC  CA  CA  HA  CA  HA  C   
OH  HO  CA  HA  CA  HA  C   O   N   H   CX  H1  CT  H1  H1  S   C   O   N   H   
CT  H1  H1  H1  HC  CT  HC  HC  C   O   N   H   CX  H1  CT  HC  HC  CC  NA  H   
CR  H5  NA  H   CW  H4  C   O   N   H   CX  H1  CT  HC  HC  CT  HC  CT  HC  HC  
HC  CT  HC  HC  HC  C   O   N   H   CX  H1  CT  H1  H1  S   C   O   N   H   CX  
H1  H1  C   O   N   H   CX  H1  CT  H1  H1  OH  HO  C   O   N   H   CX  H1  CT  
HC  HC  CC  NA  H   CR  H5  NA  H   CW  H4  C   O   N   H   CX  H1  CT  HC  HC  
CT  HC  CT  HC  HC  HC  CT  HC  HC  HC  C   O   N   H   CX  H1  CT  HC  CT  HC  
HC  HC  CT  HC  HC  HC  C   O   N   H   CX  H1  CT  HC  HC  CT  HC  HC  C   OH  
OH  HO  C   O   HO  HO  HO  N   H   CX  H1  CT  HC  HC  HC  C   O   N   H   CX  
H1  CT  HC  HC  CT  HC  CT  HC  HC  HC  CT  HC  HC  HC  C   O   N   H   CX  H1  
CT  HC  HC  CA  CA  HA  CA  HA  C   OH  HO  CA  HA  CA  HA  C   O   N   H   CX  
H1  CT  HC  HC  CT  HC  CT  HC  HC  HC  CT  HC  HC  HC  C   O   N   H   CX  H1  
CT  HC  CT  HC  HC  HC  CT  HC  HC  HC  C   O   N   H   CX  H1  CT  H1  H1  S   
C   O   N   H   CX  H1  H1  C   O   N   H   CX  H1  CT  HC  HC  CT  HC  HC  C   
OH  OH  HO  C   O   HO  HO  HO  N   H   CX  H1  CT  HC  HC  CT  HC  HC  CT  H1  
H1  N2  H   CA  N2  H   H   N2  H   H   C   O   N   H   CX  H1  H1  C   O   N   
H   CX  H1  CT  HC  HC  CA  CA  HA  CA  HA  CA  HA  CA  HA  CA  HA  C   O   N   
H   CX  H1  CT  HC  HC  CA  CA  HA  CA  HA  CA  HA  CA  HA  CA  HA  C   O   N   
H   CX  H1  CT  HC  HC  CA  CA  HA  CA  HA  C   OH  HO  CA  HA  CA  HA  C   O   
N   H   CX  H1  CT  H1  CT  HC  HC  HC  OH  HO  C   O   N   H   CT  H1  H1  H1  
OW  HW  HW  OW  HW  HW  OW  HW  HW  OW  HW  HW  OW  HW  HW  OW  HW  HW  OW  HW  
HW  OW  HW  HW  OW  HW  HW  OW  HW  HW  OW  HW  HW  OW  HW  HW  OW  HW  HW  OW  
HW  HW  OW  HW  HW  OW  HW  HW  OW  HW  HW  OW  HW  HW  OW  HW  HW  OW  HW  HW  
OW  HW  HW  OW  HW  HW  OW  HW  HW  OW  HW  HW  OW  HW  HW  OW  HW  HW  OW  HW  
HW  OW  HW  HW  OW  HW  HW  OW  HW  HW  OW  HW  HW  OW  HW  HW  OW  HW  HW  OW  
HW  HW  OW  HW  HW  OW  HW  HW  OW  HW  HW  OW  HW  HW  OW  HW  HW  OW  HW  HW  
OW  HW  HW  OW  HW  HW  OW  HW  HW  OW  HW  HW  OW  HW  HW  OW  HW  HW  OW  HW  
HW  OW  HW  HW  OW  HW  HW  OW  HW  HW  OW  HW  HW  OW  HW  HW  OW  HW  HW  OW  
HW  HW  OW  HW  HW  OW  HW  HW  OW  HW  HW  OW  HW  HW  OW  HW  HW  OW  HW  HW  
OW  HW  HW  OW  HW  HW  OW  HW  HW  OW  HW  HW  OW  HW  HW  OW  HW  HW  OW  HW  
HW  OW  HW  HW  OW  HW  HW  OW  HW  HW  OW  HW  HW  OW  HW  HW  OW  HW  HW  OW  
HW  HW  OW  HW  HW  OW  HW  HW  OW  HW  HW  OW  HW  HW  OW  HW  HW  OW  HW  HW  
OW  HW  HW  OW  HW  HW  OW  HW  HW  OW  HW  HW  OW  HW  HW  OW  HW  HW  OW  HW  
HW  OW  HW  HW  OW  HW  HW  OW  HW  HW  OW  HW  HW  OW  HW  HW  OW  HW  HW  OW  
HW  HW  OW  HW  HW  OW  HW  HW  OW  HW  HW  OW  HW  HW  OW  HW  HW  OW  HW  HW  
OW  HW  HW  OW  HW  HW  OW  HW  HW  OW  HW  HW  OW  HW  HW  OW  HW  HW  OW  HW  
HW  OW  HW  HW  OW  HW  HW  OW  HW  HW  OW  HW  HW  OW  HW  HW  OW  HW  HW  OW  
HW  HW  OW  HW  HW  OW  HW  HW  OW  HW  HW  OW  HW  HW  OW  HW  HW  OW  HW  HW  
OW  HW  HW  OW  HW  HW  OW  HW  HW  OW  HW  HW  OW  HW  HW  OW  HW  HW  OW  HW  
HW  OW  HW  HW  OW  HW  HW  OW  HW  HW  OW  HW  HW  OW  HW  HW  OW  HW  HW  OW  
HW  HW  OW  HW  HW  OW  HW  HW  OW  HW  HW  OW  HW  HW  OW  HW  HW  OW  HW  HW  
OW  HW  HW  OW  HW  HW  OW  HW  HW  OW  HW  HW  OW  HW  HW  OW  HW  HW  OW  HW  
HW  OW  HW  HW  OW  HW  HW  OW  HW  HW  OW  HW  HW  OW  HW  HW  OW  HW  HW  OW  
HW  HW  OW  HW  HW  OW  HW  HW  OW  HW  HW  OW  HW  HW  OW  HW  HW  OW  HW  HW  
OW  HW  HW  OW  HW  HW  OW  HW  HW  OW  HW  HW  OW  HW  HW  OW  HW  HW  OW  HW  
HW  OW  HW  HW  OW  HW  HW  OW  HW  HW  OW  HW  HW  OW  HW  HW  OW  HW  HW  OW  
HW  HW  OW  HW  HW  OW  HW  HW  OW  HW  HW  OW  HW  HW  OW  HW  HW  OW  HW  HW  
OW  HW  HW  OW  HW  HW  OW  HW  HW  OW  HW  HW  OW  HW  HW  OW  HW  HW  OW  HW  
HW  OW  HW  HW  OW  HW  HW  OW  HW  HW  OW  HW  HW  OW  HW  HW  OW  HW  HW  OW  
HW  HW  OW  HW  HW  OW  HW  HW  OW  HW  HW  OW  HW  HW  OW  HW  HW  OW  HW  HW  
OW  HW  HW  OW  HW  HW  OW  HW  HW  OW  HW  HW  OW  HW  HW  OW  HW  HW  OW  HW  
HW  OW  HW  HW  OW  HW  HW  OW  HW  HW  OW  HW  HW  OW  HW  HW  OW  HW  HW  OW  
HW  HW  OW  HW  HW  OW  HW  HW  OW  HW  HW  OW  HW  HW  OW  HW  HW  OW  HW  HW  
OW  HW  HW  OW  HW  HW  OW  HW  HW  OW  HW  HW  OW  HW  HW  OW  HW  HW  OW  HW  
HW  OW  HW  HW  OW  HW  HW  OW  HW  HW  OW  HW  HW  OW  HW  HW  OW  HW  HW  OW  
HW  HW  OW  HW  HW  OW  HW  HW  OW  HW  HW  OW  HW  HW  OW  HW  HW  OW  HW  HW  
OW  HW  HW  OW  HW  HW  OW  HW  HW  OW  HW  HW  OW  HW  HW  OW  HW  HW  OW  HW  
HW  OW  HW  HW  OW  HW  HW  OW  HW  HW  OW  HW  HW  OW  HW  HW  OW  HW  HW  OW  
HW  HW  OW  HW  HW  OW  HW  HW  OW  HW  HW  OW  HW  HW  OW  HW  HW  OW  HW  HW  
OW  HW  HW  OW  HW  HW  OW  HW  HW  OW  HW  HW  OW  HW  HW  OW  HW  HW  OW  HW  
HW  OW  HW  HW  OW  HW  HW  OW  HW  HW  OW  HW  HW  OW  HW  HW  OW  HW  HW  OW  
HW  HW  OW  HW  HW  OW  HW  HW  OW  HW  HW  OW  HW  HW  OW  HW  HW  OW  HW  HW  
OW  HW  HW  OW  HW  HW  OW  HW  HW  OW  HW  HW  OW  HW  HW  OW  HW  HW  OW  HW  
HW  OW  HW  HW  OW  HW  HW  OW  HW  HW  OW  HW  HW  OW  HW  HW  OW  HW  HW  OW  
HW  HW  OW  HW  HW  OW  HW  HW  OW  HW  HW  OW  HW  HW  OW  HW  HW  OW  HW  HW  
OW  HW  HW  OW  HW  HW  OW  HW  HW  OW  HW  HW  OW  HW  HW  OW  HW  HW  OW  HW  
HW  OW  HW  HW  OW  HW  HW  OW  HW  HW  OW  HW  HW  OW  HW  HW  OW  HW  HW  OW  
HW  HW  OW  HW  HW  OW  HW  HW  OW  HW  HW  OW  HW  HW  OW  HW  HW  OW  HW  HW  
OW  HW  HW  OW  HW  HW  OW  HW  HW  OW  HW  HW  OW  HW  HW  OW  HW  HW  OW  HW  
HW  OW  HW  HW  OW  HW  HW  OW  HW  HW  OW  HW  HW  OW  HW  HW  OW  HW  HW  OW  
HW  HW  OW  HW  HW  OW  HW  HW  OW  HW  HW  OW  HW  HW  OW  HW  HW  OW  HW  HW  
OW  HW  HW  OW  HW  HW  OW  HW  HW  OW  HW  HW  OW  HW  HW  OW  HW  HW  OW  HW  
HW  OW  HW  HW  OW  HW  HW  OW  HW  HW  OW  HW  HW  OW  HW  HW  OW  HW  HW  OW  
HW  HW  OW  HW  HW  OW  HW  HW  OW  HW  HW  OW  HW  HW  OW  HW  HW  OW  HW  HW  
OW  HW  HW  OW  HW  HW  OW  HW  HW  OW  HW  HW  OW  HW  HW  OW  HW  HW  OW  HW  
HW  OW  HW  HW  OW  HW  HW  OW  HW  HW  OW  HW  HW  OW  HW  HW  OW  HW  HW  OW  
HW  HW  OW  HW  HW  OW  HW  HW  OW  HW  HW  OW  HW  HW  OW  HW  HW  OW  HW  HW  
OW  HW  HW  OW  HW  HW  OW  HW  HW  OW  HW  HW  OW  HW  HW  OW  HW  HW  OW  HW  
HW  OW  HW  HW  OW  HW  HW  OW  HW  HW  OW  HW  HW  OW  HW  HW  OW  HW  HW  OW  
HW  HW  OW  HW  HW  OW  HW  HW  OW  HW  HW  OW  HW  HW  OW  HW  HW  OW  HW  HW  
OW  HW  HW  OW  HW  HW  OW  HW  HW  OW  HW  HW  OW  HW  HW  OW  HW  HW  OW  HW  
HW  OW  HW  HW  OW  HW  HW  OW  HW  HW  OW  HW  HW  OW  HW  HW  OW  HW  HW  OW  
HW  HW  OW  HW  HW  OW  HW  HW  OW  HW  HW  OW  HW  HW  OW  HW  HW  OW  HW  HW  
OW  HW  HW  OW  HW  HW  OW  HW  HW  OW  HW  HW  OW  HW  HW  OW  HW  HW  OW  HW  
HW  OW  HW  HW  OW  HW  HW  OW  HW  HW  OW  HW  HW  OW  HW  HW  OW  HW  HW  OW  
HW  HW  OW  HW  HW  OW  HW  HW  OW  HW  HW  OW  HW  HW  OW  HW  HW  OW  HW  HW  
OW  HW  HW  OW  HW  HW  OW  HW  HW  OW  HW  HW  OW  HW  HW  OW  HW  HW  OW  HW  
HW  OW  HW  HW  OW  HW  HW  OW  HW  HW  OW  HW  HW  OW  HW  HW  OW  HW  HW  OW  
HW  HW  OW  HW  HW  OW  HW  HW  OW  HW  HW  OW  HW  HW  OW  HW  HW  OW  HW  HW  
OW  HW  HW  OW  HW  HW  OW  HW  HW  OW  HW  HW  OW  HW  HW  OW  HW  HW  OW  HW  
HW  OW  HW  HW  OW  HW  HW  OW  HW  HW  OW  HW  HW  OW  HW  HW  OW  HW  HW  OW  
HW  HW  OW  HW  HW  OW  HW  HW  OW  HW  HW  OW  HW  HW  OW  HW  HW  OW  HW  HW  
OW  HW  HW  OW  HW  HW  OW  HW  HW  OW  HW  HW  OW  HW  HW  OW  HW  HW  OW  HW  
HW  OW  HW  HW  OW  HW  HW  OW  HW  HW  OW  HW  HW  OW  HW  HW  OW  HW  HW  OW  
HW  HW  OW  HW  HW  OW  HW  HW  OW  HW  HW  OW  HW  HW  OW  HW  HW  OW  HW  HW  
OW  HW  HW  OW  HW  HW  OW  HW  HW  OW  HW  HW  OW  HW  HW  OW  HW  HW  OW  HW  
HW  OW  HW  HW  OW  HW  HW  OW  HW  HW  OW  HW  HW  OW  HW  HW  OW  HW  HW  OW  
HW  HW  OW  HW  HW  OW  HW  HW  OW  HW  HW  OW  HW  HW  OW  HW  HW  OW  HW  HW  
OW  HW  HW  OW  HW  HW  OW  HW  HW  OW  HW  HW  OW  HW  HW  OW  HW  HW  OW  HW  
HW  OW  HW  HW  OW  HW  HW  OW  HW  HW  OW  HW  HW  OW  HW  HW  OW  HW  HW  OW  
HW  HW  OW  HW  HW  OW  HW  HW  OW  HW  HW  OW  HW  HW  OW  HW  HW  OW  HW  HW  
OW  HW  HW  OW  HW  HW  OW  HW  HW  OW  HW  HW  OW  HW  HW  OW  HW  HW  OW  HW  
HW  OW  HW  HW  OW  HW  HW  OW  HW  HW  OW  HW  HW  OW  HW  HW  OW  HW  HW  OW  
HW  HW  OW  HW  HW  OW  HW  HW  OW  HW  HW  OW  HW  HW  OW  HW  HW  OW  HW  HW  
OW  HW  HW  OW  HW  HW  OW  HW  HW  OW  HW  HW  OW  HW  HW  OW  HW  HW  OW  HW  
HW  OW  HW  HW  OW  HW  HW  OW  HW  HW  OW  HW  HW  OW  HW  HW  OW  HW  HW  OW  
HW  HW  OW  HW  HW  OW  HW  HW  OW  HW  HW  OW  HW  HW  OW  HW  HW  OW  HW  HW  
OW  HW  HW  OW  HW  HW  OW  HW  HW  OW  HW  HW  OW  HW  HW  OW  HW  HW  OW  HW  
HW  OW  HW  HW  OW  HW  HW  OW  HW  HW  OW  HW  HW  OW  HW  HW  OW  HW  HW  OW  
HW  HW  OW  HW  HW  OW  HW  HW  OW  HW  HW  OW  HW  HW  OW  HW  HW  OW  HW  HW  
OW  HW  HW  OW  HW  HW  OW  HW  HW  OW  HW  HW  OW  HW  HW  OW  HW  HW  OW  HW  
HW  OW  HW  HW  OW  HW  HW  OW  HW  HW  OW  HW  HW  OW  HW  HW  OW  HW  HW  OW  
HW  HW  OW  HW  HW  OW  HW  HW  OW  HW  HW  OW  HW  HW  OW  HW  HW  OW  HW  HW  
OW  HW  HW  OW  HW  HW  OW  HW  HW  OW  HW  HW  OW  HW  HW  OW  HW  HW  OW  HW  
HW  OW  HW  HW  OW  HW  HW  OW  HW  HW  OW  HW  HW  OW  HW  HW  OW  HW  HW  OW  
HW  HW  OW  HW  HW  OW  HW  HW  OW  HW  HW  OW  HW  HW  OW  HW  HW  OW  HW  HW  
OW  HW  HW  OW  HW  HW  OW  HW  HW  OW  HW  HW  OW  HW  HW  OW  HW  HW  OW  HW  
HW  OW  HW  HW  OW  HW  HW  OW  HW  HW  OW  HW  HW  OW  HW  HW  OW  HW  HW  OW  
HW  HW  OW  HW  HW  OW  HW  HW  OW  HW  HW  OW  HW  HW  OW  HW  HW  OW  HW  HW  
OW  HW  HW  OW  HW  HW  OW  HW  HW  OW  HW  HW  OW  HW  HW  OW  HW  HW  OW  HW  
HW  OW  HW  HW  OW  HW  HW  OW  HW  HW  OW  HW  HW  OW  HW  HW  OW  HW  HW  OW  
HW  HW  OW  HW  HW  OW  HW  HW  OW  HW  HW  OW  HW  HW  OW  HW  HW  OW  HW  HW  
OW  HW  HW  OW  HW  HW  OW  HW  HW  OW  HW  HW  OW  HW  HW  OW  HW  HW  OW  HW  
HW  OW  HW  HW  OW  HW  HW  OW  HW  HW  OW  HW  HW  OW  HW  HW  OW  HW  HW  OW  
HW  HW  OW  HW  HW  OW  HW  HW  OW  HW  HW  OW  HW  HW  OW  HW  HW  OW  HW  HW  
OW  HW  HW  OW  HW  HW  OW  HW  HW  OW  HW  HW  OW  HW  HW  OW  HW  HW  OW  HW  
HW  OW  HW  HW  OW  HW  HW  OW  HW  HW  OW  HW  HW  OW  HW  HW  OW  HW  HW  OW  
HW  HW  OW  HW  HW  OW  HW  HW  OW  HW  HW  OW  HW  HW  OW  HW  HW  OW  HW  HW  
OW  HW  HW  OW  HW  HW  OW  HW  HW  OW  HW  HW  OW  HW  HW  OW  HW  HW  OW  HW  
HW  OW  HW  HW  OW  HW  HW  OW  HW  HW  OW  HW  HW  OW  HW  HW  OW  HW  HW  OW  
HW  HW  OW  HW  HW  OW  HW  HW  OW  HW  HW  OW  HW  HW  OW  HW  HW  OW  HW  HW  
OW  HW  HW  OW  HW  HW  OW  HW  HW  OW  HW  HW  OW  HW  HW  OW  HW  HW  OW  HW  
HW  OW  HW  HW  OW  HW  HW  OW  HW  HW  OW  HW  HW  OW  HW  HW  OW  HW  HW  OW  
HW  HW  OW  HW  HW  OW  HW  HW  OW  HW  HW  OW  HW  HW  OW  HW  HW  OW  HW  HW  
OW  HW  HW  OW  HW  HW  OW  HW  HW  OW  HW  HW  OW  HW  HW  OW  HW  HW  OW  HW  
HW  OW  HW  HW  OW  HW  HW  OW  HW  HW  OW  HW  HW  OW  HW  HW  OW  HW  HW  OW  
HW  HW  OW  HW  HW  OW  HW  HW  OW  HW  HW  OW  HW  HW  OW  HW  HW  OW  HW  HW  
OW  HW  HW  OW  HW  HW  OW  HW  HW  OW  HW  HW  OW  HW  HW  OW  HW  HW  OW  HW  
HW  OW  HW  HW  OW  HW  HW  OW  HW  HW  OW  HW  HW  OW  HW  HW  OW  HW  HW  OW  
HW  HW  OW  HW  HW  OW  HW  HW  OW  HW  HW  OW  HW  HW  OW  HW  HW  OW  HW  HW  
OW  HW  HW  OW  HW  HW  OW  HW  HW  OW  HW  HW  OW  HW  HW  OW  HW  HW  OW  HW  
HW  OW  HW  HW  OW  HW  HW  OW  HW  HW  OW  HW  HW  OW  HW  HW  OW  HW  HW  OW  
HW  HW  OW  HW  HW  OW  HW  HW  OW  HW  HW  OW  HW  HW  OW  HW  HW  OW  HW  HW  
OW  HW  HW  OW  HW  HW  OW  HW  HW  OW  HW  HW  OW  HW  HW  OW  HW  HW  OW  HW  
HW  OW  HW  HW  OW  HW  HW  OW  HW  HW  OW  HW  HW  OW  HW  HW  OW  HW  HW  OW  
HW  HW  OW  HW  HW  OW  HW  HW  OW  HW  HW  OW  HW  HW  OW  HW  HW  OW  HW  HW  
OW  HW  HW  OW  HW  HW  OW  HW  HW  OW  HW  HW  OW  HW  HW  OW  HW  HW  OW  HW  
HW  OW  HW  HW  OW  HW  HW  OW  HW  HW  OW  HW  HW  OW  HW  HW  OW  HW  HW  OW  
HW  HW  OW  HW  HW  OW  HW  HW  OW  HW  HW  OW  HW  HW  OW  HW  HW  OW  HW  HW  
OW  HW  HW  OW  HW  HW  OW  HW  HW  OW  HW  HW  OW  HW  HW  OW  HW  HW  OW  HW  
HW  OW  HW  HW  OW  HW  HW  OW  HW  HW  OW  HW  HW  OW  HW  HW  OW  HW  HW  OW  
HW  HW  OW  HW  HW  OW  HW  HW  OW  HW  HW  OW  HW  HW  OW  HW  HW  OW  HW  HW  
OW  HW  HW  OW  HW  HW  OW  HW  HW  OW  HW  HW  OW  HW  HW  OW  HW  HW  OW  HW  
HW  OW  HW  HW  OW  HW  HW  OW  HW  HW  OW  HW  HW  OW  HW  HW  OW  HW  HW  OW  
HW  HW  OW  HW  HW  OW  HW  HW  OW  HW  HW  OW  HW  HW  OW  HW  HW  OW  HW  HW  
OW  HW  HW  OW  HW  HW  OW  HW  HW  OW  HW  HW  OW  HW  HW  OW  HW  HW  OW  HW  
HW  OW  HW  HW  OW  HW  HW  OW  HW  HW  OW  HW  HW  OW  HW  HW  OW  HW  HW  OW  
HW  HW  OW  HW  HW  OW  HW  HW  OW  HW  HW  OW  HW  HW  OW  HW  HW  OW  HW  HW  
OW  HW  HW  OW  HW  HW  OW  HW  HW  OW  HW  HW  OW  HW  HW  OW  HW  HW  OW  HW  
HW  OW  HW  HW  OW  HW  HW  OW  HW  HW  OW  HW  HW  OW  HW  HW  OW  HW  HW  OW  
HW  HW  OW  HW  HW  OW  HW  HW  OW  HW  HW  OW  HW  HW  OW  HW  HW  OW  HW  HW  
OW  HW  HW  OW  HW  HW  OW  HW  HW  OW  HW  HW  OW  HW  HW  OW  HW  HW  OW  HW  
HW  OW  HW  HW  OW  HW  HW  OW  HW  HW  OW  HW  HW  OW  HW  HW  OW  HW  HW  OW  
HW  HW  OW  HW  HW  OW  HW  HW  OW  HW  HW  OW  HW  HW  OW  HW  HW  OW  HW  HW  
OW  HW  HW  OW  HW  HW  OW  HW  HW  OW  HW  HW  OW  HW  HW  OW  HW  HW  OW  HW  
HW  OW  HW  HW  OW  HW  HW  OW  HW  HW  OW  HW  HW  OW  HW  HW  OW  HW  HW  OW  
HW  HW  OW  HW  HW  OW  HW  HW  OW  HW  HW  OW  HW  HW  OW  HW  HW  OW  HW  HW  
OW  HW  HW  OW  HW  HW  OW  HW  HW  OW  HW  HW  OW  HW  HW  OW  HW  HW  OW  HW  
HW  OW  HW  HW  OW  HW  HW  OW  HW  HW  OW  HW  HW  OW  HW  HW  OW  HW  HW  OW  
HW  HW  OW  HW  HW  OW  HW  HW  OW  HW  HW  OW  HW  HW  OW  HW  HW  OW  HW  HW  
OW  HW  HW  OW  HW  HW  OW  HW  HW  OW  HW  HW  OW  HW  HW  OW  HW  HW  OW  HW  
HW  OW  HW  HW  OW  HW  HW  OW  HW  HW  OW  HW  HW  OW  HW  HW  OW  HW  HW  OW  
HW  HW  OW  HW  HW  OW  HW  HW  OW  HW  HW  OW  HW  HW  OW  HW  HW  OW  HW  HW  
OW  HW  HW  OW  HW  HW  OW  HW  HW  OW  HW  HW  OW  HW  HW  OW  HW  HW  OW  HW  
HW  OW  HW  HW  OW  HW  HW  OW  HW  HW  OW  HW  HW  OW  HW  HW  OW  HW  HW  OW  
HW  HW  OW  HW  HW  OW  HW  HW  OW  HW  HW  OW  HW  HW  OW  HW  HW  OW  HW  HW  
OW  HW  HW  OW  HW  HW  OW  HW  HW  OW  HW  HW  OW  HW  HW  OW  HW  HW  OW  HW  
HW  OW  HW  HW  OW  HW  HW  OW  HW  HW  OW  HW  HW  OW  HW  HW  OW  HW  HW  OW  
HW  HW  OW  HW  HW  OW  HW  HW  OW  HW  HW  OW  HW  HW  OW  HW  HW  OW  HW  HW  
OW  HW  HW  OW  HW  HW  OW  HW  HW  OW  HW  HW  OW  HW  HW  OW  HW  HW  OW  HW  
HW  OW  HW  HW  OW  HW  HW  OW  HW  HW  OW  HW  HW  OW  HW  HW  OW  HW  HW  OW  
HW  HW  OW  HW  HW  OW  HW  HW  OW  HW  HW  OW  HW  HW  OW  HW  HW  OW  HW  HW  
OW  HW  HW  OW  HW  HW  OW  HW  HW  OW  HW  HW  OW  HW  HW  OW  HW  HW  OW  HW  
HW  OW  HW  HW  OW  HW  HW  OW  HW  HW  OW  HW  HW  OW  HW  HW  OW  HW  HW  OW  
HW  HW  OW  HW  HW  OW  HW  HW  OW  HW  HW  OW  HW  HW  OW  HW  HW  OW  HW  HW  
OW  HW  HW  OW  HW  HW  OW  HW  HW  OW  HW  HW  OW  HW  HW  OW  HW  HW  OW  HW  
HW  OW  HW  HW  OW  HW  HW  OW  HW  HW  OW  HW  HW  OW  HW  HW  OW  HW  HW  OW  
HW  HW  OW  HW  HW  OW  HW  HW  OW  HW  HW  OW  HW  HW  OW  HW  HW  OW  HW  HW  
OW  HW  HW  OW  HW  HW  OW  HW  HW  OW  HW  HW  OW  HW  HW  OW  HW  HW  OW  HW  
HW  OW  HW  HW  OW  HW  HW  OW  HW  HW  OW  HW  HW  OW  HW  HW  OW  HW  HW  OW  
HW  HW  OW  HW  HW  OW  HW  HW  OW  HW  HW  OW  HW  HW  OW  HW  HW  OW  HW  HW  
OW  HW  HW  OW  HW  HW  OW  HW  HW  OW  HW  HW  OW  HW  HW  OW  HW  HW  OW  HW  
HW  OW  HW  HW  OW  HW  HW  OW  HW  HW  OW  HW  HW  OW  HW  HW  OW  HW  HW  OW  
HW  HW  OW  HW  HW  OW  HW  HW  OW  HW  HW  OW  HW  HW  OW  HW  HW  OW  HW  HW  
OW  HW  HW  OW  HW  HW  OW  HW  HW  OW  HW  HW  OW  HW  HW  OW  HW  HW  OW  HW  
HW  OW  HW  HW  OW  HW  HW  OW  HW  HW  OW  HW  HW  OW  HW  HW  OW  HW  HW  OW  
HW  HW  OW  HW  HW  OW  HW  HW  OW  HW  HW  OW  HW  HW  OW  HW  HW  OW  HW  HW  
OW  HW  HW  OW  HW  HW  OW  HW  HW  OW  HW  HW  OW  HW  HW  OW  HW  HW  OW  HW  
HW  OW  HW  HW  OW  HW  HW  OW  HW  HW  OW  HW  HW  OW  HW  HW  OW  HW  HW  OW  
HW  HW  OW  HW  HW  OW  HW  HW  OW  HW  HW  OW  HW  HW  OW  HW  HW  OW  HW  HW  
OW  HW  HW  OW  HW  HW  OW  HW  HW  OW  HW  HW  OW  HW  HW  OW  HW  HW  OW  HW  
HW  OW  HW  HW  OW  HW  HW  OW  HW  HW  OW  HW  HW  OW  HW  HW  OW  HW  HW  OW  
HW  HW  OW  HW  HW  OW  HW  HW  OW  HW  HW  OW  HW  HW  OW  HW  HW  OW  HW  HW  
OW  HW  HW  OW  HW  HW  OW  HW  HW  OW  HW  HW  OW  HW  HW  OW  HW  HW  OW  HW  
HW  OW  HW  HW  OW  HW  HW  OW  HW  HW  OW  HW  HW  OW  HW  HW  OW  HW  HW  OW  
HW  HW  OW  HW  HW  OW  HW  HW  OW  HW  HW  OW  HW  HW  OW  HW  HW  OW  HW  HW  
OW  HW  HW  OW  HW  HW  OW  HW  HW  OW  HW  HW  OW  HW  HW  OW  HW  HW  OW  HW  
HW  OW  HW  HW  OW  HW  HW  OW  HW  HW  OW  HW  HW  OW  HW  HW  OW  HW  HW  OW  
HW  HW  OW  HW  HW  OW  HW  HW  OW  HW  HW  OW  HW  HW  OW  HW  HW  OW  HW  HW  
OW  HW  HW  OW  HW  HW  OW  HW  HW  OW  HW  HW  OW  HW  HW  OW  HW  HW  OW  HW  
HW  OW  HW  HW  OW  HW  HW  OW  HW  HW  OW  HW  HW  OW  HW  HW  OW  HW  HW  OW  
HW  HW  OW  HW  HW  OW  HW  HW  OW  HW  HW  OW  HW  HW  OW  HW  HW  OW  HW  HW  
OW  HW  HW  OW  HW  HW  OW  HW  HW  OW  HW  HW  OW  HW  HW  OW  HW  HW  OW  HW  
HW  OW  HW  HW  OW  HW  HW  OW  HW  HW  OW  HW  HW  OW  HW  HW  OW  HW  HW  OW  
HW  HW  OW  HW  HW  OW  HW  HW  OW  HW  HW  OW  HW  HW  OW  HW  HW  OW  HW  HW  
OW  HW  HW  OW  HW  HW  OW  HW  HW  OW  HW  HW  OW  HW  HW  OW  HW  HW  OW  HW  
HW  OW  HW  HW  OW  HW  HW  OW  HW  HW  OW  HW  HW  OW  HW  HW  OW  HW  HW  OW  
HW  HW  OW  HW  HW  OW  HW  HW  OW  HW  HW  OW  HW  HW  OW  HW  HW  OW  HW  HW  
OW  HW  HW  OW  HW  HW  OW  HW  HW  OW  HW  HW  OW  HW  HW  OW  HW  HW  OW  HW  
HW  OW  HW  HW  OW  HW  HW  OW  HW  HW  OW  HW  HW  OW  HW  HW  OW  HW  HW  OW  
HW  HW  OW  HW  HW  OW  HW  HW  OW  HW  HW  OW  HW  HW  OW  HW  HW  OW  HW  HW  
OW  HW  HW  OW  HW  HW  OW  HW  HW  OW  HW  HW  OW  HW  HW  OW  HW  HW  OW  HW  
HW  OW  HW  HW  OW  HW  HW  OW  HW  HW  OW  HW  HW  OW  HW  HW  OW  HW  HW  OW  
HW  HW  OW  HW  HW  OW  HW  HW  OW  HW  HW  OW  HW  HW  OW  HW  HW  OW  HW  HW  
OW  HW  HW  OW  HW  HW  OW  HW  HW  OW  HW  HW  OW  HW  HW  OW  HW  HW  OW  HW  
HW  OW  HW  HW  OW  HW  HW  OW  HW  HW  OW  HW  HW  OW  HW  HW  OW  HW  HW  OW  
HW  HW  OW  HW  HW  OW  HW  HW  OW  HW  HW  OW  HW  HW  OW  HW  HW  OW  HW  HW  
OW  HW  HW  OW  HW  HW  OW  HW  HW  OW  HW  HW  OW  HW  HW  OW  HW  HW  OW  HW  
HW  OW  HW  HW  OW  HW  HW  OW  HW  HW  OW  HW  HW  OW  HW  HW  OW  HW  HW  OW  
HW  HW  OW  HW  HW  OW  HW  HW  OW  HW  HW  OW  HW  HW  OW  HW  HW  OW  HW  HW  
OW  HW  HW  OW  HW  HW  OW  HW  HW  OW  HW  HW  OW  HW  HW  OW  HW  HW  OW  HW  
HW  OW  HW  HW  OW  HW  HW  OW  HW  HW  OW  HW  HW  OW  HW  HW  OW  HW  HW  OW  
HW  HW  OW  HW  HW  OW  HW  HW  OW  HW  HW  OW  HW  HW  OW  HW  HW  OW  HW  HW  
OW  HW  HW  OW  HW  HW  OW  HW  HW  OW  HW  HW  OW  HW  HW  OW  HW  HW  OW  HW  
HW  OW  HW  HW  OW  HW  HW  OW  HW  HW  OW  HW  HW  OW  HW  HW  OW  HW  HW  OW  
HW  HW  OW  HW  HW  OW  HW  HW  OW  HW  HW  OW  HW  HW  OW  HW  HW  OW  HW  HW  
OW  HW  HW  OW  HW  HW  OW  HW  HW  OW  HW  HW  OW  HW  HW  OW  HW  HW  OW  HW  
HW  OW  HW  HW  OW  HW  HW  OW  HW  HW  OW  HW  HW  OW  HW  HW  OW  HW  HW  OW  
HW  HW  OW  HW  HW  OW  HW  HW  OW  HW  HW  OW  HW  HW  OW  HW  HW  OW  HW  HW  
OW  HW  HW  OW  HW  HW  OW  HW  HW  OW  HW  HW  OW  HW  HW  OW  HW  HW  OW  HW  
HW  OW  HW  HW  OW  HW  HW  OW  HW  HW  OW  HW  HW  OW  HW  HW  OW  HW  HW  OW  
HW  HW  OW  HW  HW  OW  HW  HW  OW  HW  HW  OW  HW  HW  OW  HW  HW  OW  HW  HW  
OW  HW  HW  OW  HW  HW  OW  HW  HW  OW  HW  HW  OW  HW  HW  OW  HW  HW  OW  HW  
HW  OW  HW  HW  OW  HW  HW  OW  HW  HW  OW  HW  HW  OW  HW  HW  OW  HW  HW  OW  
HW  HW  OW  HW  HW  OW  HW  HW  OW  HW  HW  OW  HW  HW  OW  HW  HW  OW  HW  HW  
OW  HW  HW  OW  HW  HW  OW  HW  HW  OW  HW  HW  OW  HW  HW  OW  HW  HW  OW  HW  
HW  OW  HW  HW  OW  HW  HW  OW  HW  HW  OW  HW  HW  OW  HW  HW  OW  HW  HW  OW  
HW  HW  OW  HW  HW  OW  HW  HW  OW  HW  HW  OW  HW  HW  OW  HW  HW  OW  HW  HW  
OW  HW  HW  OW  HW  HW  OW  HW  HW  OW  HW  HW  OW  HW  HW  OW  HW  HW  OW  HW  
HW  OW  HW  HW  OW  HW  HW  OW  HW  HW  OW  HW  HW  OW  HW  HW  OW  HW  HW  OW  
HW  HW  OW  HW  HW  OW  HW  HW  OW  HW  HW  OW  HW  HW  OW  HW  HW  OW  HW  HW  
OW  HW  HW  OW  HW  HW  OW  HW  HW  OW  HW  HW  OW  HW  HW  OW  HW  HW  OW  HW  
HW  OW  HW  HW  OW  HW  HW  OW  HW  HW  OW  HW  HW  OW  HW  HW  OW  HW  HW  OW  
HW  HW  OW  HW  HW  OW  HW  HW  OW  HW  HW  OW  HW  HW  OW  HW  HW  OW  HW  HW  
OW  HW  HW  OW  HW  HW  OW  HW  HW  OW  HW  HW  OW  HW  HW  OW  HW  HW  OW  HW  
HW  OW  HW  HW  OW  HW  HW  OW  HW  HW  OW  HW  HW  OW  HW  HW  OW  HW  HW  OW  
HW  HW  OW  HW  HW  OW  HW  HW  OW  HW  HW  OW  HW  HW  OW  HW  HW  OW  HW  HW  
OW  HW  HW  OW  HW  HW  OW  HW  HW  OW  HW  HW  OW  HW  HW  OW  HW  HW  OW  HW  
HW  OW  HW  HW  OW  HW  HW  OW  HW  HW  OW  HW  HW  OW  HW  HW  OW  HW  HW  OW  
HW  HW  OW  HW  HW  OW  HW  HW  OW  HW  HW  OW  HW  HW  OW  HW  HW  OW  HW  HW  
OW  HW  HW  OW  HW  HW  OW  HW  HW  OW  HW  HW  OW  HW  HW  OW  HW  HW  OW  HW  
HW  OW  HW  HW  OW  HW  HW  OW  HW  HW  OW  HW  HW  OW  HW  HW  OW  HW  HW  OW  
HW  HW  OW  HW  HW  OW  HW  HW  OW  HW  HW  OW  HW  HW  OW  HW  HW  OW  HW  HW  
OW  HW  HW  OW  HW  HW  OW  HW  HW  OW  HW  HW  OW  HW  HW  OW  HW  HW  OW  HW  
HW  OW  HW  HW  OW  HW  HW  OW  HW  HW  OW  HW  HW  OW  HW  HW  OW  HW  HW  OW  
HW  HW  OW  HW  HW  OW  HW  HW  OW  HW  HW  OW  HW  HW  OW  HW  HW  OW  HW  HW  
OW  HW  HW  OW  HW  HW  OW  HW  HW  OW  HW  HW  OW  HW  HW  OW  HW  HW  OW  HW  
HW  OW  HW  HW  OW  HW  HW  OW  HW  HW  OW  HW  HW  OW  HW  HW  OW  HW  HW  OW  
HW  HW  OW  HW  HW  OW  HW  HW  OW  HW  HW  OW  HW  HW  OW  HW  HW  OW  HW  HW  
OW  HW  HW  OW  HW  HW  OW  HW  HW  OW  HW  HW  OW  HW  HW  OW  HW  HW  OW  HW  
HW  OW  HW  HW  OW  HW  HW  OW  HW  HW  OW  HW  HW  OW  HW  HW  OW  HW  HW  OW  
HW  HW  OW  HW  HW  OW  HW  HW  OW  HW  HW  OW  HW  HW  OW  HW  HW  OW  HW  HW  
OW  HW  HW  OW  HW  HW  OW  HW  HW  OW  HW  HW  OW  HW  HW  OW  HW  HW  OW  HW  
HW  OW  HW  HW  OW  HW  HW  OW  HW  HW  OW  HW  HW  OW  HW  HW  OW  HW  HW  OW  
HW  HW  OW  HW  HW  OW  HW  HW  OW  HW  HW  OW  HW  HW  OW  HW  HW  OW  HW  HW  
OW  HW  HW  OW  HW  HW  OW  HW  HW  OW  HW  HW  OW  HW  HW  OW  HW  HW  OW  HW  
HW  OW  HW  HW  OW  HW  HW  OW  HW  HW  OW  HW  HW  OW  HW  HW  OW  HW  HW  OW  
HW  HW  OW  HW  HW  OW  HW  HW  OW  HW  HW  OW  HW  HW  OW  HW  HW  OW  HW  HW  
OW  HW  HW  OW  HW  HW  OW  HW  HW  OW  HW  HW  OW  HW  HW  OW  HW  HW  OW  HW  
HW  OW  HW  HW  OW  HW  HW  OW  HW  HW  OW  HW  HW  OW  HW  HW  OW  HW  HW  OW  
HW  HW  OW  HW  HW  OW  HW  HW  OW  HW  HW  OW  HW  HW  OW  HW  HW  OW  HW  HW  
OW  HW  HW  OW  HW  HW  OW  HW  HW  OW  HW  HW  OW  HW  HW  OW  HW  HW  OW  HW  
HW  OW  HW  HW  OW  HW  HW  OW  HW  HW  OW  HW  HW  OW  HW  HW  OW  HW  HW  OW  
HW  HW  OW  HW  HW  OW  HW  HW  OW  HW  HW  OW  HW  HW  OW  HW  HW  OW  HW  HW  
OW  HW  HW  OW  HW  HW  OW  HW  HW  OW  HW  HW  OW  HW  HW  OW  HW  HW  OW  HW  
HW  OW  HW  HW  OW  HW  HW  OW  HW  HW  OW  HW  HW  OW  HW  HW  OW  HW  HW  OW  
HW  HW  OW  HW  HW  OW  HW  HW  OW  HW  HW  OW  HW  HW  OW  HW  HW  OW  HW  HW  
OW  HW  HW  OW  HW  HW  OW  HW  HW  OW  HW  HW  OW  HW  HW  OW  HW  HW  OW  HW  
HW  OW  HW  HW  OW  HW  HW  OW  HW  HW  OW  HW  HW  OW  HW  HW  OW  HW  HW  OW  
HW  HW  OW  HW  HW  OW  HW  HW  OW  HW  HW  OW  HW  HW  OW  HW  HW  OW  HW  HW  
OW  HW  HW  OW  HW  HW  OW  HW  HW  OW  HW  HW  OW  HW  HW  OW  HW  HW  OW  HW  
HW  OW  HW  HW  OW  HW  HW  OW  HW  HW  OW  HW  HW  OW  HW  HW  OW  HW  HW  OW  
HW  HW  OW  HW  HW  OW  HW  HW  OW  HW  HW  OW  HW  HW  OW  HW  HW  OW  HW  HW  
OW  HW  HW  OW  HW  HW  OW  HW  HW  OW  HW  HW  OW  HW  HW  OW  HW  HW  OW  HW  
HW  OW  HW  HW  OW  HW  HW  OW  HW  HW  OW  HW  HW  OW  HW  HW  OW  HW  HW  OW  
HW  HW  OW  HW  HW  OW  HW  HW  OW  HW  HW  OW  HW  HW  OW  HW  HW  OW  HW  HW  
OW  HW  HW  OW  HW  HW  OW  HW  HW  OW  HW  HW  OW  HW  HW  OW  HW  HW  OW  HW  
HW  OW  HW  HW  OW  HW  HW  OW  HW  HW  OW  HW  HW  OW  HW  HW  OW  HW  HW  OW  
HW  HW  OW  HW  HW  OW  HW  HW  OW  HW  HW  OW  HW  HW  OW  HW  HW  OW  HW  HW  
OW  HW  HW  OW  HW  HW  OW  HW  HW  OW  HW  HW  OW  HW  HW  OW  HW  HW  OW  HW  
HW  OW  HW  HW  OW  HW  HW  OW  HW  HW  OW  HW  HW  OW  HW  HW  OW  HW  HW  OW  
HW  HW  OW  HW  HW  OW  HW  HW  OW  HW  HW  OW  HW  HW  OW  HW  HW  OW  HW  HW  
OW  HW  HW  OW  HW  HW  OW  HW  HW  OW  HW  HW  OW  HW  HW  OW  HW  HW  OW  HW  
HW  OW  HW  HW  OW  HW  HW  OW  HW  HW  OW  HW  HW  OW  HW  HW  OW  HW  HW  OW  
HW  HW  OW  HW  HW  OW  HW  HW  OW  HW  HW  OW  HW  HW  OW  HW  HW  OW  HW  HW  
OW  HW  HW  OW  HW  HW  OW  HW  HW  OW  HW  HW  OW  HW  HW  OW  HW  HW  OW  HW  
HW  OW  HW  HW  OW  HW  HW  OW  HW  HW  OW  HW  HW  OW  HW  HW  OW  HW  HW  OW  
HW  HW  OW  HW  HW  OW  HW  HW  OW  HW  HW  OW  HW  HW  OW  HW  HW  OW  HW  HW  
OW  HW  HW  OW  HW  HW  OW  HW  HW  OW  HW  HW  OW  HW  HW  OW  HW  HW  OW  HW  
HW  OW  HW  HW  OW  HW  HW  OW  HW  HW  OW  HW  HW  OW  HW  HW  OW  HW  HW  OW  
HW  HW  OW  HW  HW  OW  HW  HW  OW  HW  HW  OW  HW  HW  OW  HW  HW  OW  HW  HW  
OW  HW  HW  OW  HW  HW  OW  HW  HW  OW  HW  HW  OW  HW  HW  OW  HW  HW  OW  HW  
HW  OW  HW  HW  OW  HW  HW  OW  HW  HW  OW  HW  HW  OW  HW  HW  OW  HW  HW  OW  
HW  HW  OW  HW  HW  OW  HW  HW  OW  HW  HW  OW  HW  HW  OW  HW  HW  OW  HW  HW  
OW  HW  HW  OW  HW  HW  OW  HW  HW  OW  HW  HW  OW  HW  HW  OW  HW  HW  OW  HW  
HW  OW  HW  HW  OW  HW  HW  OW  HW  HW  OW  HW  HW  OW  HW  HW  OW  HW  HW  OW  
HW  HW  OW  HW  HW  OW  HW  HW  OW  HW  HW  OW  HW  HW  OW  HW  HW  OW  HW  HW  
OW  HW  HW  OW  HW  HW  OW  HW  HW  OW  HW  HW  OW  HW  HW  OW  HW  HW  OW  HW  
HW  OW  HW  HW  OW  HW  HW  OW  HW  HW  OW  HW  HW  OW  HW  HW  OW  HW  HW  OW  
HW  HW  OW  HW  HW  OW  HW  HW  OW  HW  HW  OW  HW  HW  OW  HW  HW  OW  HW  HW  
OW  HW  HW  OW  HW  HW  OW  HW  HW  OW  HW  HW  OW  HW  HW  OW  HW  HW  OW  HW  
HW  OW  HW  HW  OW  HW  HW  OW  HW  HW  OW  HW  HW  OW  HW  HW  OW  HW  HW  OW  
HW  HW  OW  HW  HW  OW  HW  HW  OW  HW  HW  OW  HW  HW  OW  HW  HW  OW  HW  HW  
OW  HW  HW  OW  HW  HW  OW  HW  HW  OW  HW  HW  OW  HW  HW  OW  HW  HW  OW  HW  
HW  OW  HW  HW  OW  HW  HW  OW  HW  HW  OW  HW  HW  OW  HW  HW  OW  HW  HW  OW  
HW  HW  OW  HW  HW  OW  HW  HW  OW  HW  HW  OW  HW  HW  OW  HW  HW  OW  HW  HW  
OW  HW  HW  OW  HW  HW  OW  HW  HW  OW  HW  HW  OW  HW  HW  OW  HW  HW  OW  HW  
HW  OW  HW  HW  OW  HW  HW  OW  HW  HW  OW  HW  HW  OW  HW  HW  OW  HW  HW  OW  
HW  HW  OW  HW  HW  OW  HW  HW  OW  HW  HW  OW  HW  HW  OW  HW  HW  OW  HW  HW  
OW  HW  HW  OW  HW  HW  OW  HW  HW  OW  HW  HW  OW  HW  HW  OW  HW  HW  OW  HW  
HW  OW  HW  HW  OW  HW  HW  OW  HW  HW  OW  HW  HW  OW  HW  HW  OW  HW  HW  OW  
HW  HW  OW  HW  HW  OW  HW  HW  OW  HW  HW  OW  HW  HW  OW  HW  HW  OW  HW  HW  
OW  HW  HW  OW  HW  HW  OW  HW  HW  OW  HW  HW  OW  HW  HW  OW  HW  HW  OW  HW  
HW  OW  HW  HW  OW  HW  HW  OW  HW  HW  OW  HW  HW  OW  HW  HW  OW  HW  HW  OW  
HW  HW  OW  HW  HW  OW  HW  HW  OW  HW  HW  OW  HW  HW  OW  HW  HW  OW  HW  HW  
OW  HW  HW  OW  HW  HW  OW  HW  HW  OW  HW  HW  OW  HW  HW  OW  HW  HW  OW  HW  
HW  OW  HW  HW  OW  HW  HW  OW  HW  HW  OW  HW  HW  OW  HW  HW  OW  HW  HW  OW  
HW  HW  OW  HW  HW  OW  HW  HW  OW  HW  HW  OW  HW  HW  OW  HW  HW  OW  HW  HW  
OW  HW  HW  OW  HW  HW  OW  HW  HW  OW  HW  HW  OW  HW  HW  OW  HW  HW  OW  HW  
HW  OW  HW  HW  OW  HW  HW  OW  HW  HW  OW  HW  HW  OW  HW  HW  OW  HW  HW  OW  
HW  HW  OW  HW  HW  OW  HW  HW  OW  HW  HW  OW  HW  HW  OW  HW  HW  OW  HW  HW  
OW  HW  HW  OW  HW  HW  OW  HW  HW  OW  HW  HW  OW  HW  HW  OW  HW  HW  OW  HW  
HW  OW  HW  HW  OW  HW  HW  OW  HW  HW  OW  HW  HW  OW  HW  HW  OW  HW  HW  OW  
HW  HW  OW  HW  HW  OW  HW  HW  OW  HW  HW  OW  HW  HW  OW  HW  HW  OW  HW  HW  
OW  HW  HW  OW  HW  HW  OW  HW  HW  OW  HW  HW  OW  HW  HW  OW  HW  HW  OW  HW  
HW  OW  HW  HW  OW  HW  HW  OW  HW  HW  OW  HW  HW  OW  HW  HW  OW  HW  HW  OW  
HW  HW  OW  HW  HW  OW  HW  HW  OW  HW  HW  OW  HW  HW  OW  HW  HW  OW  HW  HW  
OW  HW  HW  OW  HW  HW  OW  HW  HW  OW  HW  HW  OW  HW  HW  OW  HW  HW  OW  HW  
HW  OW  HW  HW  OW  HW  HW  OW  HW  HW  OW  HW  HW  OW  HW  HW  OW  HW  HW  OW  
HW  HW  OW  HW  HW  OW  HW  HW  OW  HW  HW  OW  HW  HW  OW  HW  HW  OW  HW  HW  
OW  HW  HW  OW  HW  HW  OW  HW  HW  OW  HW  HW  OW  HW  HW  OW  HW  HW  OW  HW  
HW  OW  HW  HW  OW  HW  HW  OW  HW  HW  OW  HW  HW  OW  HW  HW  OW  HW  HW  OW  
HW  HW  OW  HW  HW  OW  HW  HW  OW  HW  HW  OW  HW  HW  OW  HW  HW  OW  HW  HW  
OW  HW  HW  OW  HW  HW  OW  HW  HW  OW  HW  HW  OW  HW  HW  OW  HW  HW  OW  HW  
HW  OW  HW  HW  OW  HW  HW  OW  HW  HW  OW  HW  HW  OW  HW  HW  OW  HW  HW  OW  
HW  HW  OW  HW  HW  OW  HW  HW  OW  HW  HW  OW  HW  HW  OW  HW  HW  OW  HW  HW  
OW  HW  HW  OW  HW  HW  OW  HW  HW  OW  HW  HW  OW  HW  HW  OW  HW  HW  OW  HW  
HW  OW  HW  HW  OW  HW  HW  OW  HW  HW  OW  HW  HW  OW  HW  HW  OW  HW  HW  OW  
HW  HW  OW  HW  HW  OW  HW  HW  OW  HW  HW  OW  HW  HW  OW  HW  HW  OW  HW  HW  
OW  HW  HW  OW  HW  HW  OW  HW  HW  OW  HW  HW  OW  HW  HW  OW  HW  HW  OW  HW  
HW  OW  HW  HW  OW  HW  HW  OW  HW  HW  OW  HW  HW  OW  HW  HW  OW  HW  HW  OW  
HW  HW  OW  HW  HW  OW  HW  HW  OW  HW  HW  OW  HW  HW  OW  HW  HW  OW  HW  HW  
OW  HW  HW  OW  HW  HW  OW  HW  HW  OW  HW  HW  OW  HW  HW  OW  HW  HW  OW  HW  
HW  OW  HW  HW  OW  HW  HW  OW  HW  HW  OW  HW  HW  OW  HW  HW  OW  HW  HW  OW  
HW  HW  OW  HW  HW  OW  HW  HW  OW  HW  HW  OW  HW  HW  OW  HW  HW  OW  HW  HW  
OW  HW  HW  OW  HW  HW  OW  HW  HW  OW  HW  HW  OW  HW  HW  OW  HW  HW  OW  HW  
HW  OW  HW  HW  OW  HW  HW  OW  HW  HW  OW  HW  HW  OW  HW  HW  OW  HW  HW  OW  
HW  HW  OW  HW  HW  OW  HW  HW  OW  HW  HW  OW  HW  HW  OW  HW  HW  OW  HW  HW  
OW  HW  HW  OW  HW  HW  OW  HW  HW  OW  HW  HW  OW  HW  HW  OW  HW  HW  OW  HW  
HW  OW  HW  HW  OW  HW  HW  OW  HW  HW  OW  HW  HW  OW  HW  HW  OW  HW  HW  OW  
HW  HW  OW  HW  HW  OW  HW  HW  OW  HW  HW  OW  HW  HW  OW  HW  HW  OW  HW  HW  
OW  HW  HW  OW  HW  HW  OW  HW  HW  OW  HW  HW  OW  HW  HW  OW  HW  HW  OW  HW  
HW  OW  HW  HW  OW  HW  HW  OW  HW  HW  OW  HW  HW  OW  HW  HW  OW  HW  HW  OW  
HW  HW  OW  HW  HW  OW  HW  HW  OW  HW  HW  OW  HW  HW  OW  HW  HW  OW  HW  HW  
OW  HW  HW  OW  HW  HW  OW  HW  HW  OW  HW  HW  OW  HW  HW  OW  HW  HW  OW  HW  
HW  OW  HW  HW  OW  HW  HW  OW  HW  HW  OW  HW  HW  OW  HW  HW  OW  HW  HW  OW  
HW  HW  OW  HW  HW  OW  HW  HW  OW  HW  HW  OW  HW  HW  OW  HW  HW  OW  HW  HW  
OW  HW  HW  OW  HW  HW  OW  HW  HW  OW  HW  HW  OW  HW  HW  OW  HW  HW  OW  HW  
HW  OW  HW  HW  OW  HW  HW  OW  HW  HW  OW  HW  HW  OW  HW  HW  OW  HW  HW  OW  
HW  HW  OW  HW  HW  OW  HW  HW  OW  HW  HW  OW  HW  HW  OW  HW  HW  OW  HW  HW  
OW  HW  HW  OW  HW  HW  OW  HW  HW  OW  HW  HW  OW  HW  HW  OW  HW  HW  OW  HW  
HW  OW  HW  HW  OW  HW  HW  OW  HW  HW  OW  HW  HW  OW  HW  HW  OW  HW  HW  OW  
HW  HW  OW  HW  HW  OW  HW  HW  OW  HW  HW  OW  HW  HW  OW  HW  HW  OW  HW  HW  
OW  HW  HW  OW  HW  HW  OW  HW  HW  OW  HW  HW  OW  HW  HW  OW  HW  HW  OW  HW  
HW  OW  HW  HW  OW  HW  HW  OW  HW  HW  OW  HW  HW  OW  HW  HW  OW  HW  HW  OW  
HW  HW  OW  HW  HW  OW  HW  HW  OW  HW  HW  OW  HW  HW  OW  HW  HW  OW  HW  HW  
OW  HW  HW  OW  HW  HW  OW  HW  HW  OW  HW  HW  OW  HW  HW  OW  HW  HW  OW  HW  
HW  OW  HW  HW  OW  HW  HW  OW  HW  HW  OW  HW  HW  OW  HW  HW  OW  HW  HW  OW  
HW  HW  OW  HW  HW  OW  HW  HW  OW  HW  HW  OW  HW  HW  OW  HW  HW  OW  HW  HW  
OW  HW  HW  OW  HW  HW  OW  HW  HW  OW  HW  HW  OW  HW  HW  OW  HW  HW  OW  HW  
HW  OW  HW  HW  OW  HW  HW  OW  HW  HW  OW  HW  HW  OW  HW  HW  OW  HW  HW  OW  
HW  HW  OW  HW  HW  OW  HW  HW  OW  HW  HW  OW  HW  HW  OW  HW  HW  OW  HW  HW  
OW  HW  HW  OW  HW  HW  OW  HW  HW  OW  HW  HW  OW  HW  HW  OW  HW  HW  OW  HW  
HW  OW  HW  HW  OW  HW  HW  OW  HW  HW  OW  HW  HW  OW  HW  HW  OW  HW  HW  OW  
HW  HW  OW  HW  HW  OW  HW  HW  OW  HW  HW  OW  HW  HW  OW  HW  HW  OW  HW  HW  
OW  HW  HW  OW  HW  HW  OW  HW  HW  OW  HW  HW  OW  HW  HW  OW  HW  HW  OW  HW  
HW  OW  HW  HW  OW  HW  HW  OW  HW  HW  OW  HW  HW  OW  HW  HW  OW  HW  HW  OW  
HW  HW  OW  HW  HW  OW  HW  HW  OW  HW  HW  OW  HW  HW  OW  HW  HW  OW  HW  HW  
OW  HW  HW  OW  HW  HW  OW  HW  HW  OW  HW  HW  OW  HW  HW  OW  HW  HW  OW  HW  
HW  OW  HW  HW  OW  HW  HW  OW  HW  HW  OW  HW  HW  OW  HW  HW  OW  HW  HW  OW  
HW  HW  OW  HW  HW  OW  HW  HW  OW  HW  HW  OW  HW  HW  OW  HW  HW  OW  HW  HW  
OW  HW  HW  OW  HW  HW  OW  HW  HW  OW  HW  HW  OW  HW  HW  OW  HW  HW  OW  HW  
HW  OW  HW  HW  OW  HW  HW  OW  HW  HW  OW  HW  HW  OW  HW  HW  OW  HW  HW  OW  
HW  HW  OW  HW  HW  OW  HW  HW  OW  HW  HW  OW  HW  HW  OW  HW  HW  OW  HW  HW  
OW  HW  HW  OW  HW  HW  OW  HW  HW  OW  HW  HW  OW  HW  HW  OW  HW  HW  OW  HW  
HW  OW  HW  HW  OW  HW  HW  OW  HW  HW  OW  HW  HW  OW  HW  HW  OW  HW  HW  OW  
HW  HW  OW  HW  HW  OW  HW  HW  OW  HW  HW  OW  HW  HW  OW  HW  HW  OW  HW  HW  
OW  HW  HW  OW  HW  HW  OW  HW  HW  OW  HW  HW  OW  HW  HW  OW  HW  HW  OW  HW  
HW  OW  HW  HW  OW  HW  HW  OW  HW  HW  OW  HW  HW  OW  HW  HW  OW  HW  HW  OW  
HW  HW  OW  HW  HW  OW  HW  HW  OW  HW  HW  OW  HW  HW  OW  HW  HW  OW  HW  HW  
OW  HW  HW  OW  HW  HW  OW  HW  HW  OW  HW  HW  OW  HW  HW  OW  HW  HW  OW  HW  
HW  OW  HW  HW  OW  HW  HW  OW  HW  HW  OW  HW  HW  OW  HW  HW  OW  HW  HW  OW  
HW  HW  OW  HW  HW  OW  HW  HW  OW  HW  HW  OW  HW  HW  OW  HW  HW  OW  HW  HW  
OW  HW  HW  OW  HW  HW  OW  HW  HW  OW  HW  HW  OW  HW  HW  OW  HW  HW  OW  HW  
HW  OW  HW  HW  OW  HW  HW  OW  HW  HW  OW  HW  HW  OW  HW  HW  OW  HW  HW  OW  
HW  HW  OW  HW  HW  OW  HW  HW  OW  HW  HW  OW  HW  HW  OW  HW  HW  OW  HW  HW  
OW  HW  HW  OW  HW  HW  OW  HW  HW  OW  HW  HW  OW  HW  HW  OW  HW  HW  OW  HW  
HW  OW  HW  HW  OW  HW  HW  OW  HW  HW  OW  HW  HW  OW  HW  HW  OW  HW  HW  OW  
HW  HW  OW  HW  HW  OW  HW  HW  OW  HW  HW  OW  HW  HW  OW  HW  HW  OW  HW  HW  
OW  HW  HW  OW  HW  HW  OW  HW  HW  OW  HW  HW  OW  HW  HW  OW  HW  HW  OW  HW  
HW  OW  HW  HW  OW  HW  HW  OW  HW  HW  OW  HW  HW  OW  HW  HW  OW  HW  HW  OW  
HW  HW  OW  HW  HW  OW  HW  HW  OW  HW  HW  OW  HW  HW  OW  HW  HW  OW  HW  HW  
OW  HW  HW  OW  HW  HW  OW  HW  HW  OW  HW  HW  OW  HW  HW  OW  HW  HW  OW  HW  
HW  OW  HW  HW  OW  HW  HW  OW  HW  HW  OW  HW  HW  OW  HW  HW  OW  HW  HW  OW  
HW  HW  OW  HW  HW  OW  HW  HW  OW  HW  HW  OW  HW  HW  OW  HW  HW  OW  HW  HW  
OW  HW  HW  OW  HW  HW  OW  HW  HW  OW  HW  HW  OW  HW  HW  OW  HW  HW  OW  HW  
HW  OW  HW  HW  OW  HW  HW  OW  HW  HW  OW  HW  HW  OW  HW  HW  OW  HW  HW  OW  
HW  HW  OW  HW  HW  OW  HW  HW  OW  HW  HW  OW  HW  HW  OW  HW  HW  OW  HW  HW  
OW  HW  HW  OW  HW  HW  OW  HW  HW  OW  HW  HW  OW  HW  HW  OW  HW  HW  OW  HW  
HW  OW  HW  HW  OW  HW  HW  OW  HW  HW  OW  HW  HW  OW  HW  HW  OW  HW  HW  OW  
HW  HW  OW  HW  HW  OW  HW  HW  OW  HW  HW  OW  HW  HW  OW  HW  HW  OW  HW  HW  
OW  HW  HW  OW  HW  HW  OW  HW  HW  OW  HW  HW  OW  HW  HW  OW  HW  HW  OW  HW  
HW  OW  HW  HW  OW  HW  HW  OW  HW  HW  OW  HW  HW  OW  HW  HW  OW  HW  HW  OW  
HW  HW  OW  HW  HW  OW  HW  HW  OW  HW  HW  OW  HW  HW  OW  HW  HW  OW  HW  HW  
OW  HW  HW  OW  HW  HW  OW  HW  HW  OW  HW  HW  OW  HW  HW  OW  HW  HW  OW  HW  
HW  OW  HW  HW  OW  HW  HW  OW  HW  HW  OW  HW  HW  OW  HW  HW  OW  HW  HW  OW  
HW  HW  OW  HW  HW  OW  HW  HW  OW  HW  HW  OW  HW  HW  OW  HW  HW  OW  HW  HW  
OW  HW  HW  OW  HW  HW  OW  HW  HW  OW  HW  HW  OW  HW  HW  OW  HW  HW  OW  HW  
HW  OW  HW  HW  OW  HW  HW  OW  HW  HW  OW  HW  HW  OW  HW  HW  OW  HW  HW  OW  
HW  HW  OW  HW  HW  OW  HW  HW  OW  HW  HW  OW  HW  HW  OW  HW  HW  OW  HW  HW  
OW  HW  HW  OW  HW  HW  OW  HW  HW  OW  HW  HW  OW  HW  HW  OW  HW  HW  OW  HW  
HW  OW  HW  HW  OW  HW  HW  OW  HW  HW  OW  HW  HW  OW  HW  HW  OW  HW  HW  OW  
HW  HW  OW  HW  HW  OW  HW  HW  OW  HW  HW  OW  HW  HW  OW  HW  HW  OW  HW  HW  
OW  HW  HW  OW  HW  HW  OW  HW  HW  OW  HW  HW  OW  HW  HW  OW  HW  HW  OW  HW  
HW  OW  HW  HW  OW  HW  HW  OW  HW  HW  OW  HW  HW  OW  HW  HW  OW  HW  HW  OW  
HW  HW  OW  HW  HW  OW  HW  HW  OW  HW  HW  OW  HW  HW  OW  HW  HW  OW  HW  HW  
OW  HW  HW  OW  HW  HW  OW  HW  HW  OW  HW  HW  OW  HW  HW  OW  HW  HW  OW  HW  
HW  OW  HW  HW  OW  HW  HW  OW  HW  HW  OW  HW  HW  OW  HW  HW  OW  HW  HW  OW  
HW  HW  OW  HW  HW  OW  HW  HW  OW  HW  HW  OW  HW  HW  OW  HW  HW  OW  HW  HW  
OW  HW  HW  OW  HW  HW  OW  HW  HW  OW  HW  HW  OW  HW  HW  OW  HW  HW  OW  HW  
HW  OW  HW  HW  OW  HW  HW  OW  HW  HW  OW  HW  HW  OW  HW  HW  OW  HW  HW  OW  
HW  HW  OW  HW  HW  OW  HW  HW  OW  HW  HW  OW  HW  HW  OW  HW  HW  OW  HW  HW  
OW  HW  HW  OW  HW  HW  OW  HW  HW  OW  HW  HW  OW  HW  HW  OW  HW  HW  OW  HW  
HW  OW  HW  HW  OW  HW  HW  OW  HW  HW  OW  HW  HW  OW  HW  HW  OW  HW  HW  OW  
HW  HW  OW  HW  HW  OW  HW  HW  OW  HW  HW  OW  HW  HW  OW  HW  HW  OW  HW  HW  
OW  HW  HW  OW  HW  HW  OW  HW  HW  OW  HW  HW  OW  HW  HW  OW  HW  HW  OW  HW  
HW  OW  HW  HW  OW  HW  HW  OW  HW  HW  OW  HW  HW  OW  HW  HW  OW  HW  HW  OW  
HW  HW  OW  HW  HW  OW  HW  HW  OW  HW  HW  OW  HW  HW  OW  HW  HW  OW  HW  HW  
OW  HW  HW  OW  HW  HW  OW  HW  HW  OW  HW  HW  OW  HW  HW  OW  HW  HW  OW  HW  
HW  OW  HW  HW  OW  HW  HW  OW  HW  HW  OW  HW  HW  OW  HW  HW  OW  HW  HW  OW  
HW  HW  OW  HW  HW  OW  HW  HW  OW  HW  HW  OW  HW  HW  OW  HW  HW  OW  HW  HW  
OW  HW  HW  OW  HW  HW  OW  HW  HW  OW  HW  HW  OW  HW  HW  OW  HW  HW  OW  HW  
HW  OW  HW  HW  OW  HW  HW  OW  HW  HW  OW  HW  HW  OW  HW  HW  OW  HW  HW  OW  
HW  HW  OW  HW  HW  OW  HW  HW  OW  HW  HW  OW  HW  HW  OW  HW  HW  OW  HW  HW  
OW  HW  HW  OW  HW  HW  OW  HW  HW  OW  HW  HW  OW  HW  HW  OW  HW  HW  OW  HW  
HW  OW  HW  HW  OW  HW  HW  OW  HW  HW  OW  HW  HW  OW  HW  HW  OW  HW  HW  OW  
HW  HW  OW  HW  HW  OW  HW  HW  OW  HW  HW  OW  HW  HW  OW  HW  HW  OW  HW  HW  
OW  HW  HW  OW  HW  HW  OW  HW  HW  OW  HW  HW  OW  HW  HW  OW  HW  HW  OW  HW  
HW  OW  HW  HW  OW  HW  HW  OW  HW  HW  OW  HW  HW  OW  HW  HW  OW  HW  HW  OW  
HW  HW  OW  HW  HW  OW  HW  HW  OW  HW  HW  OW  HW  HW  OW  HW  HW  OW  HW  HW  
OW  HW  HW  OW  HW  HW  OW  HW  HW  OW  HW  HW  OW  HW  HW  OW  HW  HW  OW  HW  
HW  OW  HW  HW  OW  HW  HW  OW  HW  HW  OW  HW  HW  OW  HW  HW  OW  HW  HW  OW  
HW  HW  OW  HW  HW  OW  HW  HW  OW  HW  HW  OW  HW  HW  OW  HW  HW  OW  HW  HW  
OW  HW  HW  OW  HW  HW  OW  HW  HW  OW  HW  HW  OW  HW  HW  OW  HW  HW  OW  HW  
HW  OW  HW  HW  OW  HW  HW  OW  HW  HW  OW  HW  HW  OW  HW  HW  OW  HW  HW  OW  
HW  HW  OW  HW  HW  OW  HW  HW  OW  HW  HW  OW  HW  HW  OW  HW  HW  OW  HW  HW  
OW  HW  HW  OW  HW  HW  OW  HW  HW  OW  HW  HW  OW  HW  HW  OW  HW  HW  OW  HW  
HW  OW  HW  HW  OW  HW  HW  OW  HW  HW  OW  HW  HW  OW  HW  HW  OW  HW  HW  OW  
HW  HW  OW  HW  HW  OW  HW  HW  OW  HW  HW  OW  HW  HW  OW  HW  HW  OW  HW  HW  
OW  HW  HW  OW  HW  HW  OW  HW  HW  OW  HW  HW  OW  HW  HW  OW  HW  HW  OW  HW  
HW  OW  HW  HW  OW  HW  HW  OW  HW  HW  OW  HW  HW  OW  HW  HW  OW  HW  HW  OW  
HW  HW  OW  HW  HW  OW  HW  HW  OW  HW  HW  OW  HW  HW  OW  HW  HW  OW  HW  HW  
OW  HW  HW  OW  HW  HW  OW  HW  HW  OW  HW  HW  OW  HW  HW  OW  HW  HW  OW  HW  
HW  OW  HW  HW  OW  HW  HW  OW  HW  HW  OW  HW  HW  OW  HW  HW  OW  HW  HW  OW  
HW  HW  OW  HW  HW  OW  HW  HW  OW  HW  HW  OW  HW  HW  OW  HW  HW  OW  HW  HW  
OW  HW  HW  OW  HW  HW  OW  HW  HW  OW  HW  HW  OW  HW  HW  OW  HW  HW  OW  HW  
HW  OW  HW  HW  OW  HW  HW  OW  HW  HW  OW  HW  HW  OW  HW  HW  OW  HW  HW  OW  
HW  HW  OW  HW  HW  OW  HW  HW  OW  HW  HW  OW  HW  HW  OW  HW  HW  OW  HW  HW  
OW  HW  HW  OW  HW  HW  OW  HW  HW  OW  HW  HW  OW  HW  HW  OW  HW  HW  OW  HW  
HW  OW  HW  HW  OW  HW  HW  OW  HW  HW  OW  HW  HW  OW  HW  HW  OW  HW  HW  OW  
HW  HW  OW  HW  HW  OW  HW  HW  OW  HW  HW  OW  HW  HW  OW  HW  HW  OW  HW  HW  
OW  HW  HW  OW  HW  HW  OW  HW  HW  OW  HW  HW  OW  HW  HW  OW  HW  HW  OW  HW  
HW  OW  HW  HW  OW  HW  HW  OW  HW  HW  OW  HW  HW  OW  HW  HW  OW  HW  HW  OW  
HW  HW  OW  HW  HW  OW  HW  HW  OW  HW  HW  OW  HW  HW  OW  HW  HW  OW  HW  HW  
OW  HW  HW  OW  HW  HW  OW  HW  HW  OW  HW  HW  OW  HW  HW  OW  HW  HW  OW  HW  
HW  OW  HW  HW  OW  HW  HW  OW  HW  HW  OW  HW  HW  OW  HW  HW  OW  HW  HW  OW  
HW  HW  OW  HW  HW  OW  HW  HW  OW  HW  HW  OW  HW  HW  OW  HW  HW  OW  HW  HW  
OW  HW  HW  OW  HW  HW  OW  HW  HW  OW  HW  HW  OW  HW  HW  OW  HW  HW  OW  HW  
HW  OW  HW  HW  OW  HW  HW  OW  HW  HW  OW  HW  HW  OW  HW  HW  OW  HW  HW  OW  
HW  HW  OW  HW  HW  OW  HW  HW  OW  HW  HW  OW  HW  HW  OW  HW  HW  OW  HW  HW  
OW  HW  HW  OW  HW  HW  OW  HW  HW  OW  HW  HW  OW  HW  HW  OW  HW  HW  OW  HW  
HW  OW  HW  HW  OW  HW  HW  OW  HW  HW  OW  HW  HW  OW  HW  HW  OW  HW  HW  OW  
HW  HW  OW  HW  HW  OW  HW  HW  OW  HW  HW  OW  HW  HW  OW  HW  HW  OW  HW  HW  
OW  HW  HW  OW  HW  HW  OW  HW  HW  OW  HW  HW  OW  HW  HW  OW  HW  HW  OW  HW  
HW  OW  HW  HW  OW  HW  HW  OW  HW  HW  OW  HW  HW  OW  HW  HW  OW  HW  HW  OW  
HW  HW  OW  HW  HW  OW  HW  HW  OW  HW  HW  OW  HW  HW  OW  HW  HW  OW  HW  HW  
OW  HW  HW  OW  HW  HW  OW  HW  HW  OW  HW  HW  OW  HW  HW  OW  HW  HW  OW  HW  
HW  OW  HW  HW  OW  HW  HW  OW  HW  HW  OW  HW  HW  OW  HW  HW  OW  HW  HW  OW  
HW  HW  OW  HW  HW  OW  HW  HW  OW  HW  HW  OW  HW  HW  OW  HW  HW  OW  HW  HW  
OW  HW  HW  OW  HW  HW  OW  HW  HW  OW  HW  HW  OW  HW  HW  OW  HW  HW  OW  HW  
HW  OW  HW  HW  OW  HW  HW  OW  HW  HW  OW  HW  HW  OW  HW  HW  OW  HW  HW  OW  
HW  HW  OW  HW  HW  OW  HW  HW  OW  HW  HW  OW  HW  HW  OW  HW  HW  OW  HW  HW  
OW  HW  HW  OW  HW  HW  OW  HW  HW  OW  HW  HW  OW  HW  HW  OW  HW  HW  OW  HW  
HW  OW  HW  HW  OW  HW  HW  OW  HW  HW  OW  HW  HW  OW  HW  HW  OW  HW  HW  OW  
HW  HW  OW  HW  HW  OW  HW  HW  OW  HW  HW  OW  HW  HW  OW  HW  HW  OW  HW  HW  
OW  HW  HW  OW  HW  HW  OW  HW  HW  OW  HW  HW  OW  HW  HW  OW  HW  HW  OW  HW  
HW  OW  HW  HW  OW  HW  HW  OW  HW  HW  OW  HW  HW  OW  HW  HW  OW  HW  HW  OW  
HW  HW  OW  HW  HW  OW  HW  HW  OW  HW  HW  OW  HW  HW  OW  HW  HW  OW  HW  HW  
OW  HW  HW  OW  HW  HW  OW  HW  HW  OW  HW  HW  OW  HW  HW  OW  HW  HW  OW  HW  
HW  OW  HW  HW  OW  HW  HW  OW  HW  HW  OW  HW  HW  OW  HW  HW  OW  HW  HW  OW  
HW  HW  OW  HW  HW  OW  HW  HW  OW  HW  HW  OW  HW  HW  OW  HW  HW  OW  HW  HW  
OW  HW  HW  OW  HW  HW  OW  HW  HW  OW  HW  HW  OW  HW  HW  OW  HW  HW  OW  HW  
HW  OW  HW  HW  OW  HW  HW  OW  HW  HW  OW  HW  HW  OW  HW  HW  OW  HW  HW  OW  
HW  HW  OW  HW  HW  OW  HW  HW  OW  HW  HW  OW  HW  HW  OW  HW  HW  OW  HW  HW  
OW  HW  HW  OW  HW  HW  OW  HW  HW  OW  HW  HW  OW  HW  HW  OW  HW  HW  OW  HW  
HW  OW  HW  HW  OW  HW  HW  OW  HW  HW  OW  HW  HW  OW  HW  HW  OW  HW  HW  OW  
HW  HW  OW  HW  HW  OW  HW  HW  OW  HW  HW  OW  HW  HW  OW  HW  HW  OW  HW  HW  
OW  HW  HW  OW  HW  HW  OW  HW  HW  OW  HW  HW  OW  HW  HW  OW  HW  HW  OW  HW  
HW  OW  HW  HW  OW  HW  HW  OW  HW  HW  OW  HW  HW  OW  HW  HW  OW  HW  HW  OW  
HW  HW  OW  HW  HW  OW  HW  HW  OW  HW  HW  OW  HW  HW  OW  HW  HW  OW  HW  HW  
OW  HW  HW  OW  HW  HW  OW  HW  HW  OW  HW  HW  OW  HW  HW  OW  HW  HW  OW  HW  
HW  OW  HW  HW  OW  HW  HW  OW  HW  HW  OW  HW  HW  OW  HW  HW  OW  HW  HW  OW  
HW  HW  OW  HW  HW  OW  HW  HW  OW  HW  HW  OW  HW  HW  OW  HW  HW  OW  HW  HW  
OW  HW  HW  OW  HW  HW  OW  HW  HW  OW  HW  HW  OW  HW  HW  OW  HW  HW  OW  HW  
HW  OW  HW  HW  OW  HW  HW  OW  HW  HW  OW  HW  HW  OW  HW  HW  OW  HW  HW  OW  
HW  HW  OW  HW  HW  OW  HW  HW  OW  HW  HW  OW  HW  HW  OW  HW  HW  OW  HW  HW  
OW  HW  HW  OW  HW  HW  OW  HW  HW  OW  HW  HW  OW  HW  HW  OW  HW  HW  OW  HW  
HW  OW  HW  HW  OW  HW  HW  OW  HW  HW  OW  HW  HW  OW  HW  HW  OW  HW  HW  OW  
HW  HW  OW  HW  HW  OW  HW  HW  OW  HW  HW  OW  HW  HW  OW  HW  HW  OW  HW  HW  
OW  HW  HW  OW  HW  HW  OW  HW  HW  OW  HW  HW  OW  HW  HW  OW  HW  HW  OW  HW  
HW  OW  HW  HW  OW  HW  HW  OW  HW  HW  OW  HW  HW  OW  HW  HW  OW  HW  HW  OW  
HW  HW  OW  HW  HW  OW  HW  HW  OW  HW  HW  OW  HW  HW  OW  HW  HW  OW  HW  HW  
OW  HW  HW  OW  HW  HW  OW  HW  HW  OW  HW  HW  OW  HW  HW  OW  HW  HW  OW  HW  
HW  OW  HW  HW  OW  HW  HW  OW  HW  HW  OW  HW  HW  OW  HW  HW  OW  HW  HW  OW  
HW  HW  OW  HW  HW  OW  HW  HW  OW  HW  HW  OW  HW  HW  OW  HW  HW  OW  HW  HW  
OW  HW  HW  OW  HW  HW  OW  HW  HW  OW  HW  HW  OW  HW  HW  OW  HW  HW  OW  HW  
HW  OW  HW  HW  OW  HW  HW  OW  HW  HW  OW  HW  HW  OW  HW  HW  OW  HW  HW  OW  
HW  HW  OW  HW  HW  OW  HW  HW  OW  HW  HW  OW  HW  HW  OW  HW  HW  OW  HW  HW  
OW  HW  HW  OW  HW  HW  OW  HW  HW  OW  HW  HW  OW  HW  HW  OW  HW  HW  OW  HW  
HW  OW  HW  HW  OW  HW  HW  OW  HW  HW  OW  HW  HW  OW  HW  HW  OW  HW  HW  OW  
HW  HW  OW  HW  HW  OW  HW  HW  OW  HW  HW  OW  HW  HW  OW  HW  HW  OW  HW  HW  
OW  HW  HW  OW  HW  HW  OW  HW  HW  OW  HW  HW  OW  HW  HW  OW  HW  HW  OW  HW  
HW  OW  HW  HW  OW  HW  HW  OW  HW  HW  OW  HW  HW  OW  HW  HW  OW  HW  HW  OW  
HW  HW  OW  HW  HW  OW  HW  HW  OW  HW  HW  OW  HW  HW  OW  HW  HW  OW  HW  HW  
OW  HW  HW  OW  HW  HW  OW  HW  HW  OW  HW  HW  OW  HW  HW  OW  HW  HW  OW  HW  
HW  OW  HW  HW  OW  HW  HW  OW  HW  HW  OW  HW  HW  OW  HW  HW  OW  HW  HW  OW  
HW  HW  OW  HW  HW  OW  HW  HW  OW  HW  HW  OW  HW  HW  OW  HW  HW  OW  HW  HW  
OW  HW  HW  OW  HW  HW  OW  HW  HW  OW  HW  HW  OW  HW  HW  OW  HW  HW  OW  HW  
HW  OW  HW  HW  OW  HW  HW  OW  HW  HW  OW  HW  HW  OW  HW  HW  OW  HW  HW  OW  
HW  HW  OW  HW  HW  OW  HW  HW  OW  HW  HW  OW  HW  HW  OW  HW  HW  OW  HW  HW  
OW  HW  HW  OW  HW  HW  OW  HW  HW  OW  HW  HW  OW  HW  HW  OW  HW  HW  OW  HW  
HW  OW  HW  HW  OW  HW  HW  OW  HW  HW  OW  HW  HW  OW  HW  HW  OW  HW  HW  OW  
HW  HW  OW  HW  HW  OW  HW  HW  OW  HW  HW  OW  HW  HW  OW  HW  HW  OW  HW  HW  
OW  HW  HW  OW  HW  HW  OW  HW  HW  OW  HW  HW  OW  HW  HW  OW  HW  HW  OW  HW  
HW  OW  HW  HW  OW  HW  HW  OW  HW  HW  OW  HW  HW  OW  HW  HW  OW  HW  HW  OW  
HW  HW  OW  HW  HW  OW  HW  HW  OW  HW  HW  OW  HW  HW  OW  HW  HW  OW  HW  HW  
OW  HW  HW  OW  HW  HW  OW  HW  HW  OW  HW  HW  OW  HW  HW  OW  HW  HW  OW  HW  
HW  OW  HW  HW  OW  HW  HW  OW  HW  HW  OW  HW  HW  OW  HW  HW  OW  HW  HW  OW  
HW  HW  OW  HW  HW  OW  HW  HW  OW  HW  HW  OW  HW  HW  OW  HW  HW  OW  HW  HW  
OW  HW  HW  OW  HW  HW  OW  HW  HW  OW  HW  HW  OW  HW  HW  OW  HW  HW  OW  HW  
HW  OW  HW  HW  OW  HW  HW  OW  HW  HW  OW  HW  HW  OW  HW  HW  OW  HW  HW  OW  
HW  HW  OW  HW  HW  OW  HW  HW  OW  HW  HW  OW  HW  HW  OW  HW  HW  OW  HW  HW  
OW  HW  HW  OW  HW  HW  OW  HW  HW  OW  HW  HW  OW  HW  HW  OW  HW  HW  OW  HW  
HW  OW  HW  HW  OW  HW  HW  OW  HW  HW  OW  HW  HW  OW  HW  HW  OW  HW  HW  OW  
HW  HW  OW  HW  HW  OW  HW  HW  OW  HW  HW  OW  HW  HW  OW  HW  HW  OW  HW  HW  
OW  HW  HW  OW  HW  HW  OW  HW  HW  OW  HW  HW  OW  HW  HW  OW  HW  HW  OW  HW  
HW  OW  HW  HW  OW  HW  HW  OW  HW  HW  OW  HW  HW  OW  HW  HW  OW  HW  HW  OW  
HW  HW  OW  HW  HW  OW  HW  HW  OW  HW  HW  OW  HW  HW  OW  HW  HW  OW  HW  HW  
OW  HW  HW  OW  HW  HW  OW  HW  HW  OW  HW  HW  OW  HW  HW  OW  HW  HW  OW  HW  
HW  OW  HW  HW  OW  HW  HW  OW  HW  HW  OW  HW  HW  OW  HW  HW  OW  HW  HW  OW  
HW  HW  OW  HW  HW  OW  HW  HW  OW  HW  HW  OW  HW  HW  OW  HW  HW  OW  HW  HW  
OW  HW  HW  OW  HW  HW  OW  HW  HW  OW  HW  HW  OW  HW  HW  OW  HW  HW  OW  HW  
HW  OW  HW  HW  OW  HW  HW  OW  HW  HW  OW  HW  HW  OW  HW  HW  OW  HW  HW  OW  
HW  HW  OW  HW  HW  OW  HW  HW  OW  HW  HW  OW  HW  HW  OW  HW  HW  OW  HW  HW  
OW  HW  HW  OW  HW  HW  OW  HW  HW  OW  HW  HW  OW  HW  HW  OW  HW  HW  OW  HW  
HW  OW  HW  HW  OW  HW  HW  OW  HW  HW  OW  HW  HW  OW  HW  HW  OW  HW  HW  OW  
HW  HW  OW  HW  HW  OW  HW  HW  OW  HW  HW  OW  HW  HW  OW  HW  HW  OW  HW  HW  
OW  HW  HW  OW  HW  HW  OW  HW  HW  OW  HW  HW  OW  HW  HW  OW  HW  HW  OW  HW  
HW  OW  HW  HW  OW  HW  HW  OW  HW  HW  OW  HW  HW  OW  HW  HW  OW  HW  HW  OW  
HW  HW  OW  HW  HW  OW  HW  HW  OW  HW  HW  OW  HW  HW  OW  HW  HW  OW  HW  HW  
OW  HW  HW  OW  HW  HW  OW  HW  HW  OW  HW  HW  OW  HW  HW  OW  HW  HW  OW  HW  
HW  OW  HW  HW  OW  HW  HW  OW  HW  HW  OW  HW  HW  OW  HW  HW  OW  HW  HW  OW  
HW  HW  OW  HW  HW  OW  HW  HW  OW  HW  HW  OW  HW  HW  OW  HW  HW  OW  HW  HW  
OW  HW  HW  OW  HW  HW  OW  HW  HW  OW  HW  HW  OW  HW  HW  OW  HW  HW  OW  HW  
HW  OW  HW  HW  OW  HW  HW  OW  HW  HW  OW  HW  HW  OW  HW  HW  OW  HW  HW  OW  
HW  HW  OW  HW  HW  OW  HW  HW  OW  HW  HW  OW  HW  HW  OW  HW  HW  OW  HW  HW  
OW  HW  HW  OW  HW  HW  OW  HW  HW  OW  HW  HW  OW  HW  HW  OW  HW  HW  OW  HW  
HW  OW  HW  HW  OW  HW  HW  OW  HW  HW  OW  HW  HW  OW  HW  HW  OW  HW  HW  OW  
HW  HW  OW  HW  HW  OW  HW  HW  OW  HW  HW  OW  HW  HW  OW  HW  HW  OW  HW  HW  
OW  HW  HW  OW  HW  HW  OW  HW  HW  OW  HW  HW  OW  HW  HW  OW  HW  HW  OW  HW  
HW  OW  HW  HW  OW  HW  HW  OW  HW  HW  OW  HW  HW  OW  HW  HW  OW  HW  HW  OW  
HW  HW  OW  HW  HW  OW  HW  HW  OW  HW  HW  OW  HW  HW  OW  HW  HW  OW  HW  HW  
OW  HW  HW  OW  HW  HW  OW  HW  HW  OW  HW  HW  OW  HW  HW  OW  HW  HW  OW  HW  
HW  OW  HW  HW  OW  HW  HW  OW  HW  HW  OW  HW  HW  OW  HW  HW  OW  HW  HW  OW  
HW  HW  OW  HW  HW  OW  HW  HW  OW  HW  HW  OW  HW  HW  OW  HW  HW  OW  HW  HW  
OW  HW  HW  OW  HW  HW  OW  HW  HW  OW  HW  HW  OW  HW  HW  OW  HW  HW  OW  HW  
HW  OW  HW  HW  OW  HW  HW  OW  HW  HW  OW  HW  HW  OW  HW  HW  OW  HW  HW  OW  
HW  HW  OW  HW  HW  OW  HW  HW  OW  HW  HW  OW  HW  HW  OW  HW  HW  OW  HW  HW  
OW  HW  HW  OW  HW  HW  OW  HW  HW  OW  HW  HW  OW  HW  HW  OW  HW  HW  OW  HW  
HW  OW  HW  HW  OW  HW  HW  OW  HW  HW  OW  HW  HW  OW  HW  HW  OW  HW  HW  OW  
HW  HW  OW  HW  HW  OW  HW  HW  OW  HW  HW  OW  HW  HW  OW  HW  HW  OW  HW  HW  
OW  HW  HW  OW  HW  HW  OW  HW  HW  OW  HW  HW  OW  HW  HW  OW  HW  HW  OW  HW  
HW  OW  HW  HW  OW  HW  HW  OW  HW  HW  OW  HW  HW  OW  HW  HW  OW  HW  HW  OW  
HW  HW  OW  HW  HW  OW  HW  HW  OW  HW  HW  OW  HW  HW  OW  HW  HW  OW  HW  HW  
OW  HW  HW  OW  HW  HW  OW  HW  HW  OW  HW  HW  OW  HW  HW  OW  HW  HW  OW  HW  
HW  OW  HW  HW  OW  HW  HW  OW  HW  HW  OW  HW  HW  OW  HW  HW  OW  HW  HW  OW  
HW  HW  OW  HW  HW  OW  HW  HW  OW  HW  HW  OW  HW  HW  OW  HW  HW  OW  HW  HW  
OW  HW  HW  OW  HW  HW  OW  HW  HW  OW  HW  HW  OW  HW  HW  OW  HW  HW  OW  HW  
HW  OW  HW  HW  OW  HW  HW  OW  HW  HW  OW  HW  HW  OW  HW  HW  OW  HW  HW  OW  
HW  HW  OW  HW  HW  OW  HW  HW  OW  HW  HW  OW  HW  HW  OW  HW  HW  OW  HW  HW  
OW  HW  HW  OW  HW  HW  OW  HW  HW  OW  HW  HW  OW  HW  HW  OW  HW  HW  OW  HW  
HW  OW  HW  HW  OW  HW  HW  OW  HW  HW  OW  HW  HW  OW  HW  HW  OW  HW  HW  OW  
HW  HW  OW  HW  HW  OW  HW  HW  OW  HW  HW  OW  HW  HW  OW  HW  HW  OW  HW  HW  
OW  HW  HW  OW  HW  HW  OW  HW  HW  OW  HW  HW  OW  HW  HW  OW  HW  HW  OW  HW  
HW  OW  HW  HW  OW  HW  HW  OW  HW  HW  OW  HW  HW  OW  HW  HW  OW  HW  HW  OW  
HW  HW  OW  HW  HW  OW  HW  HW  OW  HW  HW  OW  HW  HW  OW  HW  HW  OW  HW  HW  
OW  HW  HW  OW  HW  HW  OW  HW  HW  OW  HW  HW  OW  HW  HW  OW  HW  HW  OW  HW  
HW  OW  HW  HW  OW  HW  HW  OW  HW  HW  OW  HW  HW  OW  HW  HW  OW  HW  HW  OW  
HW  HW  OW  HW  HW  OW  HW  HW  OW  HW  HW  OW  HW  HW  OW  HW  HW  OW  HW  HW  
OW  HW  HW  OW  HW  HW  OW  HW  HW  OW  HW  HW  OW  HW  HW  OW  HW  HW  OW  HW  
HW  OW  HW  HW  OW  HW  HW  OW  HW  HW  OW  HW  HW  OW  HW  HW  OW  HW  HW  OW  
HW  HW  OW  HW  HW  OW  HW  HW  OW  HW  HW  OW  HW  HW  OW  HW  HW  OW  HW  HW  
OW  HW  HW  OW  HW  HW  OW  HW  HW  OW  HW  HW  OW  HW  HW  OW  HW  HW  OW  HW  
HW  OW  HW  HW  OW  HW  HW  OW  HW  HW  OW  HW  HW  OW  HW  HW  OW  HW  HW  OW  
HW  HW  OW  HW  HW  OW  HW  HW  OW  HW  HW  OW  HW  HW  OW  HW  HW  OW  HW  HW  
OW  HW  HW  OW  HW  HW  OW  HW  HW  OW  HW  HW  OW  HW  HW  OW  HW  HW  OW  HW  
HW  OW  HW  HW  OW  HW  HW  OW  HW  HW  OW  HW  HW  OW  HW  HW  OW  HW  HW  OW  
HW  HW  OW  HW  HW  OW  HW  HW  OW  HW  HW  OW  HW  HW  OW  HW  HW  OW  HW  HW  
OW  HW  HW  OW  HW  HW  OW  HW  HW  OW  HW  HW  OW  HW  HW  OW  HW  HW  OW  HW  
HW  OW  HW  HW  OW  HW  HW  OW  HW  HW  OW  HW  HW  OW  HW  HW  OW  HW  HW  OW  
HW  HW  OW  HW  HW  OW  HW  HW  OW  HW  HW  OW  HW  HW  OW  HW  HW  OW  HW  HW  
OW  HW  HW  OW  HW  HW  OW  HW  HW  OW  HW  HW  OW  HW  HW  OW  HW  HW  OW  HW  
HW  OW  HW  HW  OW  HW  HW  OW  HW  HW  OW  HW  HW  OW  HW  HW  OW  HW  HW  OW  
HW  HW  OW  HW  HW  OW  HW  HW  OW  HW  HW  OW  HW  HW  OW  HW  HW  OW  HW  HW  
OW  HW  HW  OW  HW  HW  OW  HW  HW  OW  HW  HW  OW  HW  HW  OW  HW  HW  OW  HW  
HW  OW  HW  HW  OW  HW  HW  OW  HW  HW  OW  HW  HW  OW  HW  HW  OW  HW  HW  OW  
HW  HW  OW  HW  HW  OW  HW  HW  OW  HW  HW  OW  HW  HW  OW  HW  HW  OW  HW  HW  
OW  HW  HW  OW  HW  HW  OW  HW  HW  OW  HW  HW  OW  HW  HW  OW  HW  HW  OW  HW  
HW  OW  HW  HW  OW  HW  HW  OW  HW  HW  OW  HW  HW  OW  HW  HW  OW  HW  HW  OW  
HW  HW  OW  HW  HW  OW  HW  HW  OW  HW  HW  OW  HW  HW  OW  HW  HW  OW  HW  HW  
OW  HW  HW  OW  HW  HW  OW  HW  HW  OW  HW  HW  OW  HW  HW  OW  HW  HW  OW  HW  
HW  OW  HW  HW  OW  HW  HW  OW  HW  HW  OW  HW  HW  OW  HW  HW  OW  HW  HW  OW  
HW  HW  OW  HW  HW  OW  HW  HW  OW  HW  HW  OW  HW  HW  OW  HW  HW  OW  HW  HW  
OW  HW  HW  OW  HW  HW  OW  HW  HW  OW  HW  HW  OW  HW  HW  OW  HW  HW  OW  HW  
HW  OW  HW  HW  OW  HW  HW  OW  HW  HW  OW  HW  HW  OW  HW  HW  OW  HW  HW  OW  
HW  HW  OW  HW  HW  OW  HW  HW  OW  HW  HW  OW  HW  HW  OW  HW  HW  OW  HW  HW  
OW  HW  HW  OW  HW  HW  OW  HW  HW  OW  HW  HW  OW  HW  HW  OW  HW  HW  OW  HW  
HW  OW  HW  HW  OW  HW  HW  OW  HW  HW  OW  HW  HW  OW  HW  HW  OW  HW  HW  OW  
HW  HW  OW  HW  HW  OW  HW  HW  OW  HW  HW  OW  HW  HW  OW  HW  HW  OW  HW  HW  
OW  HW  HW  OW  HW  HW  OW  HW  HW  OW  HW  HW  OW  HW  HW  OW  HW  HW  OW  HW  
HW  OW  HW  HW  OW  HW  HW  OW  HW  HW  OW  HW  HW  OW  HW  HW  OW  HW  HW  OW  
HW  HW  OW  HW  HW  OW  HW  HW  OW  HW  HW  OW  HW  HW  OW  HW  HW  OW  HW  HW  
OW  HW  HW  OW  HW  HW  OW  HW  HW  OW  HW  HW  OW  HW  HW  OW  HW  HW  OW  HW  
HW  OW  HW  HW  OW  HW  HW  OW  HW  HW  OW  HW  HW  OW  HW  HW  OW  HW  HW  OW  
HW  HW  OW  HW  HW  OW  HW  HW  OW  HW  HW  OW  HW  HW  OW  HW  HW  OW  HW  HW  
OW  HW  HW  OW  HW  HW  OW  HW  HW  OW  HW  HW  OW  HW  HW  OW  HW  HW  OW  HW  
HW  OW  HW  HW  OW  HW  HW  OW  HW  HW  OW  HW  HW  OW  HW  HW  OW  HW  HW  OW  
HW  HW  OW  HW  HW  OW  HW  HW  OW  HW  HW  OW  HW  HW  OW  HW  HW  OW  HW  HW  
OW  HW  HW  OW  HW  HW  OW  HW  HW  OW  HW  HW  OW  HW  HW  OW  HW  HW  OW  HW  
HW  OW  HW  HW  OW  HW  HW  OW  HW  HW  OW  HW  HW  OW  HW  HW  OW  HW  HW  OW  
HW  HW  OW  HW  HW  OW  HW  HW  OW  HW  HW  OW  HW  HW  OW  HW  HW  OW  HW  HW  
OW  HW  HW  OW  HW  HW  OW  HW  HW  OW  HW  HW  OW  HW  HW  OW  HW  HW  OW  HW  
HW  OW  HW  HW  OW  HW  HW  OW  HW  HW  OW  HW  HW  OW  HW  HW  OW  HW  HW  OW  
HW  HW  OW  HW  HW  OW  HW  HW  OW  HW  HW  OW  HW  HW  OW  HW  HW  OW  HW  HW  
OW  HW  HW  OW  HW  HW  OW  HW  HW  OW  HW  HW  OW  HW  HW  OW  HW  HW  OW  HW  
HW  OW  HW  HW  OW  HW  HW  OW  HW  HW  OW  HW  HW  OW  HW  HW  OW  HW  HW  OW  
HW  HW  OW  HW  HW  OW  HW  HW  OW  HW  HW  OW  HW  HW  OW  HW  HW  OW  HW  HW  
OW  HW  HW  OW  HW  HW  OW  HW  HW  OW  HW  HW  OW  HW  HW  OW  HW  HW  OW  HW  
HW  OW  HW  HW  OW  HW  HW  OW  HW  HW  OW  HW  HW  OW  HW  HW  OW  HW  HW  OW  
HW  HW  OW  HW  HW  OW  HW  HW  OW  HW  HW  OW  HW  HW  OW  HW  HW  OW  HW  HW  
OW  HW  HW  OW  HW  HW  OW  HW  HW  OW  HW  HW  OW  HW  HW  OW  HW  HW  OW  HW  
HW  OW  HW  HW  OW  HW  HW  OW  HW  HW  OW  HW  HW  OW  HW  HW  OW  HW  HW  OW  
HW  HW  OW  HW  HW  OW  HW  HW  OW  HW  HW  OW  HW  HW  OW  HW  HW  OW  HW  HW  
OW  HW  HW  OW  HW  HW  OW  HW  HW  OW  HW  HW  OW  HW  HW  OW  HW  HW  OW  HW  
HW  OW  HW  HW  OW  HW  HW  OW  HW  HW  OW  HW  HW  OW  HW  HW  OW  HW  HW  OW  
HW  HW  OW  HW  HW  OW  HW  HW  OW  HW  HW  OW  HW  HW  OW  HW  HW  OW  HW  HW  
OW  HW  HW  OW  HW  HW  OW  HW  HW  OW  HW  HW  OW  HW  HW  OW  HW  HW  OW  HW  
HW  OW  HW  HW  OW  HW  HW  OW  HW  HW  OW  HW  HW  OW  HW  HW  OW  HW  HW  OW  
HW  HW  OW  HW  HW  OW  HW  HW  OW  HW  HW  OW  HW  HW  OW  HW  HW  OW  HW  HW  
OW  HW  HW  OW  HW  HW  OW  HW  HW  OW  HW  HW  OW  HW  HW  OW  HW  HW  OW  HW  
HW  OW  HW  HW  OW  HW  HW  OW  HW  HW  OW  HW  HW  OW  HW  HW  OW  HW  HW  OW  
HW  HW  OW  HW  HW  OW  HW  HW  OW  HW  HW  OW  HW  HW  OW  HW  HW  OW  HW  HW  
OW  HW  HW  OW  HW  HW  OW  HW  HW  OW  HW  HW  OW  HW  HW  OW  HW  HW  OW  HW  
HW  OW  HW  HW  OW  HW  HW  OW  HW  HW  OW  HW  HW  OW  HW  HW  OW  HW  HW  OW  
HW  HW  OW  HW  HW  OW  HW  HW  OW  HW  HW  OW  HW  HW  OW  HW  HW  OW  HW  HW  
OW  HW  HW  OW  HW  HW  OW  HW  HW  OW  HW  HW  OW  HW  HW  OW  HW  HW  OW  HW  
HW  OW  HW  HW  OW  HW  HW  OW  HW  HW  OW  HW  HW  OW  HW  HW  OW  HW  HW  OW  
HW  HW  OW  HW  HW  OW  HW  HW  OW  HW  HW  OW  HW  HW  OW  HW  HW  OW  HW  HW  
OW  HW  HW  OW  HW  HW  OW  HW  HW  OW  HW  HW  OW  HW  HW  OW  HW  HW  OW  HW  
HW  OW  HW  HW  OW  HW  HW  OW  HW  HW  OW  HW  HW  OW  HW  HW  OW  HW  HW  OW  
HW  HW  OW  HW  HW  OW  HW  HW  OW  HW  HW  OW  HW  HW  OW  HW  HW  OW  HW  HW  
OW  HW  HW  OW  HW  HW  OW  HW  HW  OW  HW  HW  OW  HW  HW  OW  HW  HW  OW  HW  
HW  OW  HW  HW  OW  HW  HW  OW  HW  HW  OW  HW  HW  OW  HW  HW  OW  HW  HW  OW  
HW  HW  OW  HW  HW  OW  HW  HW  OW  HW  HW  OW  HW  HW  OW  HW  HW  OW  HW  HW  
OW  HW  HW  OW  HW  HW  OW  HW  HW  OW  HW  HW  OW  HW  HW  OW  HW  HW  OW  HW  
HW  OW  HW  HW  OW  HW  HW  OW  HW  HW  OW  HW  HW  OW  HW  HW  OW  HW  HW  OW  
HW  HW  OW  HW  HW  OW  HW  HW  OW  HW  HW  OW  HW  HW  OW  HW  HW  OW  HW  HW  
OW  HW  HW  OW  HW  HW  OW  HW  HW  OW  HW  HW  OW  HW  HW  OW  HW  HW  OW  HW  
HW  OW  HW  HW  OW  HW  HW  OW  HW  HW  OW  HW  HW  OW  HW  HW  OW  HW  HW  OW  
HW  HW  OW  HW  HW  OW  HW  HW  OW  HW  HW  OW  HW  HW  OW  HW  HW  OW  HW  HW  
OW  HW  HW  OW  HW  HW  OW  HW  HW  OW  HW  HW  OW  HW  HW  OW  HW  HW  OW  HW  
HW  OW  HW  HW  OW  HW  HW  OW  HW  HW  OW  HW  HW  OW  HW  HW  OW  HW  HW  OW  
HW  HW  OW  HW  HW  OW  HW  HW  OW  HW  HW  OW  HW  HW  OW  HW  HW  OW  HW  HW  
OW  HW  HW  OW  HW  HW  OW  HW  HW  OW  HW  HW  OW  HW  HW  OW  HW  HW  OW  HW  
HW  OW  HW  HW  OW  HW  HW  OW  HW  HW  OW  HW  HW  OW  HW  HW  OW  HW  HW  OW  
HW  HW  OW  HW  HW  OW  HW  HW  OW  HW  HW  OW  HW  HW  OW  HW  HW  OW  HW  HW  
OW  HW  HW  OW  HW  HW  OW  HW  HW  OW  HW  HW  OW  HW  HW  OW  HW  HW  OW  HW  
HW  OW  HW  HW  OW  HW  HW  OW  HW  HW  OW  HW  HW  OW  HW  HW  OW  HW  HW  OW  
HW  HW  OW  HW  HW  OW  HW  HW  OW  HW  HW  OW  HW  HW  OW  HW  HW  OW  HW  HW  
OW  HW  HW  OW  HW  HW  OW  HW  HW  OW  HW  HW  OW  HW  HW  OW  HW  HW  OW  HW  
HW  OW  HW  HW  OW  HW  HW  OW  HW  HW  OW  HW  HW  OW  HW  HW  OW  HW  HW  OW  
HW  HW  OW  HW  HW  OW  HW  HW  OW  HW  HW  OW  HW  HW  OW  HW  HW  OW  HW  HW  
OW  HW  HW  OW  HW  HW  OW  HW  HW  OW  HW  HW  OW  HW  HW  OW  HW  HW  OW  HW  
HW  OW  HW  HW  OW  HW  HW  OW  HW  HW  OW  HW  HW  OW  HW  HW  OW  HW  HW  OW  
HW  HW  OW  HW  HW  OW  HW  HW  OW  HW  HW  OW  HW  HW  OW  HW  HW  OW  HW  HW  
OW  HW  HW  OW  HW  HW  OW  HW  HW  OW  HW  HW  OW  HW  HW  OW  HW  HW  OW  HW  
HW  OW  HW  HW  OW  HW  HW  OW  HW  HW  OW  HW  HW  OW  HW  HW  OW  HW  HW  OW  
HW  HW  OW  HW  HW  OW  HW  HW  OW  HW  HW  OW  HW  HW  OW  HW  HW  OW  HW  HW  
OW  HW  HW  OW  HW  HW  OW  HW  HW  OW  HW  HW  OW  HW  HW  OW  HW  HW  OW  HW  
HW  OW  HW  HW  OW  HW  HW  OW  HW  HW  OW  HW  HW  OW  HW  HW  OW  HW  HW  OW  
HW  HW  OW  HW  HW  OW  HW  HW  OW  HW  HW  OW  HW  HW  OW  HW  HW  OW  HW  HW  
OW  HW  HW  OW  HW  HW  OW  HW  HW  OW  HW  HW  OW  HW  HW  OW  HW  HW  OW  HW  
HW  OW  HW  HW  OW  HW  HW  OW  HW  HW  OW  HW  HW  OW  HW  HW  OW  HW  HW  OW  
HW  HW  OW  HW  HW  OW  HW  HW  OW  HW  HW  OW  HW  HW  OW  HW  HW  OW  HW  HW  
OW  HW  HW  OW  HW  HW  OW  HW  HW  OW  HW  HW  OW  HW  HW  OW  HW  HW  OW  HW  
HW  OW  HW  HW  OW  HW  HW  OW  HW  HW  OW  HW  HW  OW  HW  HW  OW  HW  HW  OW  
HW  HW  OW  HW  HW  OW  HW  HW  OW  HW  HW  OW  HW  HW  OW  HW  HW  OW  HW  HW  
OW  HW  HW  OW  HW  HW  OW  HW  HW  OW  HW  HW  OW  HW  HW  OW  HW  HW  OW  HW  
HW  OW  HW  HW  OW  HW  HW  OW  HW  HW  OW  HW  HW  OW  HW  HW  OW  HW  HW  OW  
HW  HW  OW  HW  HW  OW  HW  HW  OW  HW  HW  OW  HW  HW  OW  HW  HW  OW  HW  HW  
OW  HW  HW  OW  HW  HW  OW  HW  HW  OW  HW  HW  OW  HW  HW  OW  HW  HW  OW  HW  
HW  OW  HW  HW  OW  HW  HW  OW  HW  HW  OW  HW  HW  OW  HW  HW  OW  HW  HW  OW  
HW  HW  OW  HW  HW  OW  HW  HW  OW  HW  HW  OW  HW  HW  OW  HW  HW  OW  HW  HW  
OW  HW  HW  OW  HW  HW  OW  HW  HW  OW  HW  HW  OW  HW  HW  OW  HW  HW  OW  HW  
HW  OW  HW  HW  OW  HW  HW  OW  HW  HW  OW  HW  HW  OW  HW  HW  OW  HW  HW  OW  
HW  HW  OW  HW  HW  OW  HW  HW  OW  HW  HW  OW  HW  HW  OW  HW  HW  OW  HW  HW  
OW  HW  HW  OW  HW  HW  OW  HW  HW  OW  HW  HW  OW  HW  HW  OW  HW  HW  OW  HW  
HW  OW  HW  HW  OW  HW  HW  OW  HW  HW  OW  HW  HW  OW  HW  HW  OW  HW  HW  OW  
HW  HW  OW  HW  HW  OW  HW  HW  OW  HW  HW  OW  HW  HW  OW  HW  HW  OW  HW  HW  
OW  HW  HW  OW  HW  HW  OW  HW  HW  OW  HW  HW  OW  HW  HW  OW  HW  HW  OW  HW  
HW  OW  HW  HW  OW  HW  HW  OW  HW  HW  OW  HW  HW  OW  HW  HW  OW  HW  HW  OW  
HW  HW  OW  HW  HW  OW  HW  HW  OW  HW  HW  OW  HW  HW  OW  HW  HW  OW  HW  HW  
OW  HW  HW  OW  HW  HW  OW  HW  HW  OW  HW  HW  OW  HW  HW  OW  HW  HW  OW  HW  
HW  OW  HW  HW  OW  HW  HW  OW  HW  HW  OW  HW  HW  OW  HW  HW  OW  HW  HW  OW  
HW  HW  OW  HW  HW  OW  HW  HW  OW  HW  HW  OW  HW  HW  OW  HW  HW  OW  HW  HW  
OW  HW  HW  OW  HW  HW  OW  HW  HW  OW  HW  HW  OW  HW  HW  OW  HW  HW  OW  HW  
HW  OW  HW  HW  OW  HW  HW  OW  HW  HW  OW  HW  HW  OW  HW  HW  OW  HW  HW  OW  
HW  HW  OW  HW  HW  OW  HW  HW  OW  HW  HW  OW  HW  HW  OW  HW  HW  OW  HW  HW  
OW  HW  HW  OW  HW  HW  OW  HW  HW  OW  HW  HW  OW  HW  HW  OW  HW  HW  OW  HW  
HW  OW  HW  HW  OW  HW  HW  OW  HW  HW  OW  HW  HW  OW  HW  HW  OW  HW  HW  OW  
HW  HW  OW  HW  HW  OW  HW  HW  OW  HW  HW  OW  HW  HW  OW  HW  HW  OW  HW  HW  
OW  HW  HW  OW  HW  HW  OW  HW  HW  OW  HW  HW  OW  HW  HW  OW  HW  HW  OW  HW  
HW  OW  HW  HW  OW  HW  HW  OW  HW  HW  OW  HW  HW  OW  HW  HW  OW  HW  HW  OW  
HW  HW  OW  HW  HW  OW  HW  HW  OW  HW  HW  OW  HW  HW  OW  HW  HW  OW  HW  HW  
OW  HW  HW  OW  HW  HW  OW  HW  HW  OW  HW  HW  OW  HW  HW  OW  HW  HW  OW  HW  
HW  OW  HW  HW  OW  HW  HW  OW  HW  HW  OW  HW  HW  OW  HW  HW  OW  HW  HW  OW  
HW  HW  OW  HW  HW  OW  HW  HW  OW  HW  HW  OW  HW  HW  OW  HW  HW  OW  HW  HW  
OW  HW  HW  OW  HW  HW  OW  HW  HW  OW  HW  HW  OW  HW  HW  OW  HW  HW  OW  HW  
HW  OW  HW  HW  OW  HW  HW  OW  HW  HW  OW  HW  HW  OW  HW  HW  OW  HW  HW  OW  
HW  HW  OW  HW  HW  OW  HW  HW  OW  HW  HW  OW  HW  HW  OW  HW  HW  OW  HW  HW  
OW  HW  HW  OW  HW  HW  OW  HW  HW  OW  HW  HW  OW  HW  HW  OW  HW  HW  OW  HW  
HW  OW  HW  HW  OW  HW  HW  OW  HW  HW  OW  HW  HW  OW  HW  HW  OW  HW  HW  OW  
HW  HW  OW  HW  HW  OW  HW  HW  OW  HW  HW  OW  HW  HW  OW  HW  HW  OW  HW  HW  
OW  HW  HW  OW  HW  HW  OW  HW  HW  OW  HW  HW  OW  HW  HW  OW  HW  HW  OW  HW  
HW  OW  HW  HW  OW  HW  HW  OW  HW  HW  OW  HW  HW  OW  HW  HW  OW  HW  HW  OW  
HW  HW  OW  HW  HW  OW  HW  HW  OW  HW  HW  OW  HW  HW  OW  HW  HW  OW  HW  HW  
OW  HW  HW  OW  HW  HW  OW  HW  HW  OW  HW  HW  OW  HW  HW  OW  HW  HW  OW  HW  
HW  OW  HW  HW  OW  HW  HW  OW  HW  HW  OW  HW  HW  OW  HW  HW  OW  HW  HW  OW  
HW  HW  OW  HW  HW  OW  HW  HW  OW  HW  HW  OW  HW  HW  OW  HW  HW  OW  HW  HW  
OW  HW  HW  OW  HW  HW  OW  HW  HW  OW  HW  HW  OW  HW  HW  OW  HW  HW  OW  HW  
HW  OW  HW  HW  OW  HW  HW  OW  HW  HW  OW  HW  HW  OW  HW  HW  OW  HW  HW  OW  
HW  HW  OW  HW  HW  OW  HW  HW  OW  HW  HW  OW  HW  HW  OW  HW  HW  OW  HW  HW  
OW  HW  HW  OW  HW  HW  OW  HW  HW  OW  HW  HW  OW  HW  HW  OW  HW  HW  OW  HW  
HW  OW  HW  HW  OW  HW  HW  OW  HW  HW  OW  HW  HW  OW  HW  HW  OW  HW  HW  OW  
HW  HW  OW  HW  HW  OW  HW  HW  OW  HW  HW  OW  HW  HW  OW  HW  HW  OW  HW  HW  
OW  HW  HW  OW  HW  HW  OW  HW  HW  OW  HW  HW  OW  HW  HW  OW  HW  HW  OW  HW  
HW  OW  HW  HW  OW  HW  HW  OW  HW  HW  OW  HW  HW  OW  HW  HW  OW  HW  HW  OW  
HW  HW  OW  HW  HW  OW  HW  HW  OW  HW  HW  OW  HW  HW  OW  HW  HW  OW  HW  HW  
OW  HW  HW  OW  HW  HW  OW  HW  HW  OW  HW  HW  OW  HW  HW  OW  HW  HW  OW  HW  
HW  OW  HW  HW  OW  HW  HW  OW  HW  HW  OW  HW  HW  OW  HW  HW  OW  HW  HW  OW  
HW  HW  OW  HW  HW  OW  HW  HW  OW  HW  HW  OW  HW  HW  OW  HW  HW  OW  HW  HW  
OW  HW  HW  OW  HW  HW  OW  HW  HW  OW  HW  HW  OW  HW  HW  OW  HW  HW  OW  HW  
HW  OW  HW  HW  OW  HW  HW  OW  HW  HW  OW  HW  HW  OW  HW  HW  OW  HW  HW  OW  
HW  HW  OW  HW  HW  OW  HW  HW  OW  HW  HW  OW  HW  HW  OW  HW  HW  OW  HW  HW  
OW  HW  HW  OW  HW  HW  OW  HW  HW  OW  HW  HW  OW  HW  HW  OW  HW  HW  OW  HW  
HW  OW  HW  HW  OW  HW  HW  OW  HW  HW  OW  HW  HW  OW  HW  HW  OW  HW  HW  OW  
HW  HW  OW  HW  HW  OW  HW  HW  OW  HW  HW  OW  HW  HW  OW  HW  HW  OW  HW  HW  
OW  HW  HW  OW  HW  HW  OW  HW  HW  OW  HW  HW  OW  HW  HW  OW  HW  HW  OW  HW  
HW  OW  HW  HW  OW  HW  HW  OW  HW  HW  OW  HW  HW  OW  HW  HW  OW  HW  HW  OW  
HW  HW  OW  HW  HW  OW  HW  HW  OW  HW  HW  OW  HW  HW  OW  HW  HW  OW  HW  HW  
OW  HW  HW  OW  HW  HW  OW  HW  HW  OW  HW  HW  OW  HW  HW  OW  HW  HW  OW  HW  
HW  OW  HW  HW  OW  HW  HW  OW  HW  HW  OW  HW  HW  OW  HW  HW  OW  HW  HW  OW  
HW  HW  OW  HW  HW  OW  HW  HW  OW  HW  HW  OW  HW  HW  OW  HW  HW  OW  HW  HW  
OW  HW  HW  OW  HW  HW  OW  HW  HW  OW  HW  HW  OW  HW  HW  OW  HW  HW  OW  HW  
HW  OW  HW  HW  OW  HW  HW  OW  HW  HW  OW  HW  HW  OW  HW  HW  OW  HW  HW  OW  
HW  HW  OW  HW  HW  OW  HW  HW  OW  HW  HW  OW  HW  HW  OW  HW  HW  OW  HW  HW  
OW  HW  HW  OW  HW  HW  OW  HW  HW  OW  HW  HW  OW  HW  HW  OW  HW  HW  OW  HW  
HW  OW  HW  HW  OW  HW  HW  OW  HW  HW  OW  HW  HW  OW  HW  HW  OW  HW  HW  OW  
HW  HW  OW  HW  HW  OW  HW  HW  OW  HW  HW  OW  HW  HW  OW  HW  HW  OW  HW  HW  
OW  HW  HW  OW  HW  HW  OW  HW  HW  OW  HW  HW  OW  HW  HW  OW  HW  HW  OW  HW  
HW  OW  HW  HW  OW  HW  HW  OW  HW  HW  OW  HW  HW  OW  HW  HW  OW  HW  HW  OW  
HW  HW  OW  HW  HW  OW  HW  HW  OW  HW  HW  OW  HW  HW  OW  HW  HW  OW  HW  HW  
OW  HW  HW  OW  HW  HW  OW  HW  HW  OW  HW  HW  OW  HW  HW  OW  HW  HW  OW  HW  
HW  OW  HW  HW  OW  HW  HW  OW  HW  HW  OW  HW  HW  OW  HW  HW  OW  HW  HW  OW  
HW  HW  OW  HW  HW  OW  HW  HW  OW  HW  HW  OW  HW  HW  OW  HW  HW  OW  HW  HW  
OW  HW  HW  OW  HW  HW  OW  HW  HW  OW  HW  HW  OW  HW  HW  OW  HW  HW  OW  HW  
HW  OW  HW  HW  OW  HW  HW  OW  HW  HW  OW  HW  HW  OW  HW  HW  OW  HW  HW  OW  
HW  HW  OW  HW  HW  OW  HW  HW  OW  HW  HW  OW  HW  HW  OW  HW  HW  OW  HW  HW  
OW  HW  HW  OW  HW  HW  OW  HW  HW  OW  HW  HW  OW  HW  HW  OW  HW  HW  OW  HW  
HW  OW  HW  HW  OW  HW  HW  OW  HW  HW  OW  HW  HW  OW  HW  HW  OW  HW  HW  OW  
HW  HW  OW  HW  HW  OW  HW  HW  OW  HW  HW  OW  HW  HW  OW  HW  HW  OW  HW  HW  
OW  HW  HW  OW  HW  HW  OW  HW  HW  OW  HW  HW  OW  HW  HW  OW  HW  HW  OW  HW  
HW  OW  HW  HW  OW  HW  HW  OW  HW  HW  OW  HW  HW  OW  HW  HW  OW  HW  HW  OW  
HW  HW  OW  HW  HW  OW  HW  HW  OW  HW  HW  OW  HW  HW  OW  HW  HW  OW  HW  HW  
OW  HW  HW  OW  HW  HW  OW  HW  HW  OW  HW  HW  OW  HW  HW  OW  HW  HW  OW  HW  
HW  OW  HW  HW  OW  HW  HW  OW  HW  HW  OW  HW  HW  OW  HW  HW  OW  HW  HW  OW  
HW  HW  OW  HW  HW  OW  HW  HW  OW  HW  HW  OW  HW  HW  OW  HW  HW  OW  HW  HW  
OW  HW  HW  OW  HW  HW  OW  HW  HW  OW  HW  HW  OW  HW  HW  OW  HW  HW  OW  HW  
HW  OW  HW  HW  OW  HW  HW  OW  HW  HW  OW  HW  HW  OW  HW  HW  OW  HW  HW  OW  
HW  HW  OW  HW  HW  OW  HW  HW  OW  HW  HW  OW  HW  HW  OW  HW  HW  OW  HW  HW  
OW  HW  HW  OW  HW  HW  OW  HW  HW  OW  HW  HW  OW  HW  HW  OW  HW  HW  OW  HW  
HW  OW  HW  HW  OW  HW  HW  OW  HW  HW  OW  HW  HW  OW  HW  HW  OW  HW  HW  OW  
HW  HW  OW  HW  HW  OW  HW  HW  OW  HW  HW  OW  HW  HW  OW  HW  HW  OW  HW  HW  
OW  HW  HW  OW  HW  HW  OW  HW  HW  OW  HW  HW  OW  HW  HW  OW  HW  HW  OW  HW  
HW  OW  HW  HW  OW  HW  HW  OW  HW  HW  OW  HW  HW  OW  HW  HW  OW  HW  HW  OW  
HW  HW  OW  HW  HW  OW  HW  HW  OW  HW  HW  OW  HW  HW  OW  HW  HW  OW  HW  HW  
OW  HW  HW  OW  HW  HW  OW  HW  HW  OW  HW  HW  OW  HW  HW  OW  HW  HW  OW  HW  
HW  OW  HW  HW  OW  HW  HW  OW  HW  HW  OW  HW  HW  OW  HW  HW  OW  HW  HW  OW  
HW  HW  OW  HW  HW  OW  HW  HW  OW  HW  HW  OW  HW  HW  OW  HW  HW  OW  HW  HW  
OW  HW  HW  OW  HW  HW  OW  HW  HW  OW  HW  HW  OW  HW  HW  OW  HW  HW  OW  HW  
HW  OW  HW  HW  OW  HW  HW  OW  HW  HW  OW  HW  HW  OW  HW  HW  OW  HW  HW  OW  
HW  HW  OW  HW  HW  OW  HW  HW  OW  HW  HW  OW  HW  HW  OW  HW  HW  OW  HW  HW  
OW  HW  HW  OW  HW  HW  OW  HW  HW  OW  HW  HW  OW  HW  HW  OW  HW  HW  OW  HW  
HW  OW  HW  HW  OW  HW  HW  OW  HW  HW  OW  HW  HW  OW  HW  HW  OW  HW  HW  OW  
HW  HW  OW  HW  HW  OW  HW  HW  OW  HW  HW  OW  HW  HW  OW  HW  HW  OW  HW  HW  
OW  HW  HW  OW  HW  HW  OW  HW  HW  OW  HW  HW  OW  HW  HW  OW  HW  HW  OW  HW  
HW  OW  HW  HW  OW  HW  HW  OW  HW  HW  OW  HW  HW  OW  HW  HW  OW  HW  HW  OW  
HW  HW  OW  HW  HW  OW  HW  HW  OW  HW  HW  OW  HW  HW  OW  HW  HW  OW  HW  HW  
OW  HW  HW  OW  HW  HW  OW  HW  HW  OW  HW  HW  OW  HW  HW  OW  HW  HW  OW  HW  
HW  OW  HW  HW  OW  HW  HW  OW  HW  HW  OW  HW  HW  OW  HW  HW  OW  HW  HW  OW  
HW  HW  OW  HW  HW  OW  HW  HW  OW  HW  HW  OW  HW  HW  OW  HW  HW  OW  HW  HW  
OW  HW  HW  OW  HW  HW  OW  HW  HW  OW  HW  HW  OW  HW  HW  OW  HW  HW  OW  HW  
HW  OW  HW  HW  OW  HW  HW  OW  HW  HW  OW  HW  HW  OW  HW  HW  OW  HW  HW  OW  
HW  HW  OW  HW  HW  OW  HW  HW  OW  HW  HW  OW  HW  HW  OW  HW  HW  OW  HW  HW  
OW  HW  HW  OW  HW  HW  OW  HW  HW  OW  HW  HW  OW  HW  HW  OW  HW  HW  OW  HW  
HW  OW  HW  HW  OW  HW  HW  OW  HW  HW  OW  HW  HW  OW  HW  HW  OW  HW  HW  OW  
HW  HW  OW  HW  HW  OW  HW  HW  OW  HW  HW  OW  HW  HW  OW  HW  HW  OW  HW  HW  
OW  HW  HW  OW  HW  HW  OW  HW  HW  OW  HW  HW  OW  HW  HW  OW  HW  HW  OW  HW  
HW  OW  HW  HW  OW  HW  HW  OW  HW  HW  OW  HW  HW  OW  HW  HW  OW  HW  HW  OW  
HW  HW  OW  HW  HW  OW  HW  HW  OW  HW  HW  OW  HW  HW  OW  HW  HW  OW  HW  HW  
OW  HW  HW  OW  HW  HW  OW  HW  HW  OW  HW  HW  OW  HW  HW  OW  HW  HW  OW  HW  
HW  OW  HW  HW  OW  HW  HW  OW  HW  HW  OW  HW  HW  OW  HW  HW  OW  HW  HW  OW  
HW  HW  OW  HW  HW  OW  HW  HW  OW  HW  HW  OW  HW  HW  OW  HW  HW  OW  HW  HW  
OW  HW  HW  OW  HW  HW  OW  HW  HW  OW  HW  HW  OW  HW  HW  OW  HW  HW  OW  HW  
HW  OW  HW  HW  OW  HW  HW  OW  HW  HW  OW  HW  HW  OW  HW  HW  OW  HW  HW  OW  
HW  HW  OW  HW  HW  OW  HW  HW  OW  HW  HW  OW  HW  HW  OW  HW  HW  OW  HW  HW  
OW  HW  HW  OW  HW  HW  OW  HW  HW  OW  HW  HW  OW  HW  HW  OW  HW  HW  OW  HW  
HW  OW  HW  HW  OW  HW  HW  OW  HW  HW  OW  HW  HW  OW  HW  HW  OW  HW  HW  OW  
HW  HW  OW  HW  HW  OW  HW  HW  OW  HW  HW  OW  HW  HW  OW  HW  HW  OW  HW  HW  
OW  HW  HW  OW  HW  HW  OW  HW  HW  OW  HW  HW  OW  HW  HW  OW  HW  HW  OW  HW  
HW  OW  HW  HW  OW  HW  HW  OW  HW  HW  OW  HW  HW  OW  HW  HW  OW  HW  HW  OW  
HW  HW  OW  HW  HW  OW  HW  HW  OW  HW  HW  OW  HW  HW  OW  HW  HW  OW  HW  HW  
OW  HW  HW  OW  HW  HW  OW  HW  HW  OW  HW  HW  OW  HW  HW  OW  HW  HW  OW  HW  
HW  OW  HW  HW  OW  HW  HW  OW  HW  HW  OW  HW  HW  OW  HW  HW  OW  HW  HW  OW  
HW  HW  OW  HW  HW  OW  HW  HW  OW  HW  HW  OW  HW  HW  OW  HW  HW  OW  HW  HW  
OW  HW  HW  OW  HW  HW  OW  HW  HW  OW  HW  HW  OW  HW  HW  OW  HW  HW  OW  HW  
HW  OW  HW  HW  OW  HW  HW  OW  HW  HW  OW  HW  HW  OW  HW  HW  OW  HW  HW  OW  
HW  HW  OW  HW  HW  OW  HW  HW  OW  HW  HW  OW  HW  HW  OW  HW  HW  OW  HW  HW  
OW  HW  HW  OW  HW  HW  OW  HW  HW  OW  HW  HW  OW  HW  HW  OW  HW  HW  OW  HW  
HW  OW  HW  HW  OW  HW  HW  OW  HW  HW  OW  HW  HW  OW  HW  HW  OW  HW  HW  OW  
HW  HW  OW  HW  HW  OW  HW  HW  OW  HW  HW  OW  HW  HW  OW  HW  HW  OW  HW  HW  
OW  HW  HW  OW  HW  HW  OW  HW  HW  OW  HW  HW  OW  HW  HW  OW  HW  HW  OW  HW  
HW  OW  HW  HW  OW  HW  HW  OW  HW  HW  OW  HW  HW  OW  HW  HW  OW  HW  HW  OW  
HW  HW  OW  HW  HW  OW  HW  HW  OW  HW  HW  OW  HW  HW  OW  HW  HW  OW  HW  HW  
OW  HW  HW  OW  HW  HW  OW  HW  HW  OW  HW  HW  OW  HW  HW  OW  HW  HW  OW  HW  
HW  OW  HW  HW  OW  HW  HW  OW  HW  HW  OW  HW  HW  OW  HW  HW  OW  HW  HW  OW  
HW  HW  OW  HW  HW  OW  HW  HW  OW  HW  HW  OW  HW  HW  OW  HW  HW  OW  HW  HW  
OW  HW  HW  OW  HW  HW  OW  HW  HW  OW  HW  HW  OW  HW  HW  OW  HW  HW  OW  HW  
HW  OW  HW  HW  OW  HW  HW  OW  HW  HW  OW  HW  HW  OW  HW  HW  OW  HW  HW  OW  
HW  HW  OW  HW  HW  OW  HW  HW  OW  HW  HW  OW  HW  HW  OW  HW  HW  OW  HW  HW  
OW  HW  HW  OW  HW  HW  OW  HW  HW  OW  HW  HW  OW  HW  HW  OW  HW  HW  OW  HW  
HW  OW  HW  HW  OW  HW  HW  OW  HW  HW  OW  HW  HW  OW  HW  HW  OW  HW  HW  OW  
HW  HW  OW  HW  HW  OW  HW  HW  OW  HW  HW  OW  HW  HW  OW  HW  HW  OW  HW  HW  
OW  HW  HW  OW  HW  HW  OW  HW  HW  OW  HW  HW  OW  HW  HW  OW  HW  HW  OW  HW  
HW  OW  HW  HW  OW  HW  HW  OW  HW  HW  OW  HW  HW  OW  HW  HW  OW  HW  HW  OW  
HW  HW  OW  HW  HW  OW  HW  HW  OW  HW  HW  OW  HW  HW  OW  HW  HW  OW  HW  HW  
OW  HW  HW  OW  HW  HW  OW  HW  HW  OW  HW  HW  OW  HW  HW  OW  HW  HW  OW  HW  
HW  OW  HW  HW  OW  HW  HW  OW  HW  HW  OW  HW  HW  OW  HW  HW  OW  HW  HW  OW  
HW  HW  OW  HW  HW  OW  HW  HW  OW  HW  HW  OW  HW  HW  OW  HW  HW  OW  HW  HW  
OW  HW  HW  OW  HW  HW  OW  HW  HW  OW  HW  HW  OW  HW  HW  OW  HW  HW  OW  HW  
HW  OW  HW  HW  OW  HW  HW  OW  HW  HW  OW  HW  HW  OW  HW  HW  OW  HW  HW  OW  
HW  HW  OW  HW  HW  OW  HW  HW  OW  HW  HW  OW  HW  HW  OW  HW  HW  OW  HW  HW  
OW  HW  HW  OW  HW  HW  OW  HW  HW  OW  HW  HW  OW  HW  HW  OW  HW  HW  OW  HW  
HW  OW  HW  HW  OW  HW  HW  OW  HW  HW  OW  HW  HW  OW  HW  HW  OW  HW  HW  OW  
HW  HW  OW  HW  HW  OW  HW  HW  OW  HW  HW  OW  HW  HW  OW  HW  HW  OW  HW  HW  
OW  HW  HW  OW  HW  HW  OW  HW  HW  OW  HW  HW  OW  HW  HW  OW  HW  HW  OW  HW  
HW  OW  HW  HW  OW  HW  HW  OW  HW  HW  OW  HW  HW  OW  HW  HW  OW  HW  HW  OW  
HW  HW  OW  HW  HW  OW  HW  HW  OW  HW  HW  OW  HW  HW  OW  HW  HW  OW  HW  HW  
OW  HW  HW  OW  HW  HW  OW  HW  HW  OW  HW  HW  OW  HW  HW  OW  HW  HW  OW  HW  
HW  OW  HW  HW  OW  HW  HW  OW  HW  HW  OW  HW  HW  OW  HW  HW  OW  HW  HW  OW  
HW  HW  OW  HW  HW  OW  HW  HW  OW  HW  HW  OW  HW  HW  OW  HW  HW  OW  HW  HW  
OW  HW  HW  OW  HW  HW  OW  HW  HW  OW  HW  HW  OW  HW  HW  OW  HW  HW  OW  HW  
HW  OW  HW  HW  OW  HW  HW  OW  HW  HW  OW  HW  HW  OW  HW  HW  OW  HW  HW  OW  
HW  HW  OW  HW  HW  OW  HW  HW  OW  HW  HW  OW  HW  HW  OW  HW  HW  OW  HW  HW  
OW  HW  HW  OW  HW  HW  OW  HW  HW  OW  HW  HW  OW  HW  HW  OW  HW  HW  OW  HW  
HW  OW  HW  HW  OW  HW  HW  OW  HW  HW  OW  HW  HW  OW  HW  HW  OW  HW  HW  OW  
HW  HW  OW  HW  HW  OW  HW  HW  OW  HW  HW  OW  HW  HW  OW  HW  HW  OW  HW  HW  
OW  HW  HW  OW  HW  HW  OW  HW  HW  OW  HW  HW  OW  HW  HW  OW  HW  HW  OW  HW  
HW  OW  HW  HW  OW  HW  HW  OW  HW  HW  OW  HW  HW  OW  HW  HW  OW  HW  HW  OW  
HW  HW  OW  HW  HW  OW  HW  HW  OW  HW  HW  OW  HW  HW  OW  HW  HW  OW  HW  HW  
OW  HW  HW  OW  HW  HW  OW  HW  HW  OW  HW  HW  OW  HW  HW  OW  HW  HW  OW  HW  
HW  OW  HW  HW  OW  HW  HW  OW  HW  HW  OW  HW  HW  OW  HW  HW  OW  HW  HW  OW  
HW  HW  OW  HW  HW  OW  HW  HW  OW  HW  HW  OW  HW  HW  OW  HW  HW  OW  HW  HW  
OW  HW  HW  OW  HW  HW  OW  HW  HW  OW  HW  HW  OW  HW  HW  OW  HW  HW  OW  HW  
HW  OW  HW  HW  OW  HW  HW  OW  HW  HW  OW  HW  HW  OW  HW  HW  OW  HW  HW  OW  
HW  HW  OW  HW  HW  OW  HW  HW  OW  HW  HW  OW  HW  HW  OW  HW  HW  OW  HW  HW  
OW  HW  HW  OW  HW  HW  OW  HW  HW  OW  HW  HW  OW  HW  HW  OW  HW  HW  OW  HW  
HW  OW  HW  HW  OW  HW  HW  OW  HW  HW  OW  HW  HW  OW  HW  HW  OW  HW  HW  OW  
HW  HW  OW  HW  HW  OW  HW  HW  OW  HW  HW  OW  HW  HW  OW  HW  HW  OW  HW  HW  
OW  HW  HW  OW  HW  HW  OW  HW  HW  OW  HW  HW  OW  HW  HW  OW  HW  HW  OW  HW  
HW  OW  HW  HW  OW  HW  HW  OW  HW  HW  OW  HW  HW  OW  HW  HW  OW  HW  HW  OW  
HW  HW  OW  HW  HW  OW  HW  HW  OW  HW  HW  OW  HW  HW  OW  HW  HW  OW  HW  HW  
OW  HW  HW  OW  HW  HW  OW  HW  HW  OW  HW  HW  OW  HW  HW  OW  HW  HW  OW  HW  
HW  OW  HW  HW  OW  HW  HW  OW  HW  HW  OW  HW  HW  OW  HW  HW  OW  HW  HW  OW  
HW  HW  OW  HW  HW  OW  HW  HW  OW  HW  HW  OW  HW  HW  OW  HW  HW  OW  HW  HW  
OW  HW  HW  OW  HW  HW  OW  HW  HW  OW  HW  HW  OW  HW  HW  OW  HW  HW  OW  HW  
HW  OW  HW  HW  OW  HW  HW  OW  HW  HW  OW  HW  HW  OW  HW  HW  OW  HW  HW  OW  
HW  HW  OW  HW  HW  OW  HW  HW  OW  HW  HW  OW  HW  HW  OW  HW  HW  OW  HW  HW  
OW  HW  HW  OW  HW  HW  OW  HW  HW  OW  HW  HW  OW  HW  HW  OW  HW  HW  OW  HW  
HW  OW  HW  HW  OW  HW  HW  OW  HW  HW  OW  HW  HW  OW  HW  HW  OW  HW  HW  OW  
HW  HW  OW  HW  HW  OW  HW  HW  OW  HW  HW  OW  HW  HW  OW  HW  HW  OW  HW  HW  
OW  HW  HW  OW  HW  HW  OW  HW  HW  OW  HW  HW  OW  HW  HW  OW  HW  HW  OW  HW  
HW  OW  HW  HW  OW  HW  HW  OW  HW  HW  OW  HW  HW  OW  HW  HW  OW  HW  HW  OW  
HW  HW  OW  HW  HW  OW  HW  HW  OW  HW  HW  OW  HW  HW  OW  HW  HW  OW  HW  HW  
OW  HW  HW  OW  HW  HW  OW  HW  HW  OW  HW  HW  OW  HW  HW  OW  HW  HW  OW  HW  
HW  OW  HW  HW  OW  HW  HW  OW  HW  HW  OW  HW  HW  OW  HW  HW  OW  HW  HW  OW  
HW  HW  OW  HW  HW  OW  HW  HW  OW  HW  HW  OW  HW  HW  OW  HW  HW  OW  HW  HW  
OW  HW  HW  OW  HW  HW  OW  HW  HW  OW  HW  HW  OW  HW  HW  OW  HW  HW  OW  HW  
HW  OW  HW  HW  OW  HW  HW  OW  HW  HW  OW  HW  HW  OW  HW  HW  OW  HW  HW  OW  
HW  HW  OW  HW  HW  OW  HW  HW  OW  HW  HW  OW  HW  HW  OW  HW  HW  OW  HW  HW  
OW  HW  HW  OW  HW  HW  OW  HW  HW  OW  HW  HW  OW  HW  HW  OW  HW  HW  OW  HW  
HW  OW  HW  HW  OW  HW  HW  OW  HW  HW  OW  HW  HW  OW  HW  HW  OW  HW  HW  OW  
HW  HW  OW  HW  HW  OW  HW  HW  OW  HW  HW  OW  HW  HW  OW  HW  HW  OW  HW  HW  
OW  HW  HW  OW  HW  HW  OW  HW  HW  OW  HW  HW  OW  HW  HW  OW  HW  HW  OW  HW  
HW  OW  HW  HW  OW  HW  HW  OW  HW  HW  OW  HW  HW  OW  HW  HW  OW  HW  HW  OW  
HW  HW  OW  HW  HW  OW  HW  HW  OW  HW  HW  OW  HW  HW  OW  HW  HW  OW  HW  HW  
OW  HW  HW  OW  HW  HW  OW  HW  HW  OW  HW  HW  OW  HW  HW  OW  HW  HW  OW  HW  
HW  OW  HW  HW  OW  HW  HW  OW  HW  HW  OW  HW  HW  OW  HW  HW  OW  HW  HW  OW  
HW  HW  OW  HW  HW  OW  HW  HW  OW  HW  HW  OW  HW  HW  OW  HW  HW  OW  HW  HW  
OW  HW  HW  OW  HW  HW  OW  HW  HW  OW  HW  HW  OW  HW  HW  OW  HW  HW  OW  HW  
HW  OW  HW  HW  OW  HW  HW  OW  HW  HW  OW  HW  HW  OW  HW  HW  OW  HW  HW  OW  
HW  HW  OW  HW  HW  OW  HW  HW  OW  HW  HW  OW  HW  HW  OW  HW  HW  OW  HW  HW  
OW  HW  HW  OW  HW  HW  OW  HW  HW  OW  HW  HW  OW  HW  HW  OW  HW  HW  OW  HW  
HW  OW  HW  HW  OW  HW  HW  OW  HW  HW  OW  HW  HW  OW  HW  HW  OW  HW  HW  OW  
HW  HW  OW  HW  HW  OW  HW  HW  OW  HW  HW  OW  HW  HW  OW  HW  HW  OW  HW  HW  
OW  HW  HW  OW  HW  HW  OW  HW  HW  OW  HW  HW  OW  HW  HW  OW  HW  HW  OW  HW  
HW  OW  HW  HW  OW  HW  HW  OW  HW  HW  OW  HW  HW  OW  HW  HW  OW  HW  HW  OW  
HW  HW  OW  HW  HW  OW  HW  HW  OW  HW  HW  OW  HW  HW  OW  HW  HW  OW  HW  HW  
OW  HW  HW  OW  HW  HW  OW  HW  HW  OW  HW  HW  OW  HW  HW  OW  HW  HW  OW  HW  
HW  OW  HW  HW  OW  HW  HW  OW  HW  HW  OW  HW  HW  OW  HW  HW  OW  HW  HW  OW  
HW  HW  OW  HW  HW  OW  HW  HW  OW  HW  HW  OW  HW  HW  OW  HW  HW  OW  HW  HW  
OW  HW  HW  OW  HW  HW  OW  HW  HW  OW  HW  HW  OW  HW  HW  OW  HW  HW  OW  HW  
HW  OW  HW  HW  OW  HW  HW  OW  HW  HW  OW  HW  HW  OW  HW  HW  OW  HW  HW  OW  
HW  HW  OW  HW  HW  OW  HW  HW  OW  HW  HW  OW  HW  HW  OW  HW  HW  OW  HW  HW  
OW  HW  HW  OW  HW  HW  OW  HW  HW  OW  HW  HW  OW  HW  HW  OW  HW  HW  OW  HW  
HW  OW  HW  HW  OW  HW  HW  OW  HW  HW  OW  HW  HW  OW  HW  HW  OW  HW  HW  OW  
HW  HW  OW  HW  HW  OW  HW  HW  OW  HW  HW  OW  HW  HW  OW  HW  HW  OW  HW  HW  
OW  HW  HW  OW  HW  HW  OW  HW  HW  OW  HW  HW  OW  HW  HW  OW  HW  HW  OW  HW  
HW  OW  HW  HW  OW  HW  HW  OW  HW  HW  OW  HW  HW  OW  HW  HW  OW  HW  HW  OW  
HW  HW  OW  HW  HW  OW  HW  HW  OW  HW  HW  OW  HW  HW  OW  HW  HW  OW  HW  HW  
OW  HW  HW  OW  HW  HW  OW  HW  HW  OW  HW  HW  OW  HW  HW  OW  HW  HW  OW  HW  
HW  OW  HW  HW  OW  HW  HW  OW  HW  HW  OW  HW  HW  OW  HW  HW  OW  HW  HW  OW  
HW  HW  OW  HW  HW  OW  HW  HW  OW  HW  HW  OW  HW  HW  OW  HW  HW  OW  HW  HW  
OW  HW  HW  OW  HW  HW  OW  HW  HW  OW  HW  HW  OW  HW  HW  OW  HW  HW  OW  HW  
HW  OW  HW  HW  OW  HW  HW  OW  HW  HW  OW  HW  HW  OW  HW  HW  OW  HW  HW  OW  
HW  HW  OW  HW  HW  OW  HW  HW  OW  HW  HW  OW  HW  HW  OW  HW  HW  OW  HW  HW  
OW  HW  HW  OW  HW  HW  OW  HW  HW  OW  HW  HW  OW  HW  HW  OW  HW  HW  OW  HW  
HW  OW  HW  HW  OW  HW  HW  OW  HW  HW  OW  HW  HW  OW  HW  HW  OW  HW  HW  OW  
HW  HW  OW  HW  HW  OW  HW  HW  OW  HW  HW  OW  HW  HW  OW  HW  HW  OW  HW  HW  
OW  HW  HW  OW  HW  HW  OW  HW  HW  OW  HW  HW  OW  HW  HW  OW  HW  HW  OW  HW  
HW  OW  HW  HW  OW  HW  HW  OW  HW  HW  OW  HW  HW  OW  HW  HW  OW  HW  HW  OW  
HW  HW  OW  HW  HW  OW  HW  HW  OW  HW  HW  OW  HW  HW  OW  HW  HW  OW  HW  HW  
OW  HW  HW  OW  HW  HW  OW  HW  HW  OW  HW  HW  OW  HW  HW  OW  HW  HW  OW  HW  
HW  OW  HW  HW  OW  HW  HW  OW  HW  HW  OW  HW  HW  OW  HW  HW  OW  HW  HW  OW  
HW  HW  OW  HW  HW  OW  HW  HW  OW  HW  HW  OW  HW  HW  OW  HW  HW  OW  HW  HW  
OW  HW  HW  OW  HW  HW  OW  HW  HW  OW  HW  HW  OW  HW  HW  OW  HW  HW  OW  HW  
HW  OW  HW  HW  OW  HW  HW  OW  HW  HW  OW  HW  HW  OW  HW  HW  OW  HW  HW  OW  
HW  HW  OW  HW  HW  OW  HW  HW  OW  HW  HW  OW  HW  HW  OW  HW  HW  OW  HW  HW  
OW  HW  HW  OW  HW  HW  OW  HW  HW  OW  HW  HW  OW  HW  HW  OW  HW  HW  OW  HW  
HW  OW  HW  HW  OW  HW  HW  OW  HW  HW  OW  HW  HW  OW  HW  HW  OW  HW  HW  OW  
HW  HW  OW  HW  HW  OW  HW  HW  OW  HW  HW  OW  HW  HW  OW  HW  HW  OW  HW  HW  
OW  HW  HW  OW  HW  HW  OW  HW  HW  OW  HW  HW  OW  HW  HW  OW  HW  HW  OW  HW  
HW  OW  HW  HW  OW  HW  HW  OW  HW  HW  OW  HW  HW  OW  HW  HW  OW  HW  HW  OW  
HW  HW  OW  HW  HW  OW  HW  HW  OW  HW  HW  OW  HW  HW  OW  HW  HW  OW  HW  HW  
OW  HW  HW  OW  HW  HW  OW  HW  HW  OW  HW  HW  OW  HW  HW  OW  HW  HW  OW  HW  
HW  OW  HW  HW  OW  HW  HW  OW  HW  HW  OW  HW  HW  OW  HW  HW  OW  HW  HW  OW  
HW  HW  OW  HW  HW  OW  HW  HW  OW  HW  HW  OW  HW  HW  OW  HW  HW  OW  HW  HW  
OW  HW  HW  OW  HW  HW  OW  HW  HW  OW  HW  HW  OW  HW  HW  OW  HW  HW  OW  HW  
HW  OW  HW  HW  OW  HW  HW  OW  HW  HW  OW  HW  HW  OW  HW  HW  OW  HW  HW  OW  
HW  HW  OW  HW  HW  OW  HW  HW  OW  HW  HW  OW  HW  HW  OW  HW  HW  OW  HW  HW  
OW  HW  HW  OW  HW  HW  OW  HW  HW  OW  HW  HW  OW  HW  HW  OW  HW  HW  OW  HW  
HW  OW  HW  HW  OW  HW  HW  OW  HW  HW  OW  HW  HW  OW  HW  HW  OW  HW  HW  OW  
HW  HW  OW  HW  HW  OW  HW  HW  OW  HW  HW  OW  HW  HW  OW  HW  HW  OW  HW  HW  
OW  HW  HW  OW  HW  HW  OW  HW  HW  OW  HW  HW  OW  HW  HW  OW  HW  HW  OW  HW  
HW  OW  HW  HW  OW  HW  HW  OW  HW  HW  OW  HW  HW  OW  HW  HW  OW  HW  HW  OW  
HW  HW  OW  HW  HW  OW  HW  HW  OW  HW  HW  OW  HW  HW  OW  HW  HW  OW  HW  HW  
OW  HW  HW  OW  HW  HW  OW  HW  HW  OW  HW  HW  OW  HW  HW  OW  HW  HW  OW  HW  
HW  OW  HW  HW  OW  HW  HW  OW  HW  HW  OW  HW  HW  OW  HW  HW  OW  HW  HW  OW  
HW  HW  OW  HW  HW  OW  HW  HW  OW  HW  HW  OW  HW  HW  OW  HW  HW  OW  HW  HW  
OW  HW  HW  OW  HW  HW  OW  HW  HW  OW  HW  HW  OW  HW  HW  OW  HW  HW  OW  HW  
HW  OW  HW  HW  OW  HW  HW  OW  HW  HW  OW  HW  HW  OW  HW  HW  OW  HW  HW  OW  
HW  HW  OW  HW  HW  OW  HW  HW  OW  HW  HW  OW  HW  HW  OW  HW  HW  OW  HW  HW  
OW  HW  HW  OW  HW  HW  OW  HW  HW  OW  HW  HW  OW  HW  HW  OW  HW  HW  OW  HW  
HW  OW  HW  HW  OW  HW  HW  OW  HW  HW  OW  HW  HW  OW  HW  HW  OW  HW  HW  OW  
HW  HW  OW  HW  HW  OW  HW  HW  OW  HW  HW  OW  HW  HW  OW  HW  HW  OW  HW  HW  
OW  HW  HW  OW  HW  HW  OW  HW  HW  OW  HW  HW  OW  HW  HW  OW  HW  HW  OW  HW  
HW  OW  HW  HW  OW  HW  HW  OW  HW  HW  OW  HW  HW  OW  HW  HW  OW  HW  HW  OW  
HW  HW  OW  HW  HW  OW  HW  HW  OW  HW  HW  OW  HW  HW  OW  HW  HW  OW  HW  HW  
OW  HW  HW  OW  HW  HW  OW  HW  HW  OW  HW  HW  OW  HW  HW  OW  HW  HW  OW  HW  
HW  OW  HW  HW  OW  HW  HW  OW  HW  HW  OW  HW  HW  OW  HW  HW  OW  HW  HW  OW  
HW  HW  OW  HW  HW  OW  HW  HW  OW  HW  HW  OW  HW  HW  OW  HW  HW  OW  HW  HW  
OW  HW  HW  OW  HW  HW  OW  HW  HW  OW  HW  HW  OW  HW  HW  OW  HW  HW  OW  HW  
HW  OW  HW  HW  OW  HW  HW  OW  HW  HW  OW  HW  HW  OW  HW  HW  OW  HW  HW  OW  
HW  HW  OW  HW  HW  OW  HW  HW  OW  HW  HW  OW  HW  HW  OW  HW  HW  OW  HW  HW  
OW  HW  HW  OW  HW  HW  OW  HW  HW  OW  HW  HW  OW  HW  HW  OW  HW  HW  OW  HW  
HW  OW  HW  HW  OW  HW  HW  OW  HW  HW  OW  HW  HW  OW  HW  HW  OW  HW  HW  OW  
HW  HW  OW  HW  HW  OW  HW  HW  OW  HW  HW  OW  HW  HW  OW  HW  HW  OW  HW  HW  
OW  HW  HW  OW  HW  HW  OW  HW  HW  OW  HW  HW  OW  HW  HW  OW  HW  HW  OW  HW  
HW  OW  HW  HW  OW  HW  HW  OW  HW  HW  OW  HW  HW  OW  HW  HW  OW  HW  HW  OW  
HW  HW  OW  HW  HW  OW  HW  HW  OW  HW  HW  OW  HW  HW  OW  HW  HW  OW  HW  HW  
OW  HW  HW  OW  HW  HW  OW  HW  HW  OW  HW  HW  OW  HW  HW  OW  HW  HW  OW  HW  
HW  OW  HW  HW  OW  HW  HW  OW  HW  HW  OW  HW  HW  OW  HW  HW  OW  HW  HW  OW  
HW  HW  OW  HW  HW  OW  HW  HW  OW  HW  HW  OW  HW  HW  OW  HW  HW  OW  HW  HW  
OW  HW  HW  OW  HW  HW  OW  HW  HW  OW  HW  HW  OW  HW  HW  OW  HW  HW  OW  HW  
HW  OW  HW  HW  OW  HW  HW  OW  HW  HW  OW  HW  HW  OW  HW  HW  OW  HW  HW  OW  
HW  HW  OW  HW  HW  OW  HW  HW  OW  HW  HW  OW  HW  HW  OW  HW  HW  OW  HW  HW  
OW  HW  HW  OW  HW  HW  OW  HW  HW  OW  HW  HW  OW  HW  HW  OW  HW  HW  OW  HW  
HW  OW  HW  HW  OW  HW  HW  OW  HW  HW  OW  HW  HW  OW  HW  HW  OW  HW  HW  OW  
HW  HW  OW  HW  HW  OW  HW  HW  OW  HW  HW  OW  HW  HW  OW  HW  HW  OW  HW  HW  
OW  HW  HW  OW  HW  HW  OW  HW  HW  OW  HW  HW  OW  HW  HW  OW  HW  HW  OW  HW  
HW  OW  HW  HW  OW  HW  HW  OW  HW  HW  OW  HW  HW  OW  HW  HW  OW  HW  HW  OW  
HW  HW  OW  HW  HW  OW  HW  HW  OW  HW  HW  OW  HW  HW  OW  HW  HW  OW  HW  HW  
OW  HW  HW  OW  HW  HW  OW  HW  HW  OW  HW  HW  OW  HW  HW  OW  HW  HW  OW  HW  
HW  OW  HW  HW  OW  HW  HW  OW  HW  HW  OW  HW  HW  OW  HW  HW  OW  HW  HW  OW  
HW  HW  OW  HW  HW  OW  HW  HW  OW  HW  HW  OW  HW  HW  OW  HW  HW  OW  HW  HW  
OW  HW  HW  OW  HW  HW  OW  HW  HW  OW  HW  HW  OW  HW  HW  OW  HW  HW  OW  HW  
HW  OW  HW  HW  OW  HW  HW  OW  HW  HW  OW  HW  HW  OW  HW  HW  OW  HW  HW  OW  
HW  HW  OW  HW  HW  OW  HW  HW  OW  HW  HW  OW  HW  HW  OW  HW  HW  OW  HW  HW  
OW  HW  HW  OW  HW  HW  OW  HW  HW  OW  HW  HW  OW  HW  HW  OW  HW  HW  OW  HW  
HW  OW  HW  HW  OW  HW  HW  OW  HW  HW  OW  HW  HW  OW  HW  HW  OW  HW  HW  OW  
HW  HW  OW  HW  HW  OW  HW  HW  OW  HW  HW  OW  HW  HW  OW  HW  HW  OW  HW  HW  
OW  HW  HW  OW  HW  HW  OW  HW  HW  OW  HW  HW  OW  HW  HW  OW  HW  HW  OW  HW  
HW  OW  HW  HW  OW  HW  HW  OW  HW  HW  OW  HW  HW  OW  HW  HW  OW  HW  HW  OW  
HW  HW  OW  HW  HW  OW  HW  HW  OW  HW  HW  OW  HW  HW  OW  HW  HW  OW  HW  HW  
OW  HW  HW  OW  HW  HW  OW  HW  HW  OW  HW  HW  OW  HW  HW  OW  HW  HW  OW  HW  
HW  OW  HW  HW  OW  HW  HW  OW  HW  HW  OW  HW  HW  OW  HW  HW  OW  HW  HW  OW  
HW  HW  OW  HW  HW  OW  HW  HW  OW  HW  HW  OW  HW  HW  OW  HW  HW  OW  HW  HW  
OW  HW  HW  OW  HW  HW  OW  HW  HW  OW  HW  HW  OW  HW  HW  OW  HW  HW  OW  HW  
HW  OW  HW  HW  OW  HW  HW  OW  HW  HW  OW  HW  HW  OW  HW  HW  OW  HW  HW  OW  
HW  HW  OW  HW  HW  OW  HW  HW  OW  HW  HW  OW  HW  HW  OW  HW  HW  OW  HW  HW  
OW  HW  HW  OW  HW  HW  OW  HW  HW  OW  HW  HW  OW  HW  HW  OW  HW  HW  OW  HW  
HW  OW  HW  HW  OW  HW  HW  OW  HW  HW  OW  HW  HW  OW  HW  HW  OW  HW  HW  OW  
HW  HW  OW  HW  HW  OW  HW  HW  OW  HW  HW  OW  HW  HW  OW  HW  HW  OW  HW  HW  
OW  HW  HW  OW  HW  HW  OW  HW  HW  OW  HW  HW  OW  HW  HW  OW  HW  HW  OW  HW  
HW  OW  HW  HW  OW  HW  HW  OW  HW  HW  OW  HW  HW  OW  HW  HW  OW  HW  HW  OW  
HW  HW  OW  HW  HW  OW  HW  HW  OW  HW  HW  OW  HW  HW  OW  HW  HW  OW  HW  HW  
OW  HW  HW  OW  HW  HW  OW  HW  HW  OW  HW  HW  OW  HW  HW  OW  HW  HW  OW  HW  
HW  OW  HW  HW  OW  HW  HW  OW  HW  HW  OW  HW  HW  OW  HW  HW  OW  HW  HW  OW  
HW  HW  OW  HW  HW  OW  HW  HW  OW  HW  HW  OW  HW  HW  OW  HW  HW  OW  HW  HW  
OW  HW  HW  OW  HW  HW  OW  HW  HW  OW  HW  HW  OW  HW  HW  OW  HW  HW  OW  HW  
HW  OW  HW  HW  OW  HW  HW  OW  HW  HW  OW  HW  HW  OW  HW  HW  OW  HW  HW  OW  
HW  HW  OW  HW  HW  OW  HW  HW  OW  HW  HW  OW  HW  HW  OW  HW  HW  OW  HW  HW  
OW  HW  HW  OW  HW  HW  OW  HW  HW  OW  HW  HW  OW  HW  HW  OW  HW  HW  OW  HW  
HW  OW  HW  HW  OW  HW  HW  OW  HW  HW  OW  HW  HW  OW  HW  HW  OW  HW  HW  OW  
HW  HW  OW  HW  HW  OW  HW  HW  OW  HW  HW  OW  HW  HW  OW  HW  HW  OW  HW  HW  
OW  HW  HW  OW  HW  HW  OW  HW  HW  OW  HW  HW  OW  HW  HW  OW  HW  HW  OW  HW  
HW  OW  HW  HW  OW  HW  HW  OW  HW  HW  OW  HW  HW  OW  HW  HW  OW  HW  HW  OW  
HW  HW  OW  HW  HW  OW  HW  HW  OW  HW  HW  OW  HW  HW  OW  HW  HW  OW  HW  HW  
OW  HW  HW  OW  HW  HW  OW  HW  HW  OW  HW  HW  OW  HW  HW  OW  HW  HW  OW  HW  
HW  OW  HW  HW  OW  HW  HW  OW  HW  HW  OW  HW  HW  OW  HW  HW  OW  HW  HW  OW  
HW  HW  OW  HW  HW  OW  HW  HW  OW  HW  HW  OW  HW  HW  OW  HW  HW  OW  HW  HW  
OW  HW  HW  OW  HW  HW  OW  HW  HW  OW  HW  HW  OW  HW  HW  OW  HW  HW  OW  HW  
HW  OW  HW  HW  OW  HW  HW  OW  HW  HW  OW  HW  HW  OW  HW  HW  OW  HW  HW  OW  
HW  HW  OW  HW  HW  OW  HW  HW  OW  HW  HW  OW  HW  HW  OW  HW  HW  OW  HW  HW  
OW  HW  HW  OW  HW  HW  OW  HW  HW  OW  HW  HW  OW  HW  HW  OW  HW  HW  OW  HW  
HW  OW  HW  HW  OW  HW  HW  OW  HW  HW  OW  HW  HW  OW  HW  HW  OW  HW  HW  OW  
HW  HW  OW  HW  HW  OW  HW  HW  OW  HW  HW  OW  HW  HW  OW  HW  HW  OW  HW  HW  
OW  HW  HW  OW  HW  HW  OW  HW  HW  OW  HW  HW  OW  HW  HW  OW  HW  HW  OW  HW  
HW  OW  HW  HW  OW  HW  HW  OW  HW  HW  OW  HW  HW  OW  HW  HW  OW  HW  HW  OW  
HW  HW  OW  HW  HW  OW  HW  HW  OW  HW  HW  OW  HW  HW  OW  HW  HW  OW  HW  HW  
OW  HW  HW  OW  HW  HW  OW  HW  HW  OW  HW  HW  OW  HW  HW  OW  HW  HW  OW  HW  
HW  OW  HW  HW  OW  HW  HW  OW  HW  HW  OW  HW  HW  OW  HW  HW  OW  HW  HW  OW  
HW  HW  OW  HW  HW  OW  HW  HW  OW  HW  HW  OW  HW  HW  OW  HW  HW  OW  HW  HW  
OW  HW  HW  OW  HW  HW  OW  HW  HW  OW  HW  HW  OW  HW  HW  OW  HW  HW  OW  HW  
HW  OW  HW  HW  OW  HW  HW  OW  HW  HW  OW  HW  HW  OW  HW  HW  OW  HW  HW  OW  
HW  HW  OW  HW  HW  OW  HW  HW  OW  HW  HW  OW  HW  HW  OW  HW  HW  OW  HW  HW  
OW  HW  HW  OW  HW  HW  OW  HW  HW  OW  HW  HW  OW  HW  HW  OW  HW  HW  OW  HW  
HW  OW  HW  HW  OW  HW  HW  OW  HW  HW  OW  HW  HW  OW  HW  HW  OW  HW  HW  OW  
HW  HW  OW  HW  HW  OW  HW  HW  OW  HW  HW  OW  HW  HW  OW  HW  HW  OW  HW  HW  
OW  HW  HW  OW  HW  HW  OW  HW  HW  OW  HW  HW  OW  HW  HW  OW  HW  HW  OW  HW  
HW  OW  HW  HW  OW  HW  HW  OW  HW  HW  OW  HW  HW  OW  HW  HW  OW  HW  HW  OW  
HW  HW  OW  HW  HW  OW  HW  HW  OW  HW  HW  OW  HW  HW  OW  HW  HW  OW  HW  HW  
OW  HW  HW  OW  HW  HW  OW  HW  HW  OW  HW  HW  OW  HW  HW  OW  HW  HW  OW  HW  
HW  OW  HW  HW  OW  HW  HW  OW  HW  HW  OW  HW  HW  OW  HW  HW  OW  HW  HW  OW  
HW  HW  OW  HW  HW  OW  HW  HW  OW  HW  HW  OW  HW  HW  OW  HW  HW  OW  HW  HW  
OW  HW  HW  OW  HW  HW  OW  HW  HW  OW  HW  HW  OW  HW  HW  OW  HW  HW  OW  HW  
HW  OW  HW  HW  OW  HW  HW  OW  HW  HW  OW  HW  HW  OW  HW  HW  OW  HW  HW  OW  
HW  HW  OW  HW  HW  OW  HW  HW  OW  HW  HW  OW  HW  HW  OW  HW  HW  OW  HW  HW  
OW  HW  HW  OW  HW  HW  OW  HW  HW  OW  HW  HW  OW  HW  HW  OW  HW  HW  OW  HW  
HW  OW  HW  HW  OW  HW  HW  OW  HW  HW  OW  HW  HW  OW  HW  HW  OW  HW  HW  OW  
HW  HW  OW  HW  HW  OW  HW  HW  OW  HW  HW  OW  HW  HW  OW  HW  HW  OW  HW  HW  
OW  HW  HW  OW  HW  HW  OW  HW  HW  OW  HW  HW  OW  HW  HW  OW  HW  HW  OW  HW  
HW  OW  HW  HW  OW  HW  HW  OW  HW  HW  OW  HW  HW  OW  HW  HW  OW  HW  HW  OW  
HW  HW  OW  HW  HW  OW  HW  HW  OW  HW  HW  OW  HW  HW  OW  HW  HW  OW  HW  HW  
OW  HW  HW  OW  HW  HW  OW  HW  HW  OW  HW  HW  OW  HW  HW  OW  HW  HW  OW  HW  
HW  OW  HW  HW  OW  HW  HW  OW  HW  HW  OW  HW  HW  OW  HW  HW  OW  HW  HW  OW  
HW  HW  OW  HW  HW  OW  HW  HW  OW  HW  HW  OW  HW  HW  OW  HW  HW  OW  HW  HW  
OW  HW  HW  OW  HW  HW  OW  HW  HW  OW  HW  HW  OW  HW  HW  OW  HW  HW  OW  HW  
HW  OW  HW  HW  OW  HW  HW  OW  HW  HW  OW  HW  HW  OW  HW  HW  OW  HW  HW  OW  
HW  HW  OW  HW  HW  OW  HW  HW  OW  HW  HW  OW  HW  HW  OW  HW  HW  OW  HW  HW  
OW  HW  HW  OW  HW  HW  OW  HW  HW  OW  HW  HW  OW  HW  HW  OW  HW  HW  OW  HW  
HW  OW  HW  HW  OW  HW  HW  OW  HW  HW  OW  HW  HW  OW  HW  HW  OW  HW  HW  OW  
HW  HW  OW  HW  HW  OW  HW  HW  OW  HW  HW  OW  HW  HW  OW  HW  HW  OW  HW  HW  
OW  HW  HW  OW  HW  HW  OW  HW  HW  OW  HW  HW  OW  HW  HW  OW  HW  HW  OW  HW  
HW  OW  HW  HW  OW  HW  HW  OW  HW  HW  OW  HW  HW  OW  HW  HW  OW  HW  HW  OW  
HW  HW  OW  HW  HW  OW  HW  HW  OW  HW  HW  OW  HW  HW  OW  HW  HW  OW  HW  HW  
OW  HW  HW  OW  HW  HW  OW  HW  HW  OW  HW  HW  OW  HW  HW  OW  HW  HW  OW  HW  
HW  OW  HW  HW  OW  HW  HW  OW  HW  HW  OW  HW  HW  OW  HW  HW  OW  HW  HW  OW  
HW  HW  OW  HW  HW  OW  HW  HW  OW  HW  HW  OW  HW  HW  OW  HW  HW  OW  HW  HW  
OW  HW  HW  OW  HW  HW  OW  HW  HW  OW  HW  HW  OW  HW  HW  OW  HW  HW  OW  HW  
HW  OW  HW  HW  OW  HW  HW  OW  HW  HW  OW  HW  HW  OW  HW  HW  OW  HW  HW  OW  
HW  HW  OW  HW  HW  OW  HW  HW  OW  HW  HW  OW  HW  HW  OW  HW  HW  OW  HW  HW  
OW  HW  HW  OW  HW  HW  OW  HW  HW  OW  HW  HW  OW  HW  HW  OW  HW  HW  OW  HW  
HW  OW  HW  HW  OW  HW  HW  OW  HW  HW  OW  HW  HW  OW  HW  HW  OW  HW  HW  OW  
HW  HW  OW  HW  HW  OW  HW  HW  OW  HW  HW  OW  HW  HW  OW  HW  HW  OW  HW  HW  
OW  HW  HW  OW  HW  HW  OW  HW  HW  OW  HW  HW  OW  HW  HW  OW  HW  HW  OW  HW  
HW  OW  HW  HW  OW  HW  HW  OW  HW  HW  OW  HW  HW  OW  HW  HW  OW  HW  HW  OW  
HW  HW  OW  HW  HW  OW  HW  HW  OW  HW  HW  OW  HW  HW  OW  HW  HW  OW  HW  HW  
OW  HW  HW  OW  HW  HW  OW  HW  HW  OW  HW  HW  OW  HW  HW  OW  HW  HW  OW  HW  
HW  OW  HW  HW  OW  HW  HW  OW  HW  HW  OW  HW  HW  OW  HW  HW  OW  HW  HW  OW  
HW  HW  OW  HW  HW  OW  HW  HW  OW  HW  HW  OW  HW  HW  OW  HW  HW  OW  HW  HW  
OW  HW  HW  OW  HW  HW  OW  HW  HW  OW  HW  HW  OW  HW  HW  OW  HW  HW  OW  HW  
HW  OW  HW  HW  OW  HW  HW  OW  HW  HW  OW  HW  HW  OW  HW  HW  OW  HW  HW  OW  
HW  HW  OW  HW  HW  OW  HW  HW  OW  HW  HW  OW  HW  HW  OW  HW  HW  OW  HW  HW  
OW  HW  HW  OW  HW  HW  OW  HW  HW  OW  HW  HW  OW  HW  HW  OW  HW  HW  OW  HW  
HW  OW  HW  HW  OW  HW  HW  OW  HW  HW  OW  HW  HW  OW  HW  HW  OW  HW  HW  OW  
HW  HW  OW  HW  HW  OW  HW  HW  OW  HW  HW  OW  HW  HW  OW  HW  HW  OW  HW  HW  
OW  HW  HW  OW  HW  HW  OW  HW  HW  OW  HW  HW  OW  HW  HW  OW  HW  HW  OW  HW  
HW  OW  HW  HW  OW  HW  HW  OW  HW  HW  OW  HW  HW  OW  HW  HW  OW  HW  HW  OW  
HW  HW  OW  HW  HW  OW  HW  HW  OW  HW  HW  OW  HW  HW  OW  HW  HW  OW  HW  HW  
OW  HW  HW  OW  HW  HW  OW  HW  HW  OW  HW  HW  OW  HW  HW  OW  HW  HW  OW  HW  
HW  OW  HW  HW  OW  HW  HW  OW  HW  HW  OW  HW  HW  OW  HW  HW  OW  HW  HW  OW  
HW  HW  OW  HW  HW  OW  HW  HW  OW  HW  HW  OW  HW  HW  OW  HW  HW  OW  HW  HW  
OW  HW  HW  OW  HW  HW  OW  HW  HW  OW  HW  HW  OW  HW  HW  OW  HW  HW  OW  HW  
HW  OW  HW  HW  OW  HW  HW  OW  HW  HW  OW  HW  HW  OW  HW  HW  OW  HW  HW  OW  
HW  HW  OW  HW  HW  OW  HW  HW  OW  HW  HW  OW  HW  HW  OW  HW  HW  OW  HW  HW  
OW  HW  HW  OW  HW  HW  OW  HW  HW  OW  HW  HW  OW  HW  HW  OW  HW  HW  OW  HW  
HW  OW  HW  HW  OW  HW  HW  OW  HW  HW  OW  HW  HW  OW  HW  HW  OW  HW  HW  OW  
HW  HW  OW  HW  HW  OW  HW  HW  OW  HW  HW  OW  HW  HW  OW  HW  HW  OW  HW  HW  
OW  HW  HW  OW  HW  HW  OW  HW  HW  OW  HW  HW  OW  HW  HW  OW  HW  HW  OW  HW  
HW  OW  HW  HW  OW  HW  HW  OW  HW  HW  OW  HW  HW  OW  HW  HW  OW  HW  HW  OW  
HW  HW  OW  HW  HW  OW  HW  HW  OW  HW  HW  OW  HW  HW  OW  HW  HW  OW  HW  HW  
OW  HW  HW  OW  HW  HW  OW  HW  HW  OW  HW  HW  OW  HW  HW  OW  HW  HW  OW  HW  
HW  OW  HW  HW  OW  HW  HW  OW  HW  HW  OW  HW  HW  OW  HW  HW  OW  HW  HW  OW  
HW  HW  OW  HW  HW  OW  HW  HW  OW  HW  HW  OW  HW  HW  OW  HW  HW  OW  HW  HW  
OW  HW  HW  OW  HW  HW  OW  HW  HW  OW  HW  HW  OW  HW  HW  OW  HW  HW  OW  HW  
HW  OW  HW  HW  OW  HW  HW  OW  HW  HW  OW  HW  HW  OW  HW  HW  OW  HW  HW  OW  
HW  HW  OW  HW  HW  OW  HW  HW  OW  HW  HW  OW  HW  HW  OW  HW  HW  OW  HW  HW  
OW  HW  HW  OW  HW  HW  OW  HW  HW  OW  HW  HW  OW  HW  HW  OW  HW  HW  OW  HW  
HW  OW  HW  HW  OW  HW  HW  OW  HW  HW  OW  HW  HW  OW  HW  HW  OW  HW  HW  OW  
HW  HW  OW  HW  HW  OW  HW  HW  OW  HW  HW  OW  HW  HW  OW  HW  HW  OW  HW  HW  
OW  HW  HW  OW  HW  HW  OW  HW  HW  OW  HW  HW  OW  HW  HW  OW  HW  HW  OW  HW  
HW  OW  HW  HW  OW  HW  HW  OW  HW  HW  OW  HW  HW  OW  HW  HW  OW  HW  HW  OW  
HW  HW  OW  HW  HW  OW  HW  HW  OW  HW  HW  OW  HW  HW  OW  HW  HW  OW  HW  HW  
OW  HW  HW  OW  HW  HW  OW  HW  HW  OW  HW  HW  OW  HW  HW  OW  HW  HW  OW  HW  
HW  OW  HW  HW  OW  HW  HW  OW  HW  HW  OW  HW  HW  OW  HW  HW  OW  HW  HW  OW  
HW  HW  OW  HW  HW  OW  HW  HW  OW  HW  HW  OW  HW  HW  OW  HW  HW  OW  HW  HW  
OW  HW  HW  OW  HW  HW  OW  HW  HW  OW  HW  HW  OW  HW  HW  OW  HW  HW  OW  HW  
HW  OW  HW  HW  OW  HW  HW  OW  HW  HW  OW  HW  HW  OW  HW  HW  OW  HW  HW  OW  
HW  HW  OW  HW  HW  OW  HW  HW  OW  HW  HW  OW  HW  HW  OW  HW  HW  OW  HW  HW  
OW  HW  HW  OW  HW  HW  OW  HW  HW  OW  HW  HW  OW  HW  HW  OW  HW  HW  OW  HW  
HW  OW  HW  HW  OW  HW  HW  OW  HW  HW  OW  HW  HW  OW  HW  HW  OW  HW  HW  OW  
HW  HW  OW  HW  HW  OW  HW  HW  OW  HW  HW  OW  HW  HW  OW  HW  HW  OW  HW  HW  
OW  HW  HW  OW  HW  HW  OW  HW  HW  OW  HW  HW  OW  HW  HW  OW  HW  HW  OW  HW  
HW  OW  HW  HW  OW  HW  HW  OW  HW  HW  OW  HW  HW  OW  HW  HW  OW  HW  HW  OW  
HW  HW  OW  HW  HW  OW  HW  HW  OW  HW  HW  OW  HW  HW  OW  HW  HW  OW  HW  HW  
OW  HW  HW  OW  HW  HW  OW  HW  HW  OW  HW  HW  OW  HW  HW  OW  HW  HW  OW  HW  
HW  OW  HW  HW  OW  HW  HW  OW  HW  HW  OW  HW  HW  OW  HW  HW  OW  HW  HW  OW  
HW  HW  OW  HW  HW  OW  HW  HW  OW  HW  HW  OW  HW  HW  OW  HW  HW  OW  HW  HW  
OW  HW  HW  OW  HW  HW  OW  HW  HW  OW  HW  HW  OW  HW  HW  OW  HW  HW  OW  HW  
HW  OW  HW  HW  OW  HW  HW  OW  HW  HW  OW  HW  HW  OW  HW  HW  OW  HW  HW  OW  
HW  HW  OW  HW  HW  OW  HW  HW  OW  HW  HW  OW  HW  HW  OW  HW  HW  OW  HW  HW  
OW  HW  HW  OW  HW  HW  OW  HW  HW  OW  HW  HW  OW  HW  HW  OW  HW  HW  OW  HW  
HW  OW  HW  HW  OW  HW  HW  OW  HW  HW  OW  HW  HW  OW  HW  HW  OW  HW  HW  OW  
HW  HW  OW  HW  HW  OW  HW  HW  OW  HW  HW  OW  HW  HW  OW  HW  HW  OW  HW  HW  
OW  HW  HW  OW  HW  HW  OW  HW  HW  OW  HW  HW  OW  HW  HW  OW  HW  HW  OW  HW  
HW  OW  HW  HW  OW  HW  HW  OW  HW  HW  OW  HW  HW  OW  HW  HW  OW  HW  HW  OW  
HW  HW  OW  HW  HW  OW  HW  HW  OW  HW  HW  OW  HW  HW  OW  HW  HW  OW  HW  HW  
OW  HW  HW  OW  HW  HW  OW  HW  HW  OW  HW  HW  OW  HW  HW  OW  HW  HW  OW  HW  
HW  OW  HW  HW  OW  HW  HW  OW  HW  HW  OW  HW  HW  OW  HW  HW  OW  HW  HW  OW  
HW  HW  OW  HW  HW  OW  HW  HW  OW  HW  HW  OW  HW  HW  OW  HW  HW  OW  HW  HW  
OW  HW  HW  OW  HW  HW  OW  HW  HW  OW  HW  HW  OW  HW  HW  OW  HW  HW  OW  HW  
HW  OW  HW  HW  OW  HW  HW  OW  HW  HW  OW  HW  HW  OW  HW  HW  OW  HW  HW  OW  
HW  HW  OW  HW  HW  OW  HW  HW  OW  HW  HW  OW  HW  HW  OW  HW  HW  OW  HW  HW  
OW  HW  HW  OW  HW  HW  OW  HW  HW  OW  HW  HW  OW  HW  HW  OW  HW  HW  OW  HW  
HW  OW  HW  HW  OW  HW  HW  OW  HW  HW  OW  HW  HW  OW  HW  HW  OW  HW  HW  OW  
HW  HW  OW  HW  HW  OW  HW  HW  OW  HW  HW  OW  HW  HW  OW  HW  HW  OW  HW  HW  
OW  HW  HW  OW  HW  HW  OW  HW  HW  OW  HW  HW  OW  HW  HW  OW  HW  HW  OW  HW  
HW  OW  HW  HW  OW  HW  HW  OW  HW  HW  OW  HW  HW  OW  HW  HW  OW  HW  HW  OW  
HW  HW  OW  HW  HW  OW  HW  HW  OW  HW  HW  OW  HW  HW  OW  HW  HW  OW  HW  HW  
OW  HW  HW  OW  HW  HW  OW  HW  HW  OW  HW  HW  OW  HW  HW  OW  HW  HW  OW  HW  
HW  OW  HW  HW  OW  HW  HW  OW  HW  HW  OW  HW  HW  OW  HW  HW  OW  HW  HW  OW  
HW  HW  OW  HW  HW  OW  HW  HW  OW  HW  HW  OW  HW  HW  OW  HW  HW  OW  HW  HW  
OW  HW  HW  OW  HW  HW  OW  HW  HW  OW  HW  HW  OW  HW  HW  OW  HW  HW  OW  HW  
HW  OW  HW  HW  OW  HW  HW  OW  HW  HW  OW  HW  HW  OW  HW  HW  OW  HW  HW  OW  
HW  HW  OW  HW  HW  OW  HW  HW  OW  HW  HW  OW  HW  HW  OW  HW  HW  OW  HW  HW  
OW  HW  HW  OW  HW  HW  OW  HW  HW  OW  HW  HW  OW  HW  HW  OW  HW  HW  OW  HW  
HW  OW  HW  HW  OW  HW  HW  OW  HW  HW  OW  HW  HW  OW  HW  HW  OW  HW  HW  OW  
HW  HW  OW  HW  HW  OW  HW  HW  OW  HW  HW  OW  HW  HW  OW  HW  HW  OW  HW  HW  
OW  HW  HW  OW  HW  HW  OW  HW  HW  OW  HW  HW  OW  HW  HW  OW  HW  HW  OW  HW  
HW  OW  HW  HW  OW  HW  HW  OW  HW  HW  OW  HW  HW  OW  HW  HW  OW  HW  HW  OW  
HW  HW  OW  HW  HW  OW  HW  HW  OW  HW  HW  OW  HW  HW  OW  HW  HW  OW  HW  HW  
OW  HW  HW  OW  HW  HW  OW  HW  HW  OW  HW  HW  OW  HW  HW  OW  HW  HW  OW  HW  
HW  OW  HW  HW  OW  HW  HW  OW  HW  HW  OW  HW  HW  OW  HW  HW  OW  HW  HW  OW  
HW  HW  OW  HW  HW  OW  HW  HW  OW  HW  HW  OW  HW  HW  OW  HW  HW  OW  HW  HW  
OW  HW  HW  OW  HW  HW  OW  HW  HW  OW  HW  HW  OW  HW  HW  OW  HW  HW  OW  HW  
HW  OW  HW  HW  OW  HW  HW  OW  HW  HW  OW  HW  HW  OW  HW  HW  OW  HW  HW  OW  
HW  HW  OW  HW  HW  OW  HW  HW  OW  HW  HW  OW  HW  HW  OW  HW  HW  OW  HW  HW  
OW  HW  HW  OW  HW  HW  OW  HW  HW  OW  HW  HW  OW  HW  HW  OW  HW  HW  OW  HW  
HW  OW  HW  HW  OW  HW  HW  OW  HW  HW  OW  HW  HW  OW  HW  HW  OW  HW  HW  OW  
HW  HW  OW  HW  HW  OW  HW  HW  OW  HW  HW  OW  HW  HW  OW  HW  HW  OW  HW  HW  
OW  HW  HW  OW  HW  HW  OW  HW  HW  OW  HW  HW  OW  HW  HW  OW  HW  HW  OW  HW  
HW  OW  HW  HW  OW  HW  HW  OW  HW  HW  OW  HW  HW  OW  HW  HW  OW  HW  HW  OW  
HW  HW  OW  HW  HW  OW  HW  HW  OW  HW  HW  OW  HW  HW  OW  HW  HW  OW  HW  HW  
OW  HW  HW  OW  HW  HW  OW  HW  HW  OW  HW  HW  OW  HW  HW  OW  HW  HW  OW  HW  
HW  OW  HW  HW  OW  HW  HW  OW  HW  HW  OW  HW  HW  OW  HW  HW  OW  HW  HW  OW  
HW  HW  OW  HW  HW  OW  HW  HW  OW  HW  HW  OW  HW  HW  OW  HW  HW  OW  HW  HW  
OW  HW  HW  OW  HW  HW  OW  HW  HW  OW  HW  HW  OW  HW  HW  OW  HW  HW  OW  HW  
HW  OW  HW  HW  OW  HW  HW  OW  HW  HW  OW  HW  HW  OW  HW  HW  OW  HW  HW  OW  
HW  HW  OW  HW  HW  OW  HW  HW  OW  HW  HW  OW  HW  HW  OW  HW  HW  OW  HW  HW  
OW  HW  HW  OW  HW  HW  OW  HW  HW  OW  HW  HW  OW  HW  HW  OW  HW  HW  OW  HW  
HW  OW  HW  HW  OW  HW  HW  OW  HW  HW  OW  HW  HW  OW  HW  HW  OW  HW  HW  OW  
HW  HW  OW  HW  HW  OW  HW  HW  OW  HW  HW  OW  HW  HW  OW  HW  HW  OW  HW  HW  
OW  HW  HW  OW  HW  HW  OW  HW  HW  OW  HW  HW  OW  HW  HW  OW  HW  HW  OW  HW  
HW  OW  HW  HW  OW  HW  HW  OW  HW  HW  OW  HW  HW  OW  HW  HW  OW  HW  HW  OW  
HW  HW  OW  HW  HW  OW  HW  HW  OW  HW  HW  OW  HW  HW  OW  HW  HW  OW  HW  HW  
OW  HW  HW  OW  HW  HW  OW  HW  HW  OW  HW  HW  OW  HW  HW  OW  HW  HW  OW  HW  
HW  OW  HW  HW  OW  HW  HW  OW  HW  HW  OW  HW  HW  OW  HW  HW  OW  HW  HW  OW  
HW  HW  OW  HW  HW  OW  HW  HW  OW  HW  HW  OW  HW  HW  OW  HW  HW  OW  HW  HW  
OW  HW  HW  OW  HW  HW  OW  HW  HW  OW  HW  HW  OW  HW  HW  OW  HW  HW  OW  HW  
HW  OW  HW  HW  OW  HW  HW  OW  HW  HW  OW  HW  HW  OW  HW  HW  OW  HW  HW  OW  
HW  HW  OW  HW  HW  OW  HW  HW  OW  HW  HW  OW  HW  HW  OW  HW  HW  OW  HW  HW  
OW  HW  HW  OW  HW  HW  OW  HW  HW  OW  HW  HW  OW  HW  HW  OW  HW  HW  OW  HW  
HW  OW  HW  HW  OW  HW  HW  OW  HW  HW  OW  HW  HW  OW  HW  HW  OW  HW  HW  OW  
HW  HW  OW  HW  HW  OW  HW  HW  OW  HW  HW  OW  HW  HW  OW  HW  HW  OW  HW  HW  
OW  HW  HW  OW  HW  HW  OW  HW  HW  OW  HW  HW  OW  HW  HW  OW  HW  HW  OW  HW  
HW  OW  HW  HW  OW  HW  HW  OW  HW  HW  OW  HW  HW  OW  HW  HW  OW  HW  HW  OW  
HW  HW  OW  HW  HW  OW  HW  HW  OW  HW  HW  OW  HW  HW  OW  HW  HW  OW  HW  HW  
OW  HW  HW  OW  HW  HW  OW  HW  HW  OW  HW  HW  OW  HW  HW  OW  HW  HW  OW  HW  
HW  OW  HW  HW  OW  HW  HW  OW  HW  HW  OW  HW  HW  OW  HW  HW  OW  HW  HW  OW  
HW  HW  OW  HW  HW  OW  HW  HW  OW  HW  HW  OW  HW  HW  OW  HW  HW  OW  HW  HW  
OW  HW  HW  OW  HW  HW  OW  HW  HW  OW  HW  HW  OW  HW  HW  OW  HW  HW  OW  HW  
HW  OW  HW  HW  OW  HW  HW  OW  HW  HW  OW  HW  HW  OW  HW  HW  OW  HW  HW  OW  
HW  HW  OW  HW  HW  OW  HW  HW  OW  HW  HW  OW  HW  HW  OW  HW  HW  OW  HW  HW  
OW  HW  HW  OW  HW  HW  OW  HW  HW  OW  HW  HW  OW  HW  HW  OW  HW  HW  OW  HW  
HW  OW  HW  HW  OW  HW  HW  OW  HW  HW  OW  HW  HW  OW  HW  HW  OW  HW  HW  OW  
HW  HW  OW  HW  HW  OW  HW  HW  OW  HW  HW  OW  HW  HW  OW  HW  HW  OW  HW  HW  
OW  HW  HW  OW  HW  HW  OW  HW  HW  OW  HW  HW  OW  HW  HW  OW  HW  HW  OW  HW  
HW  OW  HW  HW  OW  HW  HW  OW  HW  HW  OW  HW  HW  OW  HW  HW  OW  HW  HW  OW  
HW  HW  OW  HW  HW  OW  HW  HW  OW  HW  HW  OW  HW  HW  OW  HW  HW  OW  HW  HW  
OW  HW  HW  OW  HW  HW  OW  HW  HW  OW  HW  HW  OW  HW  HW  OW  HW  HW  OW  HW  
HW  OW  HW  HW  OW  HW  HW  OW  HW  HW  OW  HW  HW  OW  HW  HW  OW  HW  HW  OW  
HW  HW  OW  HW  HW  OW  HW  HW  OW  HW  HW  OW  HW  HW  OW  HW  HW  OW  HW  HW  
OW  HW  HW  OW  HW  HW  OW  HW  HW  OW  HW  HW  OW  HW  HW  OW  HW  HW  OW  HW  
HW  OW  HW  HW  OW  HW  HW  OW  HW  HW  OW  HW  HW  OW  HW  HW  OW  HW  HW  OW  
HW  HW  OW  HW  HW  OW  HW  HW  OW  HW  HW  OW  HW  HW  OW  HW  HW  OW  HW  HW  
OW  HW  HW  OW  HW  HW  OW  HW  HW  OW  HW  HW  OW  HW  HW  OW  HW  HW  OW  HW  
HW  OW  HW  HW  OW  HW  HW  OW  HW  HW  OW  HW  HW  OW  HW  HW  OW  HW  HW  OW  
HW  HW  OW  HW  HW  OW  HW  HW  OW  HW  HW  OW  HW  HW  OW  HW  HW  OW  HW  HW  
OW  HW  HW  OW  HW  HW  OW  HW  HW  OW  HW  HW  OW  HW  HW  OW  HW  HW  OW  HW  
HW  OW  HW  HW  OW  HW  HW  OW  HW  HW  OW  HW  HW  OW  HW  HW  OW  HW  HW  OW  
HW  HW  OW  HW  HW  OW  HW  HW  OW  HW  HW  OW  HW  HW  OW  HW  HW  OW  HW  HW  
OW  HW  HW  OW  HW  HW  OW  HW  HW  OW  HW  HW  OW  HW  HW  OW  HW  HW  OW  HW  
HW  OW  HW  HW  OW  HW  HW  OW  HW  HW  OW  HW  HW  OW  HW  HW  OW  HW  HW  OW  
HW  HW  OW  HW  HW  OW  HW  HW  OW  HW  HW  OW  HW  HW  OW  HW  HW  OW  HW  HW  
OW  HW  HW  OW  HW  HW  OW  HW  HW  OW  HW  HW  OW  HW  HW  OW  HW  HW  OW  HW  
HW  OW  HW  HW  OW  HW  HW  OW  HW  HW  OW  HW  HW  OW  HW  HW  OW  HW  HW  OW  
HW  HW  OW  HW  HW  OW  HW  HW  OW  HW  HW  OW  HW  HW  OW  HW  HW  OW  HW  HW  
OW  HW  HW  OW  HW  HW  OW  HW  HW  OW  HW  HW  OW  HW  HW  OW  HW  HW  OW  HW  
HW  OW  HW  HW  OW  HW  HW  OW  HW  HW  OW  HW  HW  OW  HW  HW  OW  HW  HW  OW  
HW  HW  OW  HW  HW  OW  HW  HW  OW  HW  HW  OW  HW  HW  OW  HW  HW  OW  HW  HW  
OW  HW  HW  OW  HW  HW  OW  HW  HW  OW  HW  HW  OW  HW  HW  OW  HW  HW  OW  HW  
HW  OW  HW  HW  OW  HW  HW  OW  HW  HW  OW  HW  HW  OW  HW  HW  OW  HW  HW  OW  
HW  HW  OW  HW  HW  OW  HW  HW  OW  HW  HW  OW  HW  HW  OW  HW  HW  OW  HW  HW  
OW  HW  HW  OW  HW  HW  OW  HW  HW  OW  HW  HW  OW  HW  HW  OW  HW  HW  OW  HW  
HW  OW  HW  HW  OW  HW  HW  OW  HW  HW  OW  HW  HW  OW  HW  HW  OW  HW  HW  OW  
HW  HW  OW  HW  HW  OW  HW  HW  OW  HW  HW  OW  HW  HW  OW  HW  HW  OW  HW  HW  
OW  HW  HW  OW  HW  HW  OW  HW  HW  OW  HW  HW  OW  HW  HW  OW  HW  HW  OW  HW  
HW  OW  HW  HW  OW  HW  HW  OW  HW  HW  OW  HW  HW  OW  HW  HW  OW  HW  HW  OW  
HW  HW  OW  HW  HW  OW  HW  HW  OW  HW  HW  OW  HW  HW  OW  HW  HW  OW  HW  HW  
OW  HW  HW  OW  HW  HW  OW  HW  HW  OW  HW  HW  OW  HW  HW  OW  HW  HW  OW  HW  
HW  OW  HW  HW  OW  HW  HW  OW  HW  HW  OW  HW  HW  OW  HW  HW  OW  HW  HW  OW  
HW  HW  OW  HW  HW  OW  HW  HW  OW  HW  HW  OW  HW  HW  OW  HW  HW  OW  HW  HW  
OW  HW  HW  OW  HW  HW  OW  HW  HW  OW  HW  HW  OW  HW  HW  OW  HW  HW  OW  HW  
HW  OW  HW  HW  OW  HW  HW  OW  HW  HW  OW  HW  HW  OW  HW  HW  OW  HW  HW  OW  
HW  HW  OW  HW  HW  OW  HW  HW  OW  HW  HW  OW  HW  HW  OW  HW  HW  OW  HW  HW  
OW  HW  HW  OW  HW  HW  OW  HW  HW  OW  HW  HW  OW  HW  HW  OW  HW  HW  OW  HW  
HW  OW  HW  HW  OW  HW  HW  OW  HW  HW  OW  HW  HW  OW  HW  HW  OW  HW  HW  OW  
HW  HW  OW  HW  HW  OW  HW  HW  OW  HW  HW  OW  HW  HW  OW  HW  HW  OW  HW  HW  
OW  HW  HW  OW  HW  HW  OW  HW  HW  OW  HW  HW  OW  HW  HW  OW  HW  HW  OW  HW  
HW  OW  HW  HW  OW  HW  HW  OW  HW  HW  OW  HW  HW  OW  HW  HW  OW  HW  HW  OW  
HW  HW  OW  HW  HW  OW  HW  HW  OW  HW  HW  OW  HW  HW  OW  HW  HW  OW  HW  HW  
OW  HW  HW  OW  HW  HW  OW  HW  HW  OW  HW  HW  OW  HW  HW  OW  HW  HW  OW  HW  
HW  OW  HW  HW  OW  HW  HW  OW  HW  HW  OW  HW  HW  OW  HW  HW  OW  HW  HW  OW  
HW  HW  OW  HW  HW  OW  HW  HW  OW  HW  HW  OW  HW  HW  OW  HW  HW  OW  HW  HW  
OW  HW  HW  OW  HW  HW  OW  HW  HW  OW  HW  HW  OW  HW  HW  OW  HW  HW  OW  HW  
HW  OW  HW  HW  OW  HW  HW  OW  HW  HW  OW  HW  HW  OW  HW  HW  OW  HW  HW  OW  
HW  HW  OW  HW  HW  OW  HW  HW  OW  HW  HW  OW  HW  HW  OW  HW  HW  OW  HW  HW  
OW  HW  HW  OW  HW  HW  OW  HW  HW  OW  HW  HW  OW  HW  HW  OW  HW  HW  OW  HW  
HW  OW  HW  HW  OW  HW  HW  OW  HW  HW  OW  HW  HW  OW  HW  HW  OW  HW  HW  OW  
HW  HW  OW  HW  HW  OW  HW  HW  OW  HW  HW  OW  HW  HW  OW  HW  HW  OW  HW  HW  
OW  HW  HW  OW  HW  HW  OW  HW  HW  OW  HW  HW  OW  HW  HW  OW  HW  HW  OW  HW  
HW  OW  HW  HW  OW  HW  HW  OW  HW  HW  OW  HW  HW  OW  HW  HW  OW  HW  HW  OW  
HW  HW  OW  HW  HW  OW  HW  HW  OW  HW  HW  OW  HW  HW  OW  HW  HW  OW  HW  HW  
OW  HW  HW  OW  HW  HW  OW  HW  HW  OW  HW  HW  OW  HW  HW  OW  HW  HW  OW  HW  
HW  OW  HW  HW  OW  HW  HW  OW  HW  HW  OW  HW  HW  OW  HW  HW  OW  HW  HW  OW  
HW  HW  OW  HW  HW  OW  HW  HW  OW  HW  HW  OW  HW  HW  OW  HW  HW  OW  HW  HW  
OW  HW  HW  OW  HW  HW  OW  HW  HW  OW  HW  HW  OW  HW  HW  OW  HW  HW  OW  HW  
HW  OW  HW  HW  OW  HW  HW  OW  HW  HW  OW  HW  HW  OW  HW  HW  OW  HW  HW  OW  
HW  HW  OW  HW  HW  OW  HW  HW  OW  HW  HW  OW  HW  HW  OW  HW  HW  OW  HW  HW  
OW  HW  HW  OW  HW  HW  OW  HW  HW  OW  HW  HW  OW  HW  HW  OW  HW  HW  OW  HW  
HW  OW  HW  HW  OW  HW  HW  OW  HW  HW  OW  HW  HW  OW  HW  HW  OW  HW  HW  OW  
HW  HW  OW  HW  HW  OW  HW  HW  OW  HW  HW  OW  HW  HW  OW  HW  HW  OW  HW  HW  
OW  HW  HW  OW  HW  HW  OW  HW  HW  OW  HW  HW  OW  HW  HW  OW  HW  HW  OW  HW  
HW  OW  HW  HW  OW  HW  HW  OW  HW  HW  OW  HW  HW  OW  HW  HW  OW  HW  HW  OW  
HW  HW  OW  HW  HW  OW  HW  HW  OW  HW  HW  OW  HW  HW  OW  HW  HW  OW  HW  HW  
OW  HW  HW  OW  HW  HW  OW  HW  HW  OW  HW  HW  OW  HW  HW  OW  HW  HW  OW  HW  
HW  OW  HW  HW  OW  HW  HW  OW  HW  HW  OW  HW  HW  OW  HW  HW  OW  HW  HW  OW  
HW  HW  OW  HW  HW  OW  HW  HW  OW  HW  HW  OW  HW  HW  OW  HW  HW  OW  HW  HW  
OW  HW  HW  OW  HW  HW  OW  HW  HW  OW  HW  HW  OW  HW  HW  OW  HW  HW  OW  HW  
HW  OW  HW  HW  OW  HW  HW  OW  HW  HW  OW  HW  HW  OW  HW  HW  OW  HW  HW  OW  
HW  HW  OW  HW  HW  OW  HW  HW  OW  HW  HW  OW  HW  HW  OW  HW  HW  OW  HW  HW  
OW  HW  HW  OW  HW  HW  OW  HW  HW  OW  HW  HW  OW  HW  HW  OW  HW  HW  OW  HW  
HW  OW  HW  HW  OW  HW  HW  OW  HW  HW  OW  HW  HW  OW  HW  HW  OW  HW  HW  OW  
HW  HW  OW  HW  HW  OW  HW  HW  OW  HW  HW  OW  HW  HW  OW  HW  HW  OW  HW  HW  
OW  HW  HW  OW  HW  HW  OW  HW  HW  OW  HW  HW  OW  HW  HW  OW  HW  HW  OW  HW  
HW  OW  HW  HW  OW  HW  HW  OW  HW  HW  OW  HW  HW  OW  HW  HW  OW  HW  HW  OW  
HW  HW  OW  HW  HW  OW  HW  HW  OW  HW  HW  OW  HW  HW  OW  HW  HW  OW  HW  HW  
OW  HW  HW  OW  HW  HW  OW  HW  HW  OW  HW  HW  OW  HW  HW  OW  HW  HW  OW  HW  
HW  OW  HW  HW  OW  HW  HW  OW  HW  HW  OW  HW  HW  OW  HW  HW  OW  HW  HW  OW  
HW  HW  OW  HW  HW  OW  HW  HW  OW  HW  HW  OW  HW  HW  OW  HW  HW  OW  HW  HW  
OW  HW  HW  OW  HW  HW  OW  HW  HW  OW  HW  HW  OW  HW  HW  OW  HW  HW  OW  HW  
HW  OW  HW  HW  OW  HW  HW  OW  HW  HW  OW  HW  HW  OW  HW  HW  OW  HW  HW  OW  
HW  HW  OW  HW  HW  OW  HW  HW  OW  HW  HW  OW  HW  HW  OW  HW  HW  OW  HW  HW  
OW  HW  HW  OW  HW  HW  OW  HW  HW  OW  HW  HW  OW  HW  HW  OW  HW  HW  OW  HW  
HW  OW  HW  HW  OW  HW  HW  OW  HW  HW  OW  HW  HW  OW  HW  HW  OW  HW  HW  OW  
HW  HW  OW  HW  HW  OW  HW  HW  OW  HW  HW  OW  HW  HW  OW  HW  HW  OW  HW  HW  
OW  HW  HW  OW  HW  HW  OW  HW  HW  OW  HW  HW  OW  HW  HW  OW  HW  HW  OW  HW  
HW  OW  HW  HW  OW  HW  HW  OW  HW  HW  OW  HW  HW  OW  HW  HW  OW  HW  HW  OW  
HW  HW  OW  HW  HW  OW  HW  HW  OW  HW  HW  OW  HW  HW  OW  HW  HW  OW  HW  HW  
OW  HW  HW  OW  HW  HW  OW  HW  HW  OW  HW  HW  OW  HW  HW  OW  HW  HW  OW  HW  
HW  OW  HW  HW  OW  HW  HW  OW  HW  HW  OW  HW  HW  OW  HW  HW  OW  HW  HW  OW  
HW  HW  OW  HW  HW  OW  HW  HW  OW  HW  HW  OW  HW  HW  OW  HW  HW  OW  HW  HW  
OW  HW  HW  OW  HW  HW  OW  HW  HW  OW  HW  HW  OW  HW  HW  OW  HW  HW  OW  HW  
HW  OW  HW  HW  OW  HW  HW  OW  HW  HW  OW  HW  HW  OW  HW  HW  OW  HW  HW  OW  
HW  HW  OW  HW  HW  OW  HW  HW  OW  HW  HW  OW  HW  HW  OW  HW  HW  OW  HW  HW  
OW  HW  HW  OW  HW  HW  OW  HW  HW  OW  HW  HW  OW  HW  HW  OW  HW  HW  OW  HW  
HW  OW  HW  HW  OW  HW  HW  OW  HW  HW  OW  HW  HW  OW  HW  HW  OW  HW  HW  OW  
HW  HW  OW  HW  HW  OW  HW  HW  OW  HW  HW  OW  HW  HW  OW  HW  HW  OW  HW  HW  
OW  HW  HW  OW  HW  HW  OW  HW  HW  OW  HW  HW  OW  HW  HW  OW  HW  HW  OW  HW  
HW  OW  HW  HW  OW  HW  HW  OW  HW  HW  OW  HW  HW  OW  HW  HW  OW  HW  HW  OW  
HW  HW  OW  HW  HW  OW  HW  HW  OW  HW  HW  OW  HW  HW  OW  HW  HW  OW  HW  HW  
OW  HW  HW  OW  HW  HW  OW  HW  HW  OW  HW  HW  OW  HW  HW  OW  HW  HW  OW  HW  
HW  OW  HW  HW  OW  HW  HW  OW  HW  HW  OW  HW  HW  OW  HW  HW  OW  HW  HW  OW  
HW  HW  OW  HW  HW  OW  HW  HW  OW  HW  HW  OW  HW  HW  OW  HW  HW  OW  HW  HW  
OW  HW  HW  OW  HW  HW  OW  HW  HW  OW  HW  HW  OW  HW  HW  OW  HW  HW  OW  HW  
HW  OW  HW  HW  OW  HW  HW  OW  HW  HW  OW  HW  HW  OW  HW  HW  OW  HW  HW  OW  
HW  HW  OW  HW  HW  OW  HW  HW  OW  HW  HW  OW  HW  HW  OW  HW  HW  OW  HW  HW  
OW  HW  HW  OW  HW  HW  OW  HW  HW  OW  HW  HW  OW  HW  HW  OW  HW  HW  OW  HW  
HW  OW  HW  HW  OW  HW  HW  OW  HW  HW  OW  HW  HW  OW  HW  HW  OW  HW  HW  OW  
HW  HW  OW  HW  HW  OW  HW  HW  OW  HW  HW  OW  HW  HW  OW  HW  HW  OW  HW  HW  
OW  HW  HW  OW  HW  HW  OW  HW  HW  OW  HW  HW  OW  HW  HW  OW  HW  HW  OW  HW  
HW  OW  HW  HW  OW  HW  HW  OW  HW  HW  OW  HW  HW  OW  HW  HW  OW  HW  HW  OW  
HW  HW  OW  HW  HW  OW  HW  HW  OW  HW  HW  OW  HW  HW  OW  HW  HW  OW  HW  HW  
OW  HW  HW  OW  HW  HW  OW  HW  HW  OW  HW  HW  OW  HW  HW  OW  HW  HW  OW  HW  
HW  OW  HW  HW  OW  HW  HW  OW  HW  HW  OW  HW  HW  OW  HW  HW  OW  HW  HW  OW  
HW  HW  OW  HW  HW  OW  HW  HW  OW  HW  HW  OW  HW  HW  OW  HW  HW  OW  HW  HW  
OW  HW  HW  OW  HW  HW  OW  HW  HW  OW  HW  HW  OW  HW  HW  OW  HW  HW  OW  HW  
HW  OW  HW  HW  OW  HW  HW  OW  HW  HW  OW  HW  HW  OW  HW  HW  OW  HW  HW  OW  
HW  HW  OW  HW  HW  OW  HW  HW  OW  HW  HW  OW  HW  HW  OW  HW  HW  OW  HW  HW  
OW  HW  HW  OW  HW  HW  OW  HW  HW  OW  HW  HW  OW  HW  HW  OW  HW  HW  OW  HW  
HW  OW  HW  HW  OW  HW  HW  OW  HW  HW  OW  HW  HW  OW  HW  HW  OW  HW  HW  OW  
HW  HW  OW  HW  HW  OW  HW  HW  OW  HW  HW  OW  HW  HW  OW  HW  HW  OW  HW  HW  
OW  HW  HW  OW  HW  HW  OW  HW  HW  OW  HW  HW  OW  HW  HW  OW  HW  HW  OW  HW  
HW  OW  HW  HW  OW  HW  HW  OW  HW  HW  OW  HW  HW  OW  HW  HW  OW  HW  HW  OW  
HW  HW  OW  HW  HW  OW  HW  HW  OW  HW  HW  OW  HW  HW  OW  HW  HW  OW  HW  HW  
OW  HW  HW  OW  HW  HW  OW  HW  HW  OW  HW  HW  OW  HW  HW  OW  HW  HW  OW  HW  
HW  OW  HW  HW  OW  HW  HW  OW  HW  HW  OW  HW  HW  OW  HW  HW  OW  HW  HW  OW  
HW  HW  OW  HW  HW  OW  HW  HW  OW  HW  HW  OW  HW  HW  OW  HW  HW  OW  HW  HW  
OW  HW  HW  OW  HW  HW  OW  HW  HW  OW  HW  HW  OW  HW  HW  OW  HW  HW  OW  HW  
HW  OW  HW  HW  OW  HW  HW  OW  HW  HW  OW  HW  HW  OW  HW  HW  OW  HW  HW  OW  
HW  HW  OW  HW  HW  OW  HW  HW  OW  HW  HW  OW  HW  HW  OW  HW  HW  OW  HW  HW  
OW  HW  HW  OW  HW  HW  OW  HW  HW  OW  HW  HW  OW  HW  HW  OW  HW  HW  OW  HW  
HW  OW  HW  HW  OW  HW  HW  OW  HW  HW  OW  HW  HW  OW  HW  HW  OW  HW  HW  OW  
HW  HW  OW  HW  HW  OW  HW  HW  OW  HW  HW  OW  HW  HW  OW  HW  HW  OW  HW  HW  
OW  HW  HW  OW  HW  HW  OW  HW  HW  OW  HW  HW  OW  HW  HW  OW  HW  HW  OW  HW  
HW  OW  HW  HW  OW  HW  HW  OW  HW  HW  OW  HW  HW  OW  HW  HW  OW  HW  HW  OW  
HW  HW  OW  HW  HW  OW  HW  HW  OW  HW  HW  OW  HW  HW  OW  HW  HW  OW  HW  HW  
OW  HW  HW  OW  HW  HW  OW  HW  HW  OW  HW  HW  OW  HW  HW  OW  HW  HW  OW  HW  
HW  OW  HW  HW  OW  HW  HW  OW  HW  HW  OW  HW  HW  OW  HW  HW  OW  HW  HW  OW  
HW  HW  OW  HW  HW  OW  HW  HW  OW  HW  HW  OW  HW  HW  OW  HW  HW  OW  HW  HW  
OW  HW  HW  OW  HW  HW  OW  HW  HW  OW  HW  HW  OW  HW  HW  OW  HW  HW  OW  HW  
HW  OW  HW  HW  OW  HW  HW  OW  HW  HW  OW  HW  HW  OW  HW  HW  OW  HW  HW  OW  
HW  HW  OW  HW  HW  OW  HW  HW  OW  HW  HW  OW  HW  HW  OW  HW  HW  OW  HW  HW  
OW  HW  HW  OW  HW  HW  OW  HW  HW  OW  HW  HW  OW  HW  HW  OW  HW  HW  OW  HW  
HW  OW  HW  HW  OW  HW  HW  OW  HW  HW  OW  HW  HW  OW  HW  HW  OW  HW  HW  OW  
HW  HW  OW  HW  HW  OW  HW  HW  OW  HW  HW  OW  HW  HW  OW  HW  HW  OW  HW  HW  
OW  HW  HW  OW  HW  HW  OW  HW  HW  OW  HW  HW  OW  HW  HW  OW  HW  HW  OW  HW  
HW  OW  HW  HW  OW  HW  HW  OW  HW  HW  OW  HW  HW  OW  HW  HW  OW  HW  HW  OW  
HW  HW  OW  HW  HW  OW  HW  HW  OW  HW  HW  OW  HW  HW  OW  HW  HW  OW  HW  HW  
OW  HW  HW  OW  HW  HW  OW  HW  HW  OW  HW  HW  OW  HW  HW  OW  HW  HW  OW  HW  
HW  OW  HW  HW  OW  HW  HW  OW  HW  HW  OW  HW  HW  OW  HW  HW  OW  HW  HW  OW  
HW  HW  OW  HW  HW  OW  HW  HW  OW  HW  HW  OW  HW  HW  OW  HW  HW  OW  HW  HW  
OW  HW  HW  OW  HW  HW  OW  HW  HW  OW  HW  HW  OW  HW  HW  OW  HW  HW  OW  HW  
HW  OW  HW  HW  OW  HW  HW  OW  HW  HW  OW  HW  HW  OW  HW  HW  OW  HW  HW  OW  
HW  HW  OW  HW  HW  OW  HW  HW  OW  HW  HW  OW  HW  HW  OW  HW  HW  OW  HW  HW  
OW  HW  HW  OW  HW  HW  OW  HW  HW  OW  HW  HW  OW  HW  HW  OW  HW  HW  OW  HW  
HW  OW  HW  HW  OW  HW  HW  OW  HW  HW  OW  HW  HW  OW  HW  HW  OW  HW  HW  OW  
HW  HW  OW  HW  HW  OW  HW  HW  OW  HW  HW  OW  HW  HW  OW  HW  HW  OW  HW  HW  
OW  HW  HW  OW  HW  HW  OW  HW  HW  OW  HW  HW  OW  HW  HW  OW  HW  HW  OW  HW  
HW  OW  HW  HW  OW  HW  HW  OW  HW  HW  OW  HW  HW  OW  HW  HW  OW  HW  HW  OW  
HW  HW  OW  HW  HW  OW  HW  HW  OW  HW  HW  OW  HW  HW  OW  HW  HW  OW  HW  HW  
OW  HW  HW  OW  HW  HW  OW  HW  HW  OW  HW  HW  OW  HW  HW  OW  HW  HW  OW  HW  
HW  OW  HW  HW  OW  HW  HW  OW  HW  HW  OW  HW  HW  OW  HW  HW  OW  HW  HW  OW  
HW  HW  OW  HW  HW  OW  HW  HW  OW  HW  HW  OW  HW  HW  OW  HW  HW  OW  HW  HW  
OW  HW  HW  OW  HW  HW  OW  HW  HW  OW  HW  HW  OW  HW  HW  OW  HW  HW  OW  HW  
HW  OW  HW  HW  OW  HW  HW  OW  HW  HW  OW  HW  HW  OW  HW  HW  OW  HW  HW  OW  
HW  HW  OW  HW  HW  OW  HW  HW  OW  HW  HW  OW  HW  HW  OW  HW  HW  OW  HW  HW  
OW  HW  HW  OW  HW  HW  OW  HW  HW  OW  HW  HW  OW  HW  HW  OW  HW  HW  OW  HW  
HW  OW  HW  HW  OW  HW  HW  OW  HW  HW  OW  HW  HW  OW  HW  HW  OW  HW  HW  OW  
HW  HW  OW  HW  HW  OW  HW  HW  OW  HW  HW  OW  HW  HW  OW  HW  HW  OW  HW  HW  
OW  HW  HW  OW  HW  HW  OW  HW  HW  OW  HW  HW  OW  HW  HW  OW  HW  HW  OW  HW  
HW  OW  HW  HW  OW  HW  HW  OW  HW  HW  OW  HW  HW  OW  HW  HW  OW  HW  HW  OW  
HW  HW  OW  HW  HW  OW  HW  HW  OW  HW  HW  OW  HW  HW  OW  HW  HW  OW  HW  HW  
OW  HW  HW  OW  HW  HW  OW  HW  HW  OW  HW  HW  OW  HW  HW  OW  HW  HW  OW  HW  
HW  OW  HW  HW  OW  HW  HW  OW  HW  HW  OW  HW  HW  OW  HW  HW  OW  HW  HW  OW  
HW  HW  OW  HW  HW  OW  HW  HW  OW  HW  HW  OW  HW  HW  OW  HW  HW  OW  HW  HW  
OW  HW  HW  OW  HW  HW  OW  HW  HW  OW  HW  HW  OW  HW  HW  OW  HW  HW  OW  HW  
HW  OW  HW  HW  OW  HW  HW  OW  HW  HW  OW  HW  HW  OW  HW  HW  OW  HW  HW  OW  
HW  HW  OW  HW  HW  OW  HW  HW  OW  HW  HW  OW  HW  HW  OW  HW  HW  OW  HW  HW  
OW  HW  HW  OW  HW  HW  OW  HW  HW  OW  HW  HW  OW  HW  HW  OW  HW  HW  OW  HW  
HW  OW  HW  HW  OW  HW  HW  OW  HW  HW  OW  HW  HW  OW  HW  HW  OW  HW  HW  OW  
HW  HW  OW  HW  HW  OW  HW  HW  OW  HW  HW  OW  HW  HW  OW  HW  HW  OW  HW  HW  
OW  HW  HW  OW  HW  HW  OW  HW  HW  OW  HW  HW  OW  HW  HW  OW  HW  HW  OW  HW  
HW  OW  HW  HW  OW  HW  HW  OW  HW  HW  OW  HW  HW  OW  HW  HW  OW  HW  HW  OW  
HW  HW  OW  HW  HW  OW  HW  HW  OW  HW  HW  OW  HW  HW  OW  HW  HW  OW  HW  HW  
OW  HW  HW  OW  HW  HW  OW  HW  HW  OW  HW  HW  OW  HW  HW  OW  HW  HW  OW  HW  
HW  OW  HW  HW  OW  HW  HW  OW  HW  HW  OW  HW  HW  OW  HW  HW  OW  HW  HW  OW  
HW  HW  OW  HW  HW  OW  HW  HW  OW  HW  HW  OW  HW  HW  OW  HW  HW  OW  HW  HW  
OW  HW  HW  OW  HW  HW  OW  HW  HW  OW  HW  HW  OW  HW  HW  OW  HW  HW  OW  HW  
HW  OW  HW  HW  OW  HW  HW  OW  HW  HW  OW  HW  HW  OW  HW  HW  OW  HW  HW  OW  
HW  HW  OW  HW  HW  OW  HW  HW  OW  HW  HW  OW  HW  HW  OW  HW  HW  OW  HW  HW  
OW  HW  HW  OW  HW  HW  OW  HW  HW  OW  HW  HW  OW  HW  HW  OW  HW  HW  OW  HW  
HW  OW  HW  HW  OW  HW  HW  OW  HW  HW  OW  HW  HW  OW  HW  HW  OW  HW  HW  OW  
HW  HW  OW  HW  HW  OW  HW  HW  OW  HW  HW  OW  HW  HW  OW  HW  HW  OW  HW  HW  
OW  HW  HW  OW  HW  HW  OW  HW  HW  OW  HW  HW  OW  HW  HW  OW  HW  HW  OW  HW  
HW  OW  HW  HW  OW  HW  HW  OW  HW  HW  OW  HW  HW  OW  HW  HW  OW  HW  HW  OW  
HW  HW  OW  HW  HW  OW  HW  HW  OW  HW  HW  OW  HW  HW  OW  HW  HW  OW  HW  HW  
OW  HW  HW  OW  HW  HW  OW  HW  HW  OW  HW  HW  OW  HW  HW  OW  HW  HW  OW  HW  
HW  OW  HW  HW  OW  HW  HW  OW  HW  HW  OW  HW  HW  OW  HW  HW  OW  HW  HW  OW  
HW  HW  OW  HW  HW  OW  HW  HW  OW  HW  HW  OW  HW  HW  OW  HW  HW  OW  HW  HW  
OW  HW  HW  OW  HW  HW  OW  HW  HW  OW  HW  HW  OW  HW  HW  OW  HW  HW  OW  HW  
HW  OW  HW  HW  OW  HW  HW  OW  HW  HW  OW  HW  HW  OW  HW  HW  OW  HW  HW  OW  
HW  HW  OW  HW  HW  OW  HW  HW  OW  HW  HW  OW  HW  HW  OW  HW  HW  OW  HW  HW  
OW  HW  HW  OW  HW  HW  OW  HW  HW  OW  HW  HW  OW  HW  HW  OW  HW  HW  OW  HW  
HW  OW  HW  HW  OW  HW  HW  OW  HW  HW  OW  HW  HW  OW  HW  HW  OW  HW  HW  OW  
HW  HW  OW  HW  HW  OW  HW  HW  OW  HW  HW  OW  HW  HW  OW  HW  HW  OW  HW  HW  
OW  HW  HW  OW  HW  HW  OW  HW  HW  OW  HW  HW  OW  HW  HW  OW  HW  HW  OW  HW  
HW  OW  HW  HW  OW  HW  HW  OW  HW  HW  OW  HW  HW  OW  HW  HW  OW  HW  HW  OW  
HW  HW  OW  HW  HW  OW  HW  HW  OW  HW  HW  OW  HW  HW  OW  HW  HW  OW  HW  HW  
OW  HW  HW  OW  HW  HW  OW  HW  HW  OW  HW  HW  OW  HW  HW  OW  HW  HW  OW  HW  
HW  OW  HW  HW  OW  HW  HW  OW  HW  HW  OW  HW  HW  OW  HW  HW  OW  HW  HW  OW  
HW  HW  OW  HW  HW  OW  HW  HW  OW  HW  HW  OW  HW  HW  OW  HW  HW  OW  HW  HW  
OW  HW  HW  OW  HW  HW  OW  HW  HW  OW  HW  HW  OW  HW  HW  OW  HW  HW  OW  HW  
HW  OW  HW  HW  OW  HW  HW  OW  HW  HW  OW  HW  HW  OW  HW  HW  OW  HW  HW  OW  
HW  HW  OW  HW  HW  OW  HW  HW  OW  HW  HW  OW  HW  HW  OW  HW  HW  OW  HW  HW  
OW  HW  HW  OW  HW  HW  OW  HW  HW  OW  HW  HW  OW  HW  HW  OW  HW  HW  OW  HW  
HW  OW  HW  HW  OW  HW  HW  OW  HW  HW  OW  HW  HW  OW  HW  HW  OW  HW  HW  OW  
HW  HW  OW  HW  HW  OW  HW  HW  OW  HW  HW  OW  HW  HW  OW  HW  HW  OW  HW  HW  
OW  HW  HW  OW  HW  HW  OW  HW  HW  OW  HW  HW  OW  HW  HW  OW  HW  HW  OW  HW  
HW  OW  HW  HW  OW  HW  HW  OW  HW  HW  OW  HW  HW  OW  HW  HW  OW  HW  HW  OW  
HW  HW  OW  HW  HW  OW  HW  HW  OW  HW  HW  OW  HW  HW  OW  HW  HW  OW  HW  HW  
OW  HW  HW  OW  HW  HW  OW  HW  HW  OW  HW  HW  OW  HW  HW  OW  HW  HW  OW  HW  
HW  OW  HW  HW  OW  HW  HW  OW  HW  HW  OW  HW  HW  OW  HW  HW  OW  HW  HW  OW  
HW  HW  OW  HW  HW  OW  HW  HW  OW  HW  HW  OW  HW  HW  OW  HW  HW  OW  HW  HW  
OW  HW  HW  OW  HW  HW  OW  HW  HW  OW  HW  HW  OW  HW  HW  OW  HW  HW  OW  HW  
HW  OW  HW  HW  OW  HW  HW  OW  HW  HW  OW  HW  HW  OW  HW  HW  OW  HW  HW  OW  
HW  HW  OW  HW  HW  OW  HW  HW  OW  HW  HW  OW  HW  HW  OW  HW  HW  OW  HW  HW  
OW  HW  HW  OW  HW  HW  OW  HW  HW  OW  HW  HW  OW  HW  HW  OW  HW  HW  OW  HW  
HW  OW  HW  HW  OW  HW  HW  OW  HW  HW  OW  HW  HW  OW  HW  HW  OW  HW  HW  OW  
HW  HW  OW  HW  HW  OW  HW  HW  OW  HW  HW  OW  HW  HW  OW  HW  HW  OW  HW  HW  
OW  HW  HW  OW  HW  HW  OW  HW  HW  OW  HW  HW  OW  HW  HW  OW  HW  HW  OW  HW  
HW  OW  HW  HW  OW  HW  HW  OW  HW  HW  OW  HW  HW  OW  HW  HW  OW  HW  HW  OW  
HW  HW  OW  HW  HW  OW  HW  HW  OW  HW  HW  OW  HW  HW  OW  HW  HW  OW  HW  HW  
OW  HW  HW  OW  HW  HW  OW  HW  HW  OW  HW  HW  OW  HW  HW  OW  HW  HW  OW  HW  
HW  OW  HW  HW  OW  HW  HW  OW  HW  HW  OW  HW  HW  OW  HW  HW  OW  HW  HW  OW  
HW  HW  OW  HW  HW  OW  HW  HW  OW  HW  HW  OW  HW  HW  OW  HW  HW  OW  HW  HW  
OW  HW  HW  OW  HW  HW  OW  HW  HW  OW  HW  HW  OW  HW  HW  OW  HW  HW  OW  HW  
HW  OW  HW  HW  OW  HW  HW  OW  HW  HW  OW  HW  HW  OW  HW  HW  OW  HW  HW  OW  
HW  HW  OW  HW  HW  OW  HW  HW  OW  HW  HW  OW  HW  HW  OW  HW  HW  OW  HW  HW  
OW  HW  HW  OW  HW  HW  OW  HW  HW  OW  HW  HW  OW  HW  HW  OW  HW  HW  OW  HW  
HW  OW  HW  HW  OW  HW  HW  OW  HW  HW  OW  HW  HW  OW  HW  HW  OW  HW  HW  OW  
HW  HW  OW  HW  HW  OW  HW  HW  OW  HW  HW  OW  HW  HW  OW  HW  HW  OW  HW  HW  
OW  HW  HW  OW  HW  HW  OW  HW  HW  OW  HW  HW  OW  HW  HW  OW  HW  HW  OW  HW  
HW  OW  HW  HW  OW  HW  HW  OW  HW  HW  OW  HW  HW  OW  HW  HW  OW  HW  HW  OW  
HW  HW  OW  HW  HW  OW  HW  HW  OW  HW  HW  OW  HW  HW  OW  HW  HW  OW  HW  HW  
OW  HW  HW  OW  HW  HW  OW  HW  HW  OW  HW  HW  OW  HW  HW  OW  HW  HW  OW  HW  
HW  OW  HW  HW  OW  HW  HW  OW  HW  HW  OW  HW  HW  OW  HW  HW  OW  HW  HW  OW  
HW  HW  OW  HW  HW  OW  HW  HW  OW  HW  HW  OW  HW  HW  OW  HW  HW  OW  HW  HW  
OW  HW  HW  OW  HW  HW  OW  HW  HW  OW  HW  HW  OW  HW  HW  OW  HW  HW  OW  HW  
HW  OW  HW  HW  OW  HW  HW  OW  HW  HW  OW  HW  HW  OW  HW  HW  OW  HW  HW  OW  
HW  HW  OW  HW  HW  OW  HW  HW  OW  HW  HW  OW  HW  HW  OW  HW  HW  OW  HW  HW  
OW  HW  HW  OW  HW  HW  OW  HW  HW  OW  HW  HW  OW  HW  HW  OW  HW  HW  OW  HW  
HW  OW  HW  HW  OW  HW  HW  OW  HW  HW  OW  HW  HW  OW  HW  HW  OW  HW  HW  OW  
HW  HW  OW  HW  HW  OW  HW  HW  OW  HW  HW  OW  HW  HW  OW  HW  HW  OW  HW  HW  
OW  HW  HW  OW  HW  HW  OW  HW  HW  OW  HW  HW  OW  HW  HW  OW  HW  HW  OW  HW  
HW  OW  HW  HW  OW  HW  HW  OW  HW  HW  OW  HW  HW  OW  HW  HW  OW  HW  HW  OW  
HW  HW  OW  HW  HW  OW  HW  HW  OW  HW  HW  OW  HW  HW  OW  HW  HW  OW  HW  HW  
OW  HW  HW  OW  HW  HW  OW  HW  HW  OW  HW  HW  OW  HW  HW  OW  HW  HW  OW  HW  
HW  OW  HW  HW  OW  HW  HW  OW  HW  HW  OW  HW  HW  OW  HW  HW  OW  HW  HW  OW  
HW  HW  OW  HW  HW  OW  HW  HW  OW  HW  HW  OW  HW  HW  OW  HW  HW  OW  HW  HW  
OW  HW  HW  OW  HW  HW  OW  HW  HW  OW  HW  HW  OW  HW  HW  OW  HW  HW  OW  HW  
HW  OW  HW  HW  OW  HW  HW  OW  HW  HW  OW  HW  HW  OW  HW  HW  OW  HW  HW  OW  
HW  HW  OW  HW  HW  OW  HW  HW  OW  HW  HW  OW  HW  HW  OW  HW  HW  OW  HW  HW  
OW  HW  HW  OW  HW  HW  OW  HW  HW  OW  HW  HW  OW  HW  HW  OW  HW  HW  OW  HW  
HW  OW  HW  HW  OW  HW  HW  OW  HW  HW  OW  HW  HW  OW  HW  HW  OW  HW  HW  OW  
HW  HW  OW  HW  HW  OW  HW  HW  OW  HW  HW  OW  HW  HW  OW  HW  HW  OW  HW  HW  
OW  HW  HW  OW  HW  HW  OW  HW  HW  OW  HW  HW  OW  HW  HW  OW  HW  HW  OW  HW  
HW  OW  HW  HW  OW  HW  HW  OW  HW  HW  OW  HW  HW  OW  HW  HW  OW  HW  HW  OW  
HW  HW  OW  HW  HW  OW  HW  HW  OW  HW  HW  OW  HW  HW  OW  HW  HW  OW  HW  HW  
OW  HW  HW  OW  HW  HW  OW  HW  HW  OW  HW  HW  OW  HW  HW  OW  HW  HW  OW  HW  
HW  OW  HW  HW  OW  HW  HW  OW  HW  HW  OW  HW  HW  OW  HW  HW  OW  HW  HW  OW  
HW  HW  OW  HW  HW  OW  HW  HW  OW  HW  HW  OW  HW  HW  OW  HW  HW  OW  HW  HW  
OW  HW  HW  OW  HW  HW  OW  HW  HW  OW  HW  HW  OW  HW  HW  OW  HW  HW  OW  HW  
HW  OW  HW  HW  OW  HW  HW  OW  HW  HW  OW  HW  HW  OW  HW  HW  OW  HW  HW  OW  
HW  HW  OW  HW  HW  OW  HW  HW  OW  HW  HW  OW  HW  HW  OW  HW  HW  OW  HW  HW  
OW  HW  HW  OW  HW  HW  OW  HW  HW  OW  HW  HW  OW  HW  HW  OW  HW  HW  OW  HW  
HW  OW  HW  HW  OW  HW  HW  OW  HW  HW  OW  HW  HW  OW  HW  HW  OW  HW  HW  OW  
HW  HW  OW  HW  HW  OW  HW  HW  OW  HW  HW  OW  HW  HW  OW  HW  HW  OW  HW  HW  
OW  HW  HW  OW  HW  HW  OW  HW  HW  OW  HW  HW  OW  HW  HW  OW  HW  HW  OW  HW  
HW  OW  HW  HW  OW  HW  HW  OW  HW  HW  OW  HW  HW  OW  HW  HW  OW  HW  HW  OW  
HW  HW  OW  HW  HW  OW  HW  HW  OW  HW  HW  OW  HW  HW  OW  HW  HW  OW  HW  HW  
OW  HW  HW  OW  HW  HW  OW  HW  HW  OW  HW  HW  OW  HW  HW  OW  HW  HW  OW  HW  
HW  OW  HW  HW  OW  HW  HW  OW  HW  HW  OW  HW  HW  OW  HW  HW  OW  HW  HW  OW  
HW  HW  OW  HW  HW  OW  HW  HW  OW  HW  HW  OW  HW  HW  OW  HW  HW  OW  HW  HW  
OW  HW  HW  OW  HW  HW  OW  HW  HW  OW  HW  HW  OW  HW  HW  OW  HW  HW  OW  HW  
HW  OW  HW  HW  OW  HW  HW  OW  HW  HW  OW  HW  HW  OW  HW  HW  OW  HW  HW  OW  
HW  HW  OW  HW  HW  OW  HW  HW  OW  HW  HW  OW  HW  HW  OW  HW  HW  OW  HW  HW  
OW  HW  HW  OW  HW  HW  OW  HW  HW  OW  HW  HW  OW  HW  HW  OW  HW  HW  OW  HW  
HW  OW  HW  HW  OW  HW  HW  OW  HW  HW  OW  HW  HW  OW  HW  HW  OW  HW  HW  OW  
HW  HW  OW  HW  HW  OW  HW  HW  OW  HW  HW  OW  HW  HW  OW  HW  HW  OW  HW  HW  
OW  HW  HW  OW  HW  HW  OW  HW  HW  OW  HW  HW  OW  HW  HW  OW  HW  HW  OW  HW  
HW  OW  HW  HW  OW  HW  HW  OW  HW  HW  OW  HW  HW  OW  HW  HW  OW  HW  HW  OW  
HW  HW  OW  HW  HW  OW  HW  HW  OW  HW  HW  OW  HW  HW  OW  HW  HW  OW  HW  HW  
OW  HW  HW  OW  HW  HW  OW  HW  HW  OW  HW  HW  OW  HW  HW  OW  HW  HW  OW  HW  
HW  OW  HW  HW  OW  HW  HW  OW  HW  HW  OW  HW  HW  OW  HW  HW  OW  HW  HW  OW  
HW  HW  OW  HW  HW  OW  HW  HW  OW  HW  HW  OW  HW  HW  OW  HW  HW  OW  HW  HW  
OW  HW  HW  OW  HW  HW  OW  HW  HW  OW  HW  HW  OW  HW  HW  OW  HW  HW  OW  HW  
HW  OW  HW  HW  OW  HW  HW  OW  HW  HW  OW  HW  HW  OW  HW  HW  OW  HW  HW  OW  
HW  HW  OW  HW  HW  OW  HW  HW  OW  HW  HW  OW  HW  HW  OW  HW  HW  OW  HW  HW  
OW  HW  HW  OW  HW  HW  OW  HW  HW  OW  HW  HW  OW  HW  HW  OW  HW  HW  OW  HW  
HW  OW  HW  HW  OW  HW  HW  OW  HW  HW  OW  HW  HW  OW  HW  HW  OW  HW  HW  OW  
HW  HW  OW  HW  HW  OW  HW  HW  OW  HW  HW  OW  HW  HW  OW  HW  HW  OW  HW  HW  
OW  HW  HW  OW  HW  HW  OW  HW  HW  OW  HW  HW  OW  HW  HW  OW  HW  HW  OW  HW  
HW  OW  HW  HW  OW  HW  HW  OW  HW  HW  OW  HW  HW  OW  HW  HW  OW  HW  HW  OW  
HW  HW  OW  HW  HW  OW  HW  HW  OW  HW  HW  OW  HW  HW  OW  HW  HW  OW  HW  HW  
OW  HW  HW  OW  HW  HW  OW  HW  HW  OW  HW  HW  OW  HW  HW  OW  HW  HW  OW  HW  
HW  OW  HW  HW  OW  HW  HW  OW  HW  HW  OW  HW  HW  OW  HW  HW  OW  HW  HW  OW  
HW  HW  OW  HW  HW  OW  HW  HW  OW  HW  HW  OW  HW  HW  OW  HW  HW  OW  HW  HW  
OW  HW  HW  OW  HW  HW  OW  HW  HW  OW  HW  HW  OW  HW  HW  OW  HW  HW  OW  HW  
HW  OW  HW  HW  OW  HW  HW  OW  HW  HW  OW  HW  HW  OW  HW  HW  OW  HW  HW  OW  
HW  HW  OW  HW  HW  OW  HW  HW  OW  HW  HW  OW  HW  HW  OW  HW  HW  OW  HW  HW  
OW  HW  HW  OW  HW  HW  OW  HW  HW  OW  HW  HW  OW  HW  HW  OW  HW  HW  OW  HW  
HW  OW  HW  HW  OW  HW  HW  OW  HW  HW  OW  HW  HW  OW  HW  HW  OW  HW  HW  OW  
HW  HW  OW  HW  HW  OW  HW  HW  OW  HW  HW  OW  HW  HW  OW  HW  HW  OW  HW  HW  
OW  HW  HW  OW  HW  HW  OW  HW  HW  OW  HW  HW  OW  HW  HW  OW  HW  HW  OW  HW  
HW  OW  HW  HW  OW  HW  HW  OW  HW  HW  OW  HW  HW  OW  HW  HW  OW  HW  HW  OW  
HW  HW  OW  HW  HW  OW  HW  HW  OW  HW  HW  OW  HW  HW  OW  HW  HW  OW  HW  HW  
OW  HW  HW  OW  HW  HW  OW  HW  HW  OW  HW  HW  OW  HW  HW  OW  HW  HW  OW  HW  
HW  OW  HW  HW  OW  HW  HW  OW  HW  HW  OW  HW  HW  OW  HW  HW  OW  HW  HW  OW  
HW  HW  OW  HW  HW  OW  HW  HW  OW  HW  HW  OW  HW  HW  OW  HW  HW  OW  HW  HW  
OW  HW  HW  OW  HW  HW  OW  HW  HW  OW  HW  HW  OW  HW  HW  OW  HW  HW  OW  HW  
HW  OW  HW  HW  OW  HW  HW  OW  HW  HW  OW  HW  HW  OW  HW  HW  OW  HW  HW  OW  
HW  HW  OW  HW  HW  OW  HW  HW  OW  HW  HW  OW  HW  HW  OW  HW  HW  OW  HW  HW  
OW  HW  HW  OW  HW  HW  OW  HW  HW  OW  HW  HW  OW  HW  HW  OW  HW  HW  OW  HW  
HW  OW  HW  HW  OW  HW  HW  OW  HW  HW  OW  HW  HW  OW  HW  HW  OW  HW  HW  OW  
HW  HW  OW  HW  HW  OW  HW  HW  OW  HW  HW  OW  HW  HW  OW  HW  HW  OW  HW  HW  
OW  HW  HW  OW  HW  HW  OW  HW  HW  OW  HW  HW  OW  HW  HW  OW  HW  HW  OW  HW  
HW  OW  HW  HW  OW  HW  HW  OW  HW  HW  OW  HW  HW  OW  HW  HW  OW  HW  HW  OW  
HW  HW  OW  HW  HW  OW  HW  HW  OW  HW  HW  OW  HW  HW  OW  HW  HW  OW  HW  HW  
OW  HW  HW  OW  HW  HW  OW  HW  HW  OW  HW  HW  OW  HW  HW  OW  HW  HW  OW  HW  
HW  OW  HW  HW  OW  HW  HW  OW  HW  HW  OW  HW  HW  OW  HW  HW  OW  HW  HW  OW  
HW  HW  OW  HW  HW  OW  HW  HW  OW  HW  HW  OW  HW  HW  OW  HW  HW  OW  HW  HW  
OW  HW  HW  OW  HW  HW  OW  HW  HW  OW  HW  HW  OW  HW  HW  OW  HW  HW  OW  HW  
HW  OW  HW  HW  OW  HW  HW  OW  HW  HW  OW  HW  HW  OW  HW  HW  OW  HW  HW  OW  
HW  HW  OW  HW  HW  OW  HW  HW  OW  HW  HW  OW  HW  HW  OW  HW  HW  OW  HW  HW  
OW  HW  HW  OW  HW  HW  OW  HW  HW  OW  HW  HW  OW  HW  HW  OW  HW  HW  OW  HW  
HW  OW  HW  HW  OW  HW  HW  OW  HW  HW  OW  HW  HW  OW  HW  HW  OW  HW  HW  OW  
HW  HW  OW  HW  HW  OW  HW  HW  OW  HW  HW  OW  HW  HW  OW  HW  HW  OW  HW  HW  
OW  HW  HW  OW  HW  HW  OW  HW  HW  OW  HW  HW  OW  HW  HW  OW  HW  HW  OW  HW  
HW  OW  HW  HW  OW  HW  HW  OW  HW  HW  OW  HW  HW  OW  HW  HW  OW  HW  HW  OW  
HW  HW  OW  HW  HW  OW  HW  HW  OW  HW  HW  OW  HW  HW  OW  HW  HW  OW  HW  HW  
OW  HW  HW  OW  HW  HW  OW  HW  HW  OW  HW  HW  OW  HW  HW  OW  HW  HW  OW  HW  
HW  OW  HW  HW  OW  HW  HW  OW  HW  HW  OW  HW  HW  OW  HW  HW  OW  HW  HW  OW  
HW  HW  OW  HW  HW  OW  HW  HW  OW  HW  HW  OW  HW  HW  OW  HW  HW  OW  HW  HW  
OW  HW  HW  OW  HW  HW  OW  HW  HW  OW  HW  HW  OW  HW  HW  OW  HW  HW  OW  HW  
HW  OW  HW  HW  OW  HW  HW  OW  HW  HW  OW  HW  HW  OW  HW  HW  OW  HW  HW  OW  
HW  HW  OW  HW  HW  OW  HW  HW  OW  HW  HW  OW  HW  HW  OW  HW  HW  OW  HW  HW  
OW  HW  HW  OW  HW  HW  OW  HW  HW  OW  HW  HW  OW  HW  HW  OW  HW  HW  OW  HW  
HW  OW  HW  HW  OW  HW  HW  OW  HW  HW  OW  HW  HW  OW  HW  HW  OW  HW  HW  OW  
HW  HW  OW  HW  HW  OW  HW  HW  OW  HW  HW  OW  HW  HW  OW  HW  HW  OW  HW  HW  
OW  HW  HW  OW  HW  HW  OW  HW  HW  OW  HW  HW  OW  HW  HW  OW  HW  HW  OW  HW  
HW  OW  HW  HW  OW  HW  HW  OW  HW  HW  OW  HW  HW  OW  HW  HW  OW  HW  HW  OW  
HW  HW  OW  HW  HW  OW  HW  HW  OW  HW  HW  OW  HW  HW  OW  HW  HW  OW  HW  HW  
OW  HW  HW  OW  HW  HW  OW  HW  HW  OW  HW  HW  OW  HW  HW  OW  HW  HW  OW  HW  
HW  OW  HW  HW  OW  HW  HW  OW  HW  HW  OW  HW  HW  OW  HW  HW  OW  HW  HW  OW  
HW  HW  OW  HW  HW  OW  HW  HW  OW  HW  HW  OW  HW  HW  OW  HW  HW  OW  HW  HW  
OW  HW  HW  OW  HW  HW  OW  HW  HW  OW  HW  HW  OW  HW  HW  OW  HW  HW  OW  HW  
HW  OW  HW  HW  OW  HW  HW  OW  HW  HW  OW  HW  HW  OW  HW  HW  OW  HW  HW  OW  
HW  HW  OW  HW  HW  OW  HW  HW  OW  HW  HW  OW  HW  HW  OW  HW  HW  OW  HW  HW  
OW  HW  HW  OW  HW  HW  OW  HW  HW  OW  HW  HW  OW  HW  HW  OW  HW  HW  OW  HW  
HW  OW  HW  HW  OW  HW  HW  OW  HW  HW  OW  HW  HW  OW  HW  HW  OW  HW  HW  OW  
HW  HW  OW  HW  HW  OW  HW  HW  OW  HW  HW  OW  HW  HW  OW  HW  HW  OW  HW  HW  
OW  HW  HW  OW  HW  HW  OW  HW  HW  OW  HW  HW  OW  HW  HW  OW  HW  HW  OW  HW  
HW  OW  HW  HW  OW  HW  HW  OW  HW  HW  OW  HW  HW  OW  HW  HW  OW  HW  HW  OW  
HW  HW  OW  HW  HW  OW  HW  HW  OW  HW  HW  OW  HW  HW  OW  HW  HW  OW  HW  HW  
OW  HW  HW  OW  HW  HW  OW  HW  HW  OW  HW  HW  OW  HW  HW  OW  HW  HW  OW  HW  
HW  OW  HW  HW  OW  HW  HW  OW  HW  HW  OW  HW  HW  OW  HW  HW  OW  HW  HW  OW  
HW  HW  OW  HW  HW  OW  HW  HW  OW  HW  HW  OW  HW  HW  OW  HW  HW  OW  HW  HW  
OW  HW  HW  OW  HW  HW  OW  HW  HW  OW  HW  HW  OW  HW  HW  OW  HW  HW  OW  HW  
HW  OW  HW  HW  OW  HW  HW  OW  HW  HW  OW  HW  HW  OW  HW  HW  OW  HW  HW  OW  
HW  HW  OW  HW  HW  OW  HW  HW  OW  HW  HW  OW  HW  HW  OW  HW  HW  OW  HW  HW  
OW  HW  HW  OW  HW  HW  OW  HW  HW  OW  HW  HW  OW  HW  HW  OW  HW  HW  OW  HW  
HW  OW  HW  HW  OW  HW  HW  OW  HW  HW  OW  HW  HW  OW  HW  HW  OW  HW  HW  OW  
HW  HW  OW  HW  HW  OW  HW  HW  OW  HW  HW  OW  HW  HW  OW  HW  HW  OW  HW  HW  
OW  HW  HW  OW  HW  HW  OW  HW  HW  OW  HW  HW  OW  HW  HW  OW  HW  HW  OW  HW  
HW  OW  HW  HW  OW  HW  HW  OW  HW  HW  OW  HW  HW  OW  HW  HW  OW  HW  HW  OW  
HW  HW  OW  HW  HW  OW  HW  HW  OW  HW  HW  OW  HW  HW  OW  HW  HW  OW  HW  HW  
OW  HW  HW  OW  HW  HW  OW  HW  HW  OW  HW  HW  OW  HW  HW  OW  HW  HW  OW  HW  
HW  OW  HW  HW  OW  HW  HW  OW  HW  HW  OW  HW  HW  OW  HW  HW  OW  HW  HW  OW  
HW  HW  OW  HW  HW  OW  HW  HW  OW  HW  HW  OW  HW  HW  OW  HW  HW  OW  HW  HW  
OW  HW  HW  OW  HW  HW  OW  HW  HW  OW  HW  HW  OW  HW  HW  OW  HW  HW  OW  HW  
HW  OW  HW  HW  OW  HW  HW  OW  HW  HW  OW  HW  HW  OW  HW  HW  OW  HW  HW  OW  
HW  HW  OW  HW  HW  OW  HW  HW  OW  HW  HW  OW  HW  HW  OW  HW  HW  OW  HW  HW  
OW  HW  HW  OW  HW  HW  OW  HW  HW  OW  HW  HW  OW  HW  HW  OW  HW  HW  OW  HW  
HW  OW  HW  HW  OW  HW  HW  OW  HW  HW  OW  HW  HW  OW  HW  HW  OW  HW  HW  OW  
HW  HW  OW  HW  HW  OW  HW  HW  OW  HW  HW  OW  HW  HW  OW  HW  HW  OW  HW  HW  
OW  HW  HW  OW  HW  HW  OW  HW  HW  OW  HW  HW  OW  HW  HW  OW  HW  HW  OW  HW  
HW  OW  HW  HW  OW  HW  HW  OW  HW  HW  OW  HW  HW  OW  HW  HW  OW  HW  HW  OW  
HW  HW  OW  HW  HW  OW  HW  HW  OW  HW  HW  OW  HW  HW  OW  HW  HW  OW  HW  HW  
OW  HW  HW  OW  HW  HW  OW  HW  HW  OW  HW  HW  OW  HW  HW  OW  HW  HW  OW  HW  
HW  OW  HW  HW  OW  HW  HW  OW  HW  HW  OW  HW  HW  OW  HW  HW  OW  HW  HW  OW  
HW  HW  OW  HW  HW  OW  HW  HW  OW  HW  HW  OW  HW  HW  OW  HW  HW  OW  HW  HW  
OW  HW  HW  OW  HW  HW  OW  HW  HW  OW  HW  HW  OW  HW  HW  OW  HW  HW  OW  HW  
HW  OW  HW  HW  OW  HW  HW  OW  HW  HW  OW  HW  HW  OW  HW  HW  OW  HW  HW  OW  
HW  HW  OW  HW  HW  OW  HW  HW  OW  HW  HW  OW  HW  HW  OW  HW  HW  OW  HW  HW  
OW  HW  HW  OW  HW  HW  OW  HW  HW  OW  HW  HW  OW  HW  HW  OW  HW  HW  OW  HW  
HW  OW  HW  HW  OW  HW  HW  OW  HW  HW  OW  HW  HW  OW  HW  HW  OW  HW  HW  OW  
HW  HW  OW  HW  HW  OW  HW  HW  OW  HW  HW  OW  HW  HW  OW  HW  HW  OW  HW  HW  
OW  HW  HW  OW  HW  HW  OW  HW  HW  OW  HW  HW  OW  HW  HW  OW  HW  HW  OW  HW  
HW  OW  HW  HW  OW  HW  HW  OW  HW  HW  OW  HW  HW  OW  HW  HW  OW  HW  HW  OW  
HW  HW  OW  HW  HW  OW  HW  HW  OW  HW  HW  OW  HW  HW  OW  HW  HW  OW  HW  HW  
OW  HW  HW  OW  HW  HW  OW  HW  HW  OW  HW  HW  OW  HW  HW  OW  HW  HW  OW  HW  
HW  OW  HW  HW  OW  HW  HW  OW  HW  HW  OW  HW  HW  OW  HW  HW  OW  HW  HW  OW  
HW  HW  OW  HW  HW  OW  HW  HW  OW  HW  HW  OW  HW  HW  OW  HW  HW  OW  HW  HW  
OW  HW  HW  OW  HW  HW  OW  HW  HW  OW  HW  HW  OW  HW  HW  OW  HW  HW  OW  HW  
HW  OW  HW  HW  OW  HW  HW  OW  HW  HW  OW  HW  HW  OW  HW  HW  OW  HW  HW  OW  
HW  HW  OW  HW  HW  OW  HW  HW  OW  HW  HW  OW  HW  HW  OW  HW  HW  OW  HW  HW  
OW  HW  HW  OW  HW  HW  OW  HW  HW  OW  HW  HW  OW  HW  HW  OW  HW  HW  OW  HW  
HW  OW  HW  HW  OW  HW  HW  OW  HW  HW  OW  HW  HW  OW  HW  HW  OW  HW  HW  OW  
HW  HW  OW  HW  HW  OW  HW  HW  OW  HW  HW  OW  HW  HW  OW  HW  HW  OW  HW  HW  
OW  HW  HW  OW  HW  HW  OW  HW  HW  OW  HW  HW  OW  HW  HW  OW  HW  HW  OW  HW  
HW  OW  HW  HW  OW  HW  HW  OW  HW  HW  OW  HW  HW  OW  HW  HW  OW  HW  HW  OW  
HW  HW  OW  HW  HW  OW  HW  HW  OW  HW  HW  OW  HW  HW  OW  HW  HW  OW  HW  HW  
OW  HW  HW  OW  HW  HW  OW  HW  HW  OW  HW  HW  OW  HW  HW  OW  HW  HW  OW  HW  
HW  OW  HW  HW  OW  HW  HW  OW  HW  HW  OW  HW  HW  OW  HW  HW  OW  HW  HW  OW  
HW  HW  OW  HW  HW  OW  HW  HW  OW  HW  HW  OW  HW  HW  OW  HW  HW  OW  HW  HW  
OW  HW  HW  OW  HW  HW  OW  HW  HW  OW  HW  HW  OW  HW  HW  OW  HW  HW  OW  HW  
HW  OW  HW  HW  OW  HW  HW  OW  HW  HW  OW  HW  HW  OW  HW  HW  OW  HW  HW  OW  
HW  HW  OW  HW  HW  OW  HW  HW  OW  HW  HW  OW  HW  HW  OW  HW  HW  OW  HW  HW  
OW  HW  HW  OW  HW  HW  OW  HW  HW  OW  HW  HW  OW  HW  HW  OW  HW  HW  OW  HW  
HW  OW  HW  HW  OW  HW  HW  OW  HW  HW  OW  HW  HW  OW  HW  HW  OW  HW  HW  OW  
HW  HW  OW  HW  HW  OW  HW  HW  OW  HW  HW  OW  HW  HW  OW  HW  HW  OW  HW  HW  
OW  HW  HW  OW  HW  HW  OW  HW  HW  OW  HW  HW  OW  HW  HW  OW  HW  HW  OW  HW  
HW  OW  HW  HW  OW  HW  HW  OW  HW  HW  OW  HW  HW  OW  HW  HW  OW  HW  HW  OW  
HW  HW  OW  HW  HW  OW  HW  HW  OW  HW  HW  OW  HW  HW  OW  HW  HW  OW  HW  HW  
OW  HW  HW  OW  HW  HW  OW  HW  HW  OW  HW  HW  OW  HW  HW  OW  HW  HW  OW  HW  
HW  OW  HW  HW  OW  HW  HW  OW  HW  HW  OW  HW  HW  OW  HW  HW  OW  HW  HW  OW  
HW  HW  OW  HW  HW  OW  HW  HW  OW  HW  HW  OW  HW  HW  OW  HW  HW  OW  HW  HW  
OW  HW  HW  OW  HW  HW  OW  HW  HW  OW  HW  HW  OW  HW  HW  OW  HW  HW  OW  HW  
HW  OW  HW  HW  OW  HW  HW  OW  HW  HW  OW  HW  HW  OW  HW  HW  OW  HW  HW  OW  
HW  HW  OW  HW  HW  OW  HW  HW  OW  HW  HW  OW  HW  HW  OW  HW  HW  OW  HW  HW  
OW  HW  HW  OW  HW  HW  OW  HW  HW  OW  HW  HW  OW  HW  HW  OW  HW  HW  OW  HW  
HW  OW  HW  HW  OW  HW  HW  OW  HW  HW  OW  HW  HW  OW  HW  HW  OW  HW  HW  OW  
HW  HW  OW  HW  HW  OW  HW  HW  OW  HW  HW  OW  HW  HW  OW  HW  HW  OW  HW  HW  
OW  HW  HW  OW  HW  HW  OW  HW  HW  OW  HW  HW  OW  HW  HW  OW  HW  HW  OW  HW  
HW  OW  HW  HW  OW  HW  HW  OW  HW  HW  OW  HW  HW  OW  HW  HW  OW  HW  HW  OW  
HW  HW  OW  HW  HW  OW  HW  HW  OW  HW  HW  OW  HW  HW  OW  HW  HW  OW  HW  HW  
OW  HW  HW  OW  HW  HW  OW  HW  HW  OW  HW  HW  OW  HW  HW  OW  HW  HW  OW  HW  
HW  OW  HW  HW  OW  HW  HW  OW  HW  HW  OW  HW  HW  OW  HW  HW  OW  HW  HW  OW  
HW  HW  OW  HW  HW  OW  HW  HW  OW  HW  HW  OW  HW  HW  OW  HW  HW  OW  HW  HW  
OW  HW  HW  OW  HW  HW  OW  HW  HW  OW  HW  HW  OW  HW  HW  OW  HW  HW  OW  HW  
HW  OW  HW  HW  OW  HW  HW  OW  HW  HW  OW  HW  HW  OW  HW  HW  OW  HW  HW  OW  
HW  HW  OW  HW  HW  OW  HW  HW  OW  HW  HW  OW  HW  HW  OW  HW  HW  OW  HW  HW  
OW  HW  HW  OW  HW  HW  OW  HW  HW  OW  HW  HW  OW  HW  HW  OW  HW  HW  OW  HW  
HW  OW  HW  HW  OW  HW  HW  OW  HW  HW  OW  HW  HW  OW  HW  HW  OW  HW  HW  OW  
HW  HW  OW  HW  HW  OW  HW  HW  OW  HW  HW  OW  HW  HW  OW  HW  HW  OW  HW  HW  
OW  HW  HW  OW  HW  HW  OW  HW  HW  OW  HW  HW  OW  HW  HW  OW  HW  HW  OW  HW  
HW  OW  HW  HW  OW  HW  HW  OW  HW  HW  OW  HW  HW  OW  HW  HW  OW  HW  HW  OW  
HW  HW  OW  HW  HW  OW  HW  HW  OW  HW  HW  OW  HW  HW  OW  HW  HW  OW  HW  HW  
OW  HW  HW  OW  HW  HW  OW  HW  HW  OW  HW  HW  OW  HW  HW  OW  HW  HW  OW  HW  
HW  OW  HW  HW  OW  HW  HW  OW  HW  HW  OW  HW  HW  OW  HW  HW  OW  HW  HW  OW  
HW  HW  OW  HW  HW  OW  HW  HW  OW  HW  HW  OW  HW  HW  OW  HW  HW  OW  HW  HW  
OW  HW  HW  OW  HW  HW  OW  HW  HW  OW  HW  HW  OW  HW  HW  OW  HW  HW  OW  HW  
HW  OW  HW  HW  OW  HW  HW  OW  HW  HW  OW  HW  HW  OW  HW  HW  OW  HW  HW  OW  
HW  HW  OW  HW  HW  OW  HW  HW  OW  HW  HW  OW  HW  HW  OW  HW  HW  OW  HW  HW  
OW  HW  HW  OW  HW  HW  OW  HW  HW  OW  HW  HW  OW  HW  HW  OW  HW  HW  OW  HW  
HW  OW  HW  HW  OW  HW  HW  OW  HW  HW  OW  HW  HW  OW  HW  HW  OW  HW  HW  OW  
HW  HW  OW  HW  HW  OW  HW  HW  OW  HW  HW  OW  HW  HW  OW  HW  HW  OW  HW  HW  
OW  HW  HW  OW  HW  HW  OW  HW  HW  OW  HW  HW  OW  HW  HW  OW  HW  HW  OW  HW  
HW  OW  HW  HW  OW  HW  HW  OW  HW  HW  OW  HW  HW  OW  HW  HW  OW  HW  HW  OW  
HW  HW  OW  HW  HW  OW  HW  HW  OW  HW  HW  OW  HW  HW  OW  HW  HW  OW  HW  HW  
OW  HW  HW  OW  HW  HW  OW  HW  HW  OW  HW  HW  OW  HW  HW  OW  HW  HW  OW  HW  
HW  OW  HW  HW  OW  HW  HW  OW  HW  HW  OW  HW  HW  OW  HW  HW  OW  HW  HW  OW  
HW  HW  OW  HW  HW  OW  HW  HW  OW  HW  HW  OW  HW  HW  OW  HW  HW  OW  HW  HW  
OW  HW  HW  OW  HW  HW  OW  HW  HW  OW  HW  HW  OW  HW  HW  OW  HW  HW  OW  HW  
HW  OW  HW  HW  OW  HW  HW  OW  HW  HW  OW  HW  HW  OW  HW  HW  OW  HW  HW  OW  
HW  HW  OW  HW  HW  OW  HW  HW  OW  HW  HW  OW  HW  HW  OW  HW  HW  OW  HW  HW  
OW  HW  HW  OW  HW  HW  OW  HW  HW  OW  HW  HW  OW  HW  HW  OW  HW  HW  OW  HW  
HW  OW  HW  HW  OW  HW  HW  OW  HW  HW  OW  HW  HW  OW  HW  HW  OW  HW  HW  OW  
HW  HW  OW  HW  HW  OW  HW  HW  OW  HW  HW  OW  HW  HW  OW  HW  HW  OW  HW  HW  
OW  HW  HW  OW  HW  HW  OW  HW  HW  OW  HW  HW  OW  HW  HW  OW  HW  HW  OW  HW  
HW  OW  HW  HW  OW  HW  HW  OW  HW  HW  OW  HW  HW  OW  HW  HW  OW  HW  HW  OW  
HW  HW  OW  HW  HW  OW  HW  HW  OW  HW  HW  OW  HW  HW  OW  HW  HW  OW  HW  HW  
OW  HW  HW  OW  HW  HW  OW  HW  HW  OW  HW  HW  OW  HW  HW  OW  HW  HW  OW  HW  
HW  OW  HW  HW  OW  HW  HW  OW  HW  HW  OW  HW  HW  OW  HW  HW  OW  HW  HW  OW  
HW  HW  OW  HW  HW  OW  HW  HW  OW  HW  HW  OW  HW  HW  OW  HW  HW  OW  HW  HW  
OW  HW  HW  OW  HW  HW  OW  HW  HW  OW  HW  HW  OW  HW  HW  OW  HW  HW  OW  HW  
HW  OW  HW  HW  OW  HW  HW  OW  HW  HW  OW  HW  HW  OW  HW  HW  OW  HW  HW  OW  
HW  HW  OW  HW  HW  OW  HW  HW  OW  HW  HW  OW  HW  HW  OW  HW  HW  OW  HW  HW  
OW  HW  HW  OW  HW  HW  OW  HW  HW  OW  HW  HW  OW  HW  HW  OW  HW  HW  OW  HW  
HW  OW  HW  HW  OW  HW  HW  OW  HW  HW  OW  HW  HW  OW  HW  HW  OW  HW  HW  OW  
HW  HW  OW  HW  HW  OW  HW  HW  OW  HW  HW  OW  HW  HW  OW  HW  HW  OW  HW  HW  
OW  HW  HW  OW  HW  HW  OW  HW  HW  OW  HW  HW  OW  HW  HW  OW  HW  HW  OW  HW  
HW  OW  HW  HW  OW  HW  HW  OW  HW  HW  OW  HW  HW  OW  HW  HW  OW  HW  HW  OW  
HW  HW  OW  HW  HW  OW  HW  HW  OW  HW  HW  OW  HW  HW  OW  HW  HW  OW  HW  HW  
OW  HW  HW  OW  HW  HW  OW  HW  HW  OW  HW  HW  OW  HW  HW  OW  HW  HW  OW  HW  
HW  OW  HW  HW  OW  HW  HW  OW  HW  HW  OW  HW  HW  OW  HW  HW  OW  HW  HW  OW  
HW  HW  OW  HW  HW  OW  HW  HW  OW  HW  HW  OW  HW  HW  OW  HW  HW  OW  HW  HW  
OW  HW  HW  OW  HW  HW  OW  HW  HW  OW  HW  HW  OW  HW  HW  OW  HW  HW  OW  HW  
HW  OW  HW  HW  OW  HW  HW  OW  HW  HW  OW  HW  HW  OW  HW  HW  OW  HW  HW  OW  
HW  HW  OW  HW  HW  OW  HW  HW  OW  HW  HW  OW  HW  HW  OW  HW  HW  OW  HW  HW  
OW  HW  HW  OW  HW  HW  OW  HW  HW  OW  HW  HW  OW  HW  HW  OW  HW  HW  OW  HW  
HW  OW  HW  HW  OW  HW  HW  OW  HW  HW  OW  HW  HW  OW  HW  HW  OW  HW  HW  OW  
HW  HW  OW  HW  HW  OW  HW  HW  OW  HW  HW  OW  HW  HW  OW  HW  HW  OW  HW  HW  
OW  HW  HW  OW  HW  HW  OW  HW  HW  OW  HW  HW  OW  HW  HW  OW  HW  HW  OW  HW  
HW  OW  HW  HW  OW  HW  HW  OW  HW  HW  OW  HW  HW  OW  HW  HW  OW  HW  HW  OW  
HW  HW  OW  HW  HW  OW  HW  HW  OW  HW  HW  OW  HW  HW  OW  HW  HW  OW  HW  HW  
OW  HW  HW  OW  HW  HW  OW  HW  HW  OW  HW  HW  OW  HW  HW  OW  HW  HW  OW  HW  
HW  OW  HW  HW  OW  HW  HW  OW  HW  HW  OW  HW  HW  OW  HW  HW  OW  HW  HW  OW  
HW  HW  OW  HW  HW  OW  HW  HW  OW  HW  HW  OW  HW  HW  OW  HW  HW  OW  HW  HW  
OW  HW  HW  OW  HW  HW  OW  HW  HW  OW  HW  HW  OW  HW  HW  OW  HW  HW  OW  HW  
HW  OW  HW  HW  OW  HW  HW  OW  HW  HW  OW  HW  HW  OW  HW  HW  OW  HW  HW  OW  
HW  HW  OW  HW  HW  OW  HW  HW  OW  HW  HW  OW  HW  HW  OW  HW  HW  OW  HW  HW  
OW  HW  HW  OW  HW  HW  OW  HW  HW  OW  HW  HW  OW  HW  HW  OW  HW  HW  OW  HW  
HW  OW  HW  HW  OW  HW  HW  OW  HW  HW  OW  HW  HW  OW  HW  HW  OW  HW  HW  OW  
HW  HW  OW  HW  HW  OW  HW  HW  OW  HW  HW  OW  HW  HW  OW  HW  HW  OW  HW  HW  
OW  HW  HW  OW  HW  HW  OW  HW  HW  OW  HW  HW  OW  HW  HW  OW  HW  HW  OW  HW  
HW  OW  HW  HW  OW  HW  HW  OW  HW  HW  OW  HW  HW  OW  HW  HW  OW  HW  HW  OW  
HW  HW  OW  HW  HW  OW  HW  HW  OW  HW  HW  OW  HW  HW  OW  HW  HW  OW  HW  HW  
OW  HW  HW  OW  HW  HW  OW  HW  HW  OW  HW  HW  OW  HW  HW  OW  HW  HW  OW  HW  
HW  OW  HW  HW  OW  HW  HW  OW  HW  HW  OW  HW  HW  OW  HW  HW  OW  HW  HW  OW  
HW  HW  OW  HW  HW  OW  HW  HW  OW  HW  HW  OW  HW  HW  OW  HW  HW  OW  HW  HW  
OW  HW  HW  OW  HW  HW  OW  HW  HW  OW  HW  HW  OW  HW  HW  OW  HW  HW  OW  HW  
HW  OW  HW  HW  OW  HW  HW  OW  HW  HW  OW  HW  HW  OW  HW  HW  OW  HW  HW  OW  
HW  HW  OW  HW  HW  OW  HW  HW  OW  HW  HW  OW  HW  HW  OW  HW  HW  OW  HW  HW  
OW  HW  HW  OW  HW  HW  OW  HW  HW  OW  HW  HW  OW  HW  HW  OW  HW  HW  OW  HW  
HW  OW  HW  HW  OW  HW  HW  OW  HW  HW  OW  HW  HW  OW  HW  HW  OW  HW  HW  OW  
HW  HW  OW  HW  HW  OW  HW  HW  OW  HW  HW  OW  HW  HW  OW  HW  HW  OW  HW  HW  
OW  HW  HW  OW  HW  HW  OW  HW  HW  OW  HW  HW  OW  HW  HW  OW  HW  HW  OW  HW  
HW  OW  HW  HW  OW  HW  HW  OW  HW  HW  OW  HW  HW  OW  HW  HW  OW  HW  HW  OW  
HW  HW  OW  HW  HW  OW  HW  HW  OW  HW  HW  OW  HW  HW  OW  HW  HW  OW  HW  HW  
OW  HW  HW  OW  HW  HW  OW  HW  HW  OW  HW  HW  OW  HW  HW  OW  HW  HW  OW  HW  
HW  OW  HW  HW  OW  HW  HW  OW  HW  HW  OW  HW  HW  OW  HW  HW  OW  HW  HW  OW  
HW  HW  OW  HW  HW  OW  HW  HW  OW  HW  HW  OW  HW  HW  OW  HW  HW  OW  HW  HW  
OW  HW  HW  OW  HW  HW  OW  HW  HW  OW  HW  HW  OW  HW  HW  OW  HW  HW  OW  HW  
HW  OW  HW  HW  OW  HW  HW  OW  HW  HW  OW  HW  HW  OW  HW  HW  OW  HW  HW  OW  
HW  HW  OW  HW  HW  OW  HW  HW  OW  HW  HW  OW  HW  HW  OW  HW  HW  OW  HW  HW  
OW  HW  HW  OW  HW  HW  OW  HW  HW  OW  HW  HW  OW  HW  HW  OW  HW  HW  OW  HW  
HW  OW  HW  HW  OW  HW  HW  OW  HW  HW  OW  HW  HW  OW  HW  HW  OW  HW  HW  OW  
HW  HW  OW  HW  HW  OW  HW  HW  OW  HW  HW  OW  HW  HW  OW  HW  HW  OW  HW  HW  
OW  HW  HW  OW  HW  HW  OW  HW  HW  OW  HW  HW  OW  HW  HW  OW  HW  HW  OW  HW  
HW  OW  HW  HW  OW  HW  HW  OW  HW  HW  OW  HW  HW  OW  HW  HW  OW  HW  HW  OW  
HW  HW  OW  HW  HW  OW  HW  HW  OW  HW  HW  OW  HW  HW  OW  HW  HW  OW  HW  HW  
OW  HW  HW  OW  HW  HW  OW  HW  HW  OW  HW  HW  OW  HW  HW  OW  HW  HW  OW  HW  
HW  OW  HW  HW  OW  HW  HW  OW  HW  HW  OW  HW  HW  OW  HW  HW  OW  HW  HW  OW  
HW  HW  OW  HW  HW  OW  HW  HW  OW  HW  HW  OW  HW  HW  OW  HW  HW  OW  HW  HW  
OW  HW  HW  OW  HW  HW  OW  HW  HW  OW  HW  HW  OW  HW  HW  OW  HW  HW  OW  HW  
HW  OW  HW  HW  OW  HW  HW  OW  HW  HW  OW  HW  HW  OW  HW  HW  OW  HW  HW  OW  
HW  HW  OW  HW  HW  OW  HW  HW  OW  HW  HW  OW  HW  HW  OW  HW  HW  OW  HW  HW  
OW  HW  HW  OW  HW  HW  OW  HW  HW  OW  HW  HW  OW  HW  HW  OW  HW  HW  OW  HW  
HW  OW  HW  HW  OW  HW  HW  OW  HW  HW  OW  HW  HW  OW  HW  HW  OW  HW  HW  OW  
HW  HW  OW  HW  HW  OW  HW  HW  OW  HW  HW  OW  HW  HW  OW  HW  HW  OW  HW  HW  
OW  HW  HW  OW  HW  HW  OW  HW  HW  OW  HW  HW  OW  HW  HW  OW  HW  HW  OW  HW  
HW  OW  HW  HW  OW  HW  HW  OW  HW  HW  OW  HW  HW  OW  HW  HW  OW  HW  HW  OW  
HW  HW  OW  HW  HW  OW  HW  HW  OW  HW  HW  OW  HW  HW  OW  HW  HW  OW  HW  HW  
OW  HW  HW  OW  HW  HW  OW  HW  HW  OW  HW  HW  OW  HW  HW  OW  HW  HW  OW  HW  
HW  OW  HW  HW  OW  HW  HW  OW  HW  HW  OW  HW  HW  OW  HW  HW  OW  HW  HW  OW  
HW  HW  OW  HW  HW  OW  HW  HW  OW  HW  HW  OW  HW  HW  OW  HW  HW  OW  HW  HW  
OW  HW  HW  OW  HW  HW  OW  HW  HW  OW  HW  HW  OW  HW  HW  OW  HW  HW  OW  HW  
HW  OW  HW  HW  OW  HW  HW  OW  HW  HW  OW  HW  HW  OW  HW  HW  OW  HW  HW  OW  
HW  HW  OW  HW  HW  OW  HW  HW  OW  HW  HW  OW  HW  HW  OW  HW  HW  OW  HW  HW  
OW  HW  HW  OW  HW  HW  OW  HW  HW  OW  HW  HW  OW  HW  HW  OW  HW  HW  OW  HW  
HW  OW  HW  HW  OW  HW  HW  OW  HW  HW  OW  HW  HW  OW  HW  HW  OW  HW  HW  OW  
HW  HW  OW  HW  HW  OW  HW  HW  OW  HW  HW  OW  HW  HW  OW  HW  HW  OW  HW  HW  
OW  HW  HW  OW  HW  HW  OW  HW  HW  OW  HW  HW  OW  HW  HW  OW  HW  HW  OW  HW  
HW  OW  HW  HW  OW  HW  HW  OW  HW  HW  OW  HW  HW  OW  HW  HW  OW  HW  HW  OW  
HW  HW  OW  HW  HW  OW  HW  HW  OW  HW  HW  OW  HW  HW  OW  HW  HW  OW  HW  HW  
OW  HW  HW  OW  HW  HW  OW  HW  HW  OW  HW  HW  OW  HW  HW  OW  HW  HW  OW  HW  
HW  OW  HW  HW  OW  HW  HW  OW  HW  HW  OW  HW  HW  OW  HW  HW  OW  HW  HW  OW  
HW  HW  OW  HW  HW  OW  HW  HW  OW  HW  HW  OW  HW  HW  OW  HW  HW  OW  HW  HW  
OW  HW  HW  OW  HW  HW  OW  HW  HW  OW  HW  HW  OW  HW  HW  OW  HW  HW  OW  HW  
HW  OW  HW  HW  OW  HW  HW  OW  HW  HW  OW  HW  HW  OW  HW  HW  OW  HW  HW  OW  
HW  HW  OW  HW  HW  OW  HW  HW  OW  HW  HW  OW  HW  HW  OW  HW  HW  OW  HW  HW  
OW  HW  HW  OW  HW  HW  OW  HW  HW  OW  HW  HW  OW  HW  HW  OW  HW  HW  OW  HW  
HW  OW  HW  HW  OW  HW  HW  OW  HW  HW  OW  HW  HW  OW  HW  HW  OW  HW  HW  OW  
HW  HW  OW  HW  HW  OW  HW  HW  OW  HW  HW  OW  HW  HW  OW  HW  HW  OW  HW  HW  
OW  HW  HW  OW  HW  HW  OW  HW  HW  OW  HW  HW  OW  HW  HW  OW  HW  HW  OW  HW  
HW  OW  HW  HW  OW  HW  HW  OW  HW  HW  OW  HW  HW  OW  HW  HW  OW  HW  HW  OW  
HW  HW  OW  HW  HW  OW  HW  HW  OW  HW  HW  OW  HW  HW  OW  HW  HW  OW  HW  HW  
OW  HW  HW  OW  HW  HW  OW  HW  HW  OW  HW  HW  OW  HW  HW  OW  HW  HW  OW  HW  
HW  OW  HW  HW  OW  HW  HW  OW  HW  HW  OW  HW  HW  OW  HW  HW  OW  HW  HW  OW  
HW  HW  OW  HW  HW  OW  HW  HW  OW  HW  HW  OW  HW  HW  OW  HW  HW  OW  HW  HW  
OW  HW  HW  OW  HW  HW  OW  HW  HW  OW  HW  HW  OW  HW  HW  OW  HW  HW  OW  HW  
HW  OW  HW  HW  OW  HW  HW  OW  HW  HW  OW  HW  HW  OW  HW  HW  OW  HW  HW  OW  
HW  HW  OW  HW  HW  OW  HW  HW  OW  HW  HW  OW  HW  HW  OW  HW  HW  OW  HW  HW  
OW  HW  HW  OW  HW  HW  OW  HW  HW  OW  HW  HW  OW  HW  HW  OW  HW  HW  OW  HW  
HW  OW  HW  HW  OW  HW  HW  OW  HW  HW  OW  HW  HW  OW  HW  HW  OW  HW  HW  OW  
HW  HW  OW  HW  HW  OW  HW  HW  OW  HW  HW  OW  HW  HW  OW  HW  HW  OW  HW  HW  
OW  HW  HW  OW  HW  HW  OW  HW  HW  OW  HW  HW  OW  HW  HW  OW  HW  HW  OW  HW  
HW  OW  HW  HW  OW  HW  HW  OW  HW  HW  OW  HW  HW  OW  HW  HW  OW  HW  HW  OW  
HW  HW  OW  HW  HW  OW  HW  HW  OW  HW  HW  OW  HW  HW  OW  HW  HW  OW  HW  HW  
OW  HW  HW  OW  HW  HW  OW  HW  HW  OW  HW  HW  OW  HW  HW  OW  HW  HW  OW  HW  
HW  OW  HW  HW  OW  HW  HW  OW  HW  HW  OW  HW  HW  OW  HW  HW  OW  HW  HW  OW  
HW  HW  OW  HW  HW  OW  HW  HW  OW  HW  HW  OW  HW  HW  OW  HW  HW  OW  HW  HW  
OW  HW  HW  OW  HW  HW  OW  HW  HW  OW  HW  HW  OW  HW  HW  OW  HW  HW  OW  HW  
HW  OW  HW  HW  OW  HW  HW  OW  HW  HW  OW  HW  HW  OW  HW  HW  OW  HW  HW  OW  
HW  HW  OW  HW  HW  OW  HW  HW  OW  HW  HW  OW  HW  HW  OW  HW  HW  OW  HW  HW  
OW  HW  HW  OW  HW  HW  OW  HW  HW  OW  HW  HW  OW  HW  HW  OW  HW  HW  OW  HW  
HW  OW  HW  HW  OW  HW  HW  OW  HW  HW  OW  HW  HW  OW  HW  HW  OW  HW  HW  OW  
HW  HW  OW  HW  HW  OW  HW  HW  OW  HW  HW  OW  HW  HW  OW  HW  HW  OW  HW  HW  
OW  HW  HW  OW  HW  HW  OW  HW  HW  OW  HW  HW  OW  HW  HW  OW  HW  HW  OW  HW  
HW  OW  HW  HW  OW  HW  HW  OW  HW  HW  OW  HW  HW  OW  HW  HW  OW  HW  HW  OW  
HW  HW  OW  HW  HW  OW  HW  HW  OW  HW  HW  OW  HW  HW  OW  HW  HW  OW  HW  HW  
OW  HW  HW  OW  HW  HW  OW  HW  HW  OW  HW  HW  OW  HW  HW  OW  HW  HW  OW  HW  
HW  OW  HW  HW  OW  HW  HW  OW  HW  HW  OW  HW  HW  OW  HW  HW  OW  HW  HW  OW  
HW  HW  OW  HW  HW  OW  HW  HW  OW  HW  HW  OW  HW  HW  OW  HW  HW  OW  HW  HW  
OW  HW  HW  OW  HW  HW  OW  HW  HW  OW  HW  HW  OW  HW  HW  OW  HW  HW  OW  HW  
HW  OW  HW  HW  OW  HW  HW  OW  HW  HW  OW  HW  HW  OW  HW  HW  OW  HW  HW  OW  
HW  HW  OW  HW  HW  OW  HW  HW  OW  HW  HW  OW  HW  HW  OW  HW  HW  OW  HW  HW  
OW  HW  HW  OW  HW  HW  OW  HW  HW  OW  HW  HW  OW  HW  HW  OW  HW  HW  OW  HW  
HW  OW  HW  HW  OW  HW  HW  OW  HW  HW  OW  HW  HW  OW  HW  HW  OW  HW  HW  OW  
HW  HW  OW  HW  HW  OW  HW  HW  OW  HW  HW  OW  HW  HW  OW  HW  HW  OW  HW  HW  
OW  HW  HW  OW  HW  HW  OW  HW  HW  OW  HW  HW  OW  HW  HW  OW  HW  HW  OW  HW  
HW  OW  HW  HW  OW  HW  HW  OW  HW  HW  OW  HW  HW  OW  HW  HW  OW  HW  HW  OW  
HW  HW  OW  HW  HW  OW  HW  HW  OW  HW  HW  OW  HW  HW  OW  HW  HW  OW  HW  HW  
OW  HW  HW  OW  HW  HW  OW  HW  HW  OW  HW  HW  OW  HW  HW  OW  HW  HW  OW  HW  
HW  OW  HW  HW  OW  HW  HW  OW  HW  HW  OW  HW  HW  OW  HW  HW  OW  HW  HW  OW  
HW  HW  OW  HW  HW  OW  HW  HW  OW  HW  HW  OW  HW  HW  OW  HW  HW  OW  HW  HW  
OW  HW  HW  OW  HW  HW  OW  HW  HW  OW  HW  HW  OW  HW  HW  OW  HW  HW  OW  HW  
HW  OW  HW  HW  OW  HW  HW  OW  HW  HW  OW  HW  HW  OW  HW  HW  OW  HW  HW  OW  
HW  HW  OW  HW  HW  OW  HW  HW  OW  HW  HW  OW  HW  HW  OW  HW  HW  OW  HW  HW  
OW  HW  HW  OW  HW  HW  OW  HW  HW  OW  HW  HW  OW  HW  HW  OW  HW  HW  OW  HW  
HW  OW  HW  HW  OW  HW  HW  OW  HW  HW  OW  HW  HW  OW  HW  HW  OW  HW  HW  OW  
HW  HW  OW  HW  HW  OW  HW  HW  OW  HW  HW  OW  HW  HW  OW  HW  HW  OW  HW  HW  
OW  HW  HW  OW  HW  HW  OW  HW  HW  OW  HW  HW  OW  HW  HW  OW  HW  HW  OW  HW  
HW  OW  HW  HW  OW  HW  HW  OW  HW  HW  OW  HW  HW  OW  HW  HW  OW  HW  HW  OW  
HW  HW  OW  HW  HW  OW  HW  HW  OW  HW  HW  OW  HW  HW  OW  HW  HW  OW  HW  HW  
OW  HW  HW  OW  HW  HW  OW  HW  HW  OW  HW  HW  OW  HW  HW  OW  HW  HW  OW  HW  
HW  OW  HW  HW  OW  HW  HW  OW  HW  HW  OW  HW  HW  OW  HW  HW  OW  HW  HW  OW  
HW  HW  OW  HW  HW  OW  HW  HW  OW  HW  HW  OW  HW  HW  OW  HW  HW  OW  HW  HW  
OW  HW  HW  OW  HW  HW  OW  HW  HW  OW  HW  HW  OW  HW  HW  OW  HW  HW  OW  HW  
HW  OW  HW  HW  OW  HW  HW  OW  HW  HW  OW  HW  HW  OW  HW  HW  OW  HW  HW  OW  
HW  HW  OW  HW  HW  OW  HW  HW  OW  HW  HW  OW  HW  HW  OW  HW  HW  OW  HW  HW  
OW  HW  HW  OW  HW  HW  OW  HW  HW  OW  HW  HW  OW  HW  HW  OW  HW  HW  OW  HW  
HW  OW  HW  HW  OW  HW  HW  OW  HW  HW  OW  HW  HW  OW  HW  HW  OW  HW  HW  OW  
HW  HW  OW  HW  HW  OW  HW  HW  OW  HW  HW  OW  HW  HW  OW  HW  HW  OW  HW  HW  
OW  HW  HW  OW  HW  HW  OW  HW  HW  OW  HW  HW  OW  HW  HW  OW  HW  HW  OW  HW  
HW  OW  HW  HW  OW  HW  HW  OW  HW  HW  OW  HW  HW  OW  HW  HW  OW  HW  HW  OW  
HW  HW  OW  HW  HW  OW  HW  HW  OW  HW  HW  OW  HW  HW  OW  HW  HW  OW  HW  HW  
OW  HW  HW  OW  HW  HW  OW  HW  HW  OW  HW  HW  OW  HW  HW  OW  HW  HW  OW  HW  
HW  OW  HW  HW  OW  HW  HW  OW  HW  HW  OW  HW  HW  OW  HW  HW  OW  HW  HW  OW  
HW  HW  OW  HW  HW  OW  HW  HW  OW  HW  HW  OW  HW  HW  OW  HW  HW  OW  HW  HW  
OW  HW  HW  OW  HW  HW  OW  HW  HW  OW  HW  HW  OW  HW  HW  OW  HW  HW  OW  HW  
HW  OW  HW  HW  OW  HW  HW  OW  HW  HW  OW  HW  HW  OW  HW  HW  OW  HW  HW  OW  
HW  HW  OW  HW  HW  OW  HW  HW  OW  HW  HW  OW  HW  HW  OW  HW  HW  OW  HW  HW  
OW  HW  HW  OW  HW  HW  OW  HW  HW  OW  HW  HW  OW  HW  HW  OW  HW  HW  OW  HW  
HW  OW  HW  HW  OW  HW  HW  OW  HW  HW  OW  HW  HW  OW  HW  HW  OW  HW  HW  OW  
HW  HW  OW  HW  HW  OW  HW  HW  OW  HW  HW  OW  HW  HW  OW  HW  HW  OW  HW  HW  
OW  HW  HW  OW  HW  HW  OW  HW  HW  OW  HW  HW  OW  HW  HW  OW  HW  HW  OW  HW  
HW  OW  HW  HW  OW  HW  HW  OW  HW  HW  OW  HW  HW  OW  HW  HW  OW  HW  HW  OW  
HW  HW  OW  HW  HW  OW  HW  HW  OW  HW  HW  OW  HW  HW  OW  HW  HW  OW  HW  HW  
OW  HW  HW  OW  HW  HW  OW  HW  HW  OW  HW  HW  OW  HW  HW  OW  HW  HW  OW  HW  
HW  OW  HW  HW  OW  HW  HW  OW  HW  HW  OW  HW  HW  OW  HW  HW  OW  HW  HW  OW  
HW  HW  OW  HW  HW  OW  HW  HW  OW  HW  HW  OW  HW  HW  OW  HW  HW  OW  HW  HW  
OW  HW  HW  OW  HW  HW  OW  HW  HW  OW  HW  HW  OW  HW  HW  OW  HW  HW  OW  HW  
HW  OW  HW  HW  OW  HW  HW  OW  HW  HW  OW  HW  HW  OW  HW  HW  OW  HW  HW  OW  
HW  HW  OW  HW  HW  OW  HW  HW  OW  HW  HW  OW  HW  HW  OW  HW  HW  OW  HW  HW  
OW  HW  HW  OW  HW  HW  OW  HW  HW  OW  HW  HW  OW  HW  HW  OW  HW  HW  OW  HW  
HW  OW  HW  HW  OW  HW  HW  OW  HW  HW  OW  HW  HW  OW  HW  HW  OW  HW  HW  OW  
HW  HW  OW  HW  HW  OW  HW  HW  OW  HW  HW  OW  HW  HW  OW  HW  HW  OW  HW  HW  
OW  HW  HW  OW  HW  HW  OW  HW  HW  OW  HW  HW  OW  HW  HW  OW  HW  HW  OW  HW  
HW  OW  HW  HW  OW  HW  HW  OW  HW  HW  OW  HW  HW  OW  HW  HW  OW  HW  HW  OW  
HW  HW  OW  HW  HW  OW  HW  HW  OW  HW  HW  OW  HW  HW  OW  HW  HW  OW  HW  HW  
OW  HW  HW  OW  HW  HW  OW  HW  HW  OW  HW  HW  OW  HW  HW  OW  HW  HW  OW  HW  
HW  OW  HW  HW  OW  HW  HW  OW  HW  HW  OW  HW  HW  OW  HW  HW  OW  HW  HW  OW  
HW  HW  OW  HW  HW  OW  HW  HW  OW  HW  HW  OW  HW  HW  OW  HW  HW  OW  HW  HW  
OW  HW  HW  OW  HW  HW  OW  HW  HW  OW  HW  HW  OW  HW  HW  OW  HW  HW  OW  HW  
HW  OW  HW  HW  OW  HW  HW  OW  HW  HW  OW  HW  HW  OW  HW  HW  OW  HW  HW  OW  
HW  HW  OW  HW  HW  OW  HW  HW  OW  HW  HW  OW  HW  HW  OW  HW  HW  OW  HW  HW  
OW  HW  HW  OW  HW  HW  OW  HW  HW  OW  HW  HW  OW  HW  HW  OW  HW  HW  OW  HW  
HW  OW  HW  HW  OW  HW  HW  OW  HW  HW  OW  HW  HW  OW  HW  HW  OW  HW  HW  OW  
HW  HW  OW  HW  HW  OW  HW  HW  OW  HW  HW  OW  HW  HW  OW  HW  HW  OW  HW  HW  
OW  HW  HW  OW  HW  HW  OW  HW  HW  OW  HW  HW  OW  HW  HW  OW  HW  HW  OW  HW  
HW  OW  HW  HW  OW  HW  HW  OW  HW  HW  OW  HW  HW  OW  HW  HW  OW  HW  HW  OW  
HW  HW  OW  HW  HW  OW  HW  HW  OW  HW  HW  OW  HW  HW  OW  HW  HW  OW  HW  HW  
OW  HW  HW  OW  HW  HW  OW  HW  HW  OW  HW  HW  OW  HW  HW  OW  HW  HW  OW  HW  
HW  OW  HW  HW  OW  HW  HW  OW  HW  HW  OW  HW  HW  OW  HW  HW  OW  HW  HW  OW  
HW  HW  OW  HW  HW  OW  HW  HW  OW  HW  HW  OW  HW  HW  OW  HW  HW  OW  HW  HW  
OW  HW  HW  OW  HW  HW  OW  HW  HW  OW  HW  HW  OW  HW  HW  OW  HW  HW  OW  HW  
HW  OW  HW  HW  OW  HW  HW  OW  HW  HW  OW  HW  HW  OW  HW  HW  OW  HW  HW  OW  
HW  HW  OW  HW  HW  OW  HW  HW  OW  HW  HW  OW  HW  HW  OW  HW  HW  OW  HW  HW  
OW  HW  HW  OW  HW  HW  OW  HW  HW  OW  HW  HW  OW  HW  HW  OW  HW  HW  OW  HW  
HW  OW  HW  HW  OW  HW  HW  OW  HW  HW  OW  HW  HW  OW  HW  HW  OW  HW  HW  OW  
HW  HW  OW  HW  HW  OW  HW  HW  OW  HW  HW  OW  HW  HW  OW  HW  HW  OW  HW  HW  
OW  HW  HW  OW  HW  HW  OW  HW  HW  OW  HW  HW  OW  HW  HW  OW  HW  HW  OW  HW  
HW  OW  HW  HW  OW  HW  HW  OW  HW  HW  OW  HW  HW  OW  HW  HW  OW  HW  HW  OW  
HW  HW  OW  HW  HW  OW  HW  HW  OW  HW  HW  OW  HW  HW  OW  HW  HW  OW  HW  HW  
OW  HW  HW  OW  HW  HW  OW  HW  HW  OW  HW  HW  OW  HW  HW  OW  HW  HW  OW  HW  
HW  OW  HW  HW  OW  HW  HW  OW  HW  HW  OW  HW  HW  OW  HW  HW  OW  HW  HW  OW  
HW  HW  OW  HW  HW  OW  HW  HW  OW  HW  HW  OW  HW  HW  OW  HW  HW  OW  HW  HW  
OW  HW  HW  OW  HW  HW  OW  HW  HW  OW  HW  HW  OW  HW  HW  OW  HW  HW  OW  HW  
HW  OW  HW  HW  OW  HW  HW  OW  HW  HW  OW  HW  HW  OW  HW  HW  OW  HW  HW  OW  
HW  HW  OW  HW  HW  OW  HW  HW  OW  HW  HW  OW  HW  HW  OW  HW  HW  OW  HW  HW  
OW  HW  HW  OW  HW  HW  OW  HW  HW  OW  HW  HW  OW  HW  HW  OW  HW  HW  OW  HW  
HW  OW  HW  HW  OW  HW  HW  OW  HW  HW  OW  HW  HW  OW  HW  HW  OW  HW  HW  OW  
HW  HW  OW  HW  HW  OW  HW  HW  OW  HW  HW  OW  HW  HW  OW  HW  HW  OW  HW  HW  
OW  HW  HW  OW  HW  HW  OW  HW  HW  OW  HW  HW  OW  HW  HW  OW  HW  HW  OW  HW  
HW  OW  HW  HW  OW  HW  HW  OW  HW  HW  OW  HW  HW  OW  HW  HW  OW  HW  HW  OW  
HW  HW  OW  HW  HW  OW  HW  HW  OW  HW  HW  OW  HW  HW  OW  HW  HW  OW  HW  HW  
OW  HW  HW  OW  HW  HW  OW  HW  HW  OW  HW  HW  OW  HW  HW  OW  HW  HW  OW  HW  
HW  OW  HW  HW  OW  HW  HW  OW  HW  HW  OW  HW  HW  OW  HW  HW  OW  HW  HW  OW  
HW  HW  OW  HW  HW  OW  HW  HW  OW  HW  HW  OW  HW  HW  OW  HW  HW  OW  HW  HW  
OW  HW  HW  OW  HW  HW  OW  HW  HW  OW  HW  HW  OW  HW  HW  OW  HW  HW  OW  HW  
HW  OW  HW  HW  OW  HW  HW  OW  HW  HW  OW  HW  HW  OW  HW  HW  OW  HW  HW  OW  
HW  HW  OW  HW  HW  OW  HW  HW  OW  HW  HW  OW  HW  HW  OW  HW  HW  OW  HW  HW  
OW  HW  HW  OW  HW  HW  OW  HW  HW  OW  HW  HW  OW  HW  HW  OW  HW  HW  OW  HW  
HW  OW  HW  HW  OW  HW  HW  OW  HW  HW  OW  HW  HW  OW  HW  HW  OW  HW  HW  OW  
HW  HW  OW  HW  HW  OW  HW  HW  OW  HW  HW  OW  HW  HW  OW  HW  HW  OW  HW  HW  
OW  HW  HW  OW  HW  HW  OW  HW  HW  OW  HW  HW  OW  HW  HW  OW  HW  HW  OW  HW  
HW  OW  HW  HW  OW  HW  HW  OW  HW  HW  OW  HW  HW  OW  HW  HW  OW  HW  HW  OW  
HW  HW  OW  HW  HW  OW  HW  HW  OW  HW  HW  OW  HW  HW  OW  HW  HW  OW  HW  HW  
OW  HW  HW  OW  HW  HW  OW  HW  HW  OW  HW  HW  OW  HW  HW  OW  HW  HW  OW  HW  
HW  OW  HW  HW  OW  HW  HW  OW  HW  HW  OW  HW  HW  OW  HW  HW  OW  HW  HW  OW  
HW  HW  OW  HW  HW  OW  HW  HW  OW  HW  HW  OW  HW  HW  OW  HW  HW  OW  HW  HW  
OW  HW  HW  OW  HW  HW  OW  HW  HW  OW  HW  HW  OW  HW  HW  OW  HW  HW  OW  HW  
HW  OW  HW  HW  OW  HW  HW  OW  HW  HW  OW  HW  HW  OW  HW  HW  OW  HW  HW  OW  
HW  HW  OW  HW  HW  OW  HW  HW  OW  HW  HW  OW  HW  HW  OW  HW  HW  OW  HW  HW  
OW  HW  HW  OW  HW  HW  OW  HW  HW  OW  HW  HW  OW  HW  HW  OW  HW  HW  OW  HW  
HW  OW  HW  HW  OW  HW  HW  OW  HW  HW  OW  HW  HW  OW  HW  HW  OW  HW  HW  OW  
HW  HW  OW  HW  HW  OW  HW  HW  OW  HW  HW  OW  HW  HW  OW  HW  HW  OW  HW  HW  
OW  HW  HW  OW  HW  HW  OW  HW  HW  OW  HW  HW  OW  HW  HW  OW  HW  HW  OW  HW  
HW  OW  HW  HW  OW  HW  HW  OW  HW  HW  OW  HW  HW  OW  HW  HW  OW  HW  HW  OW  
HW  HW  OW  HW  HW  OW  HW  HW  OW  HW  HW  OW  HW  HW  OW  HW  HW  OW  HW  HW  
OW  HW  HW  OW  HW  HW  OW  HW  HW  OW  HW  HW  OW  HW  HW  OW  HW  HW  OW  HW  
HW  OW  HW  HW  OW  HW  HW  OW  HW  HW  OW  HW  HW  OW  HW  HW  OW  HW  HW  OW  
HW  HW  OW  HW  HW  OW  HW  HW  OW  HW  HW  OW  HW  HW  OW  HW  HW  OW  HW  HW  
OW  HW  HW  OW  HW  HW  OW  HW  HW  OW  HW  HW  OW  HW  HW  OW  HW  HW  OW  HW  
HW  OW  HW  HW  OW  HW  HW  OW  HW  HW  OW  HW  HW  OW  HW  HW  OW  HW  HW  OW  
HW  HW  OW  HW  HW  OW  HW  HW  OW  HW  HW  OW  HW  HW  OW  HW  HW  OW  HW  HW  
OW  HW  HW  OW  HW  HW  OW  HW  HW  OW  HW  HW  OW  HW  HW  OW  HW  HW  OW  HW  
HW  OW  HW  HW  OW  HW  HW  OW  HW  HW  OW  HW  HW  OW  HW  HW  OW  HW  HW  OW  
HW  HW  OW  HW  HW  OW  HW  HW  OW  HW  HW  OW  HW  HW  OW  HW  HW  OW  HW  HW  
OW  HW  HW  OW  HW  HW  OW  HW  HW  OW  HW  HW  OW  HW  HW  OW  HW  HW  OW  HW  
HW  OW  HW  HW  OW  HW  HW  OW  HW  HW  OW  HW  HW  OW  HW  HW  OW  HW  HW  OW  
HW  HW  OW  HW  HW  OW  HW  HW  OW  HW  HW  OW  HW  HW  OW  HW  HW  OW  HW  HW  
OW  HW  HW  OW  HW  HW  OW  HW  HW  OW  HW  HW  OW  HW  HW  OW  HW  HW  OW  HW  
HW  OW  HW  HW  OW  HW  HW  OW  HW  HW  OW  HW  HW  OW  HW  HW  OW  HW  HW  OW  
HW  HW  OW  HW  HW  OW  HW  HW  OW  HW  HW  OW  HW  HW  OW  HW  HW  OW  HW  HW  
OW  HW  HW  OW  HW  HW  OW  HW  HW  OW  HW  HW  OW  HW  HW  OW  HW  HW  OW  HW  
HW  OW  HW  HW  OW  HW  HW  OW  HW  HW  OW  HW  HW  OW  HW  HW  OW  HW  HW  OW  
HW  HW  OW  HW  HW  OW  HW  HW  OW  HW  HW  OW  HW  HW  OW  HW  HW  OW  HW  HW  
OW  HW  HW  OW  HW  HW  OW  HW  HW  OW  HW  HW  OW  HW  HW  OW  HW  HW  OW  HW  
HW  OW  HW  HW  OW  HW  HW  OW  HW  HW  OW  HW  HW  OW  HW  HW  OW  HW  HW  OW  
HW  HW  OW  HW  HW  OW  HW  HW  OW  HW  HW  OW  HW  HW  OW  HW  HW  OW  HW  HW  
OW  HW  HW  OW  HW  HW  OW  HW  HW  OW  HW  HW  OW  HW  HW  OW  HW  HW  OW  HW  
HW  OW  HW  HW  OW  HW  HW  OW  HW  HW  OW  HW  HW  OW  HW  HW  OW  HW  HW  OW  
HW  HW  OW  HW  HW  OW  HW  HW  OW  HW  HW  OW  HW  HW  OW  HW  HW  OW  HW  HW  
OW  HW  HW  OW  HW  HW  OW  HW  HW  OW  HW  HW  OW  HW  HW  OW  HW  HW  OW  HW  
HW  OW  HW  HW  OW  HW  HW  OW  HW  HW  OW  HW  HW  OW  HW  HW  OW  HW  HW  OW  
HW  HW  OW  HW  HW  OW  HW  HW  OW  HW  HW  OW  HW  HW  OW  HW  HW  OW  HW  HW  
OW  HW  HW  OW  HW  HW  OW  HW  HW  OW  HW  HW  OW  HW  HW  OW  HW  HW  OW  HW  
HW  OW  HW  HW  OW  HW  HW  OW  HW  HW  OW  HW  HW  OW  HW  HW  OW  HW  HW  OW  
HW  HW  OW  HW  HW  OW  HW  HW  OW  HW  HW  OW  HW  HW  OW  HW  HW  OW  HW  HW  
OW  HW  HW  OW  HW  HW  OW  HW  HW  OW  HW  HW  OW  HW  HW  OW  HW  HW  OW  HW  
HW  OW  HW  HW  OW  HW  HW  OW  HW  HW  OW  HW  HW  OW  HW  HW  OW  HW  HW  OW  
HW  HW  OW  HW  HW  OW  HW  HW  OW  HW  HW  OW  HW  HW  OW  HW  HW  OW  HW  HW  
OW  HW  HW  OW  HW  HW  OW  HW  HW  OW  HW  HW  OW  HW  HW  OW  HW  HW  OW  HW  
HW  OW  HW  HW  OW  HW  HW  OW  HW  HW  OW  HW  HW  OW  HW  HW  OW  HW  HW  OW  
HW  HW  OW  HW  HW  OW  HW  HW  OW  HW  HW  OW  HW  HW  OW  HW  HW  OW  HW  HW  
OW  HW  HW  OW  HW  HW  OW  HW  HW  OW  HW  HW  OW  HW  HW  OW  HW  HW  OW  HW  
HW  OW  HW  HW  OW  HW  HW  OW  HW  HW  OW  HW  HW  OW  HW  HW  OW  HW  HW  OW  
HW  HW  OW  HW  HW  OW  HW  HW  OW  HW  HW  OW  HW  HW  OW  HW  HW  OW  HW  HW  
OW  HW  HW  OW  HW  HW  OW  HW  HW  OW  HW  HW  OW  HW  HW  OW  HW  HW  OW  HW  
HW  OW  HW  HW  OW  HW  HW  OW  HW  HW  OW  HW  HW  OW  HW  HW  OW  HW  HW  OW  
HW  HW  OW  HW  HW  OW  HW  HW  OW  HW  HW  OW  HW  HW  OW  HW  HW  OW  HW  HW  
OW  HW  HW  OW  HW  HW  OW  HW  HW  OW  HW  HW  OW  HW  HW  OW  HW  HW  OW  HW  
HW  OW  HW  HW  OW  HW  HW  OW  HW  HW  OW  HW  HW  OW  HW  HW  OW  HW  HW  OW  
HW  HW  OW  HW  HW  OW  HW  HW  OW  HW  HW  OW  HW  HW  OW  HW  HW  OW  HW  HW  
OW  HW  HW  OW  HW  HW  OW  HW  HW  OW  HW  HW  OW  HW  HW  OW  HW  HW  OW  HW  
HW  OW  HW  HW  OW  HW  HW  OW  HW  HW  OW  HW  HW  OW  HW  HW  OW  HW  HW  OW  
HW  HW  OW  HW  HW  OW  HW  HW  OW  HW  HW  OW  HW  HW  OW  HW  HW  OW  HW  HW  
OW  HW  HW  OW  HW  HW  OW  HW  HW  OW  HW  HW  OW  HW  HW  OW  HW  HW  OW  HW  
HW  OW  HW  HW  OW  HW  HW  OW  HW  HW  OW  HW  HW  OW  HW  HW  OW  HW  HW  OW  
HW  HW  OW  HW  HW  OW  HW  HW  OW  HW  HW  OW  HW  HW  OW  HW  HW  OW  HW  HW  
OW  HW  HW  OW  HW  HW  OW  HW  HW  OW  HW  HW  OW  HW  HW  OW  HW  HW  OW  HW  
HW  OW  HW  HW  OW  HW  HW  OW  HW  HW  OW  HW  HW  OW  HW  HW  OW  HW  HW  OW  
HW  HW  OW  HW  HW  OW  HW  HW  OW  HW  HW  OW  HW  HW  OW  HW  HW  OW  HW  HW  
OW  HW  HW  OW  HW  HW  OW  HW  HW  OW  HW  HW  OW  HW  HW  OW  HW  HW  OW  HW  
HW  OW  HW  HW  OW  HW  HW  OW  HW  HW  OW  HW  HW  OW  HW  HW  OW  HW  HW  OW  
HW  HW  OW  HW  HW  OW  HW  HW  OW  HW  HW  OW  HW  HW  OW  HW  HW  OW  HW  HW  
OW  HW  HW  OW  HW  HW  OW  HW  HW  OW  HW  HW  OW  HW  HW  OW  HW  HW  OW  HW  
HW  OW  HW  HW  OW  HW  HW  OW  HW  HW  OW  HW  HW  OW  HW  HW  OW  HW  HW  OW  
HW  HW  OW  HW  HW  OW  HW  HW  OW  HW  HW  OW  HW  HW  OW  HW  HW  OW  HW  HW  
OW  HW  HW  OW  HW  HW  OW  HW  HW  OW  HW  HW  OW  HW  HW  OW  HW  HW  OW  HW  
HW  OW  HW  HW  OW  HW  HW  OW  HW  HW  OW  HW  HW  OW  HW  HW  OW  HW  HW  OW  
HW  HW  OW  HW  HW  OW  HW  HW  OW  HW  HW  OW  HW  HW  OW  HW  HW  OW  HW  HW  
OW  HW  HW  OW  HW  HW  OW  HW  HW  OW  HW  HW  OW  HW  HW  OW  HW  HW  OW  HW  
HW  OW  HW  HW  OW  HW  HW  OW  HW  HW  OW  HW  HW  OW  HW  HW  OW  HW  HW  OW  
HW  HW  OW  HW  HW  OW  HW  HW  OW  HW  HW  OW  HW  HW  OW  HW  HW  OW  HW  HW  
OW  HW  HW  OW  HW  HW  OW  HW  HW  OW  HW  HW  OW  HW  HW  OW  HW  HW  OW  HW  
HW  OW  HW  HW  OW  HW  HW  OW  HW  HW  OW  HW  HW  OW  HW  HW  OW  HW  HW  OW  
HW  HW  OW  HW  HW  OW  HW  HW  OW  HW  HW  OW  HW  HW  OW  HW  HW  OW  HW  HW  
OW  HW  HW  OW  HW  HW  OW  HW  HW  OW  HW  HW  OW  HW  HW  OW  HW  HW  OW  HW  
HW  OW  HW  HW  OW  HW  HW  OW  HW  HW  OW  HW  HW  OW  HW  HW  OW  HW  HW  OW  
HW  HW  OW  HW  HW  OW  HW  HW  OW  HW  HW  OW  HW  HW  OW  HW  HW  OW  HW  HW  
OW  HW  HW  OW  HW  HW  OW  HW  HW  OW  HW  HW  OW  HW  HW  OW  HW  HW  OW  HW  
HW  OW  HW  HW  OW  HW  HW  OW  HW  HW  OW  HW  HW  OW  HW  HW  OW  HW  HW  OW  
HW  HW  OW  HW  HW  OW  HW  HW  OW  HW  HW  OW  HW  HW  OW  HW  HW  OW  HW  HW  
OW  HW  HW  OW  HW  HW  OW  HW  HW  OW  HW  HW  OW  HW  HW  OW  HW  HW  OW  HW  
HW  OW  HW  HW  OW  HW  HW  OW  HW  HW  OW  HW  HW  OW  HW  HW  OW  HW  HW  OW  
HW  HW  OW  HW  HW  OW  HW  HW  OW  HW  HW  OW  HW  HW  OW  HW  HW  OW  HW  HW  
OW  HW  HW  OW  HW  HW  OW  HW  HW  OW  HW  HW  OW  HW  HW  OW  HW  HW  OW  HW  
HW  OW  HW  HW  OW  HW  HW  OW  HW  HW  OW  HW  HW  OW  HW  HW  OW  HW  HW  OW  
HW  HW  OW  HW  HW  OW  HW  HW  OW  HW  HW  OW  HW  HW  OW  HW  HW  OW  HW  HW  
OW  HW  HW  OW  HW  HW  OW  HW  HW  OW  HW  HW  OW  HW  HW  OW  HW  HW  OW  HW  
HW  OW  HW  HW  OW  HW  HW  OW  HW  HW  OW  HW  HW  OW  HW  HW  OW  HW  HW  OW  
HW  HW  OW  HW  HW  OW  HW  HW  OW  HW  HW  OW  HW  HW  OW  HW  HW  OW  HW  HW  
OW  HW  HW  OW  HW  HW  OW  HW  HW  OW  HW  HW  OW  HW  HW  OW  HW  HW  OW  HW  
HW  OW  HW  HW  OW  HW  HW  OW  HW  HW  OW  HW  HW  OW  HW  HW  OW  HW  HW  OW  
HW  HW  OW  HW  HW  OW  HW  HW  OW  HW  HW  OW  HW  HW  OW  HW  HW  OW  HW  HW  
OW  HW  HW  OW  HW  HW  OW  HW  HW  OW  HW  HW  OW  HW  HW  OW  HW  HW  OW  HW  
HW  OW  HW  HW  OW  HW  HW  OW  HW  HW  OW  HW  HW  OW  HW  HW  OW  HW  HW  OW  
HW  HW  OW  HW  HW  OW  HW  HW  OW  HW  HW  OW  HW  HW  OW  HW  HW  OW  HW  HW  
OW  HW  HW  OW  HW  HW  OW  HW  HW  OW  HW  HW  OW  HW  HW  OW  HW  HW  OW  HW  
HW  OW  HW  HW  OW  HW  HW  OW  HW  HW  OW  HW  HW  OW  HW  HW  OW  HW  HW  OW  
HW  HW  OW  HW  HW  OW  HW  HW  OW  HW  HW  OW  HW  HW  OW  HW  HW  OW  HW  HW  
OW  HW  HW  OW  HW  HW  OW  HW  HW  OW  HW  HW  OW  HW  HW  OW  HW  HW  OW  HW  
HW  OW  HW  HW  OW  HW  HW  OW  HW  HW  OW  HW  HW  OW  HW  HW  OW  HW  HW  OW  
HW  HW  OW  HW  HW  OW  HW  HW  OW  HW  HW  OW  HW  HW  OW  HW  HW  OW  HW  HW  
OW  HW  HW  OW  HW  HW  OW  HW  HW  OW  HW  HW  OW  HW  HW  OW  HW  HW  OW  HW  
HW  OW  HW  HW  OW  HW  HW  OW  HW  HW  OW  HW  HW  OW  HW  HW  OW  HW  HW  OW  
HW  HW  OW  HW  HW  OW  HW  HW  OW  HW  HW  OW  HW  HW  OW  HW  HW  OW  HW  HW  
OW  HW  HW  OW  HW  HW  OW  HW  HW  OW  HW  HW  OW  HW  HW  OW  HW  HW  OW  HW  
HW  OW  HW  HW  OW  HW  HW  OW  HW  HW  OW  HW  HW  OW  HW  HW  OW  HW  HW  OW  
HW  HW  OW  HW  HW  OW  HW  HW  OW  HW  HW  OW  HW  HW  OW  HW  HW  OW  HW  HW  
OW  HW  HW  OW  HW  HW  OW  HW  HW  OW  HW  HW  OW  HW  HW  OW  HW  HW  OW  HW  
HW  OW  HW  HW  OW  HW  HW  OW  HW  HW  OW  HW  HW  OW  HW  HW  OW  HW  HW  OW  
HW  HW  OW  HW  HW  OW  HW  HW  OW  HW  HW  OW  HW  HW  OW  HW  HW  OW  HW  HW  
OW  HW  HW  OW  HW  HW  OW  HW  HW  OW  HW  HW  OW  HW  HW  OW  HW  HW  OW  HW  
HW  OW  HW  HW  OW  HW  HW  OW  HW  HW  OW  HW  HW  OW  HW  HW  OW  HW  HW  OW  
HW  HW  OW  HW  HW  OW  HW  HW  OW  HW  HW  OW  HW  HW  OW  HW  HW  OW  HW  HW  
OW  HW  HW  OW  HW  HW  OW  HW  HW  OW  HW  HW  OW  HW  HW  OW  HW  HW  OW  HW  
HW  OW  HW  HW  OW  HW  HW  OW  HW  HW  OW  HW  HW  OW  HW  HW  OW  HW  HW  OW  
HW  HW  OW  HW  HW  OW  HW  HW  OW  HW  HW  OW  HW  HW  OW  HW  HW  OW  HW  HW  
OW  HW  HW  OW  HW  HW  OW  HW  HW  OW  HW  HW  OW  HW  HW  OW  HW  HW  OW  HW  
HW  OW  HW  HW  OW  HW  HW  OW  HW  HW  OW  HW  HW  OW  HW  HW  OW  HW  HW  OW  
HW  HW  OW  HW  HW  OW  HW  HW  OW  HW  HW  OW  HW  HW  OW  HW  HW  OW  HW  HW  
OW  HW  HW  OW  HW  HW  OW  HW  HW  OW  HW  HW  OW  HW  HW  OW  HW  HW  OW  HW  
HW  OW  HW  HW  OW  HW  HW  OW  HW  HW  OW  HW  HW  OW  HW  HW  OW  HW  HW  OW  
HW  HW  OW  HW  HW  OW  HW  HW  OW  HW  HW  OW  HW  HW  OW  HW  HW  OW  HW  HW  
OW  HW  HW  OW  HW  HW  OW  HW  HW  OW  HW  HW  OW  HW  HW  OW  HW  HW  OW  HW  
HW  OW  HW  HW  OW  HW  HW  OW  HW  HW  OW  HW  HW  OW  HW  HW  OW  HW  HW  OW  
HW  HW  OW  HW  HW  OW  HW  HW  OW  HW  HW  OW  HW  HW  OW  HW  HW  OW  HW  HW  
OW  HW  HW  OW  HW  HW  OW  HW  HW  OW  HW  HW  OW  HW  HW  OW  HW  HW  OW  HW  
HW  OW  HW  HW  OW  HW  HW  OW  HW  HW  OW  HW  HW  OW  HW  HW  OW  HW  HW  OW  
HW  HW  OW  HW  HW  OW  HW  HW  OW  HW  HW  OW  HW  HW  OW  HW  HW  OW  HW  HW  
OW  HW  HW  OW  HW  HW  OW  HW  HW  OW  HW  HW  OW  HW  HW  OW  HW  HW  OW  HW  
HW  OW  HW  HW  OW  HW  HW  OW  HW  HW  OW  HW  HW  OW  HW  HW  OW  HW  HW  OW  
HW  HW  OW  HW  HW  OW  HW  HW  OW  HW  HW  OW  HW  HW  OW  HW  HW  OW  HW  HW  
OW  HW  HW  OW  HW  HW  OW  HW  HW  OW  HW  HW  OW  HW  HW  OW  HW  HW  OW  HW  
HW  OW  HW  HW  OW  HW  HW  OW  HW  HW  OW  HW  HW  OW  HW  HW  OW  HW  HW  OW  
HW  HW  OW  HW  HW  OW  HW  HW  OW  HW  HW  OW  HW  HW  OW  HW  HW  OW  HW  HW  
OW  HW  HW  OW  HW  HW  OW  HW  HW  OW  HW  HW  OW  HW  HW  OW  HW  HW  OW  HW  
HW  OW  HW  HW  OW  HW  HW  OW  HW  HW  OW  HW  HW  OW  HW  HW  OW  HW  HW  OW  
HW  HW  OW  HW  HW  OW  HW  HW  OW  HW  HW  OW  HW  HW  OW  HW  HW  OW  HW  HW  
OW  HW  HW  OW  HW  HW  OW  HW  HW  OW  HW  HW  OW  HW  HW  OW  HW  HW  OW  HW  
HW  OW  HW  HW  OW  HW  HW  OW  HW  HW  OW  HW  HW  OW  HW  HW  OW  HW  HW  OW  
HW  HW  OW  HW  HW  OW  HW  HW  OW  HW  HW  OW  HW  HW  OW  HW  HW  OW  HW  HW  
OW  HW  HW  OW  HW  HW  OW  HW  HW  OW  HW  HW  OW  HW  HW  OW  HW  HW  OW  HW  
HW  OW  HW  HW  OW  HW  HW  OW  HW  HW  OW  HW  HW  OW  HW  HW  OW  HW  HW  OW  
HW  HW  OW  HW  HW  OW  HW  HW  OW  HW  HW  OW  HW  HW  OW  HW  HW  OW  HW  HW  
OW  HW  HW  OW  HW  HW  OW  HW  HW  OW  HW  HW  OW  HW  HW  OW  HW  HW  OW  HW  
HW  OW  HW  HW  OW  HW  HW  OW  HW  HW  OW  HW  HW  OW  HW  HW  OW  HW  HW  OW  
HW  HW  OW  HW  HW  OW  HW  HW  OW  HW  HW  OW  HW  HW  OW  HW  HW  OW  HW  HW  
OW  HW  HW  OW  HW  HW  OW  HW  HW  OW  HW  HW  OW  HW  HW  OW  HW  HW  OW  HW  
HW  OW  HW  HW  OW  HW  HW  OW  HW  HW  OW  HW  HW  OW  HW  HW  OW  HW  HW  OW  
HW  HW  OW  HW  HW  OW  HW  HW  OW  HW  HW  OW  HW  HW  OW  HW  HW  OW  HW  HW  
OW  HW  HW  OW  HW  HW  OW  HW  HW  OW  HW  HW  OW  HW  HW  OW  HW  HW  OW  HW  
HW  OW  HW  HW  OW  HW  HW  OW  HW  HW  OW  HW  HW  OW  HW  HW  OW  HW  HW  OW  
HW  HW  OW  HW  HW  OW  HW  HW  OW  HW  HW  OW  HW  HW  OW  HW  HW  OW  HW  HW  
OW  HW  HW  OW  HW  HW  OW  HW  HW  OW  HW  HW  OW  HW  HW  OW  HW  HW  OW  HW  
HW  OW  HW  HW  OW  HW  HW  OW  HW  HW  OW  HW  HW  OW  HW  HW  OW  HW  HW  OW  
HW  HW  OW  HW  HW  OW  HW  HW  OW  HW  HW  OW  HW  HW  OW  HW  HW  OW  HW  HW  
OW  HW  HW  OW  HW  HW  OW  HW  HW  OW  HW  HW  OW  HW  HW  OW  HW  HW  OW  HW  
HW  OW  HW  HW  OW  HW  HW  OW  HW  HW  OW  HW  HW  OW  HW  HW  OW  HW  HW  OW  
HW  HW  OW  HW  HW  OW  HW  HW  OW  HW  HW  OW  HW  HW  OW  HW  HW  OW  HW  HW  
OW  HW  HW  OW  HW  HW  OW  HW  HW  OW  HW  HW  OW  HW  HW  OW  HW  HW  OW  HW  
HW  OW  HW  HW  OW  HW  HW  OW  HW  HW  OW  HW  HW  OW  HW  HW  OW  HW  HW  OW  
HW  HW  OW  HW  HW  OW  HW  HW  OW  HW  HW  OW  HW  HW  OW  HW  HW  OW  HW  HW  
OW  HW  HW  OW  HW  HW  OW  HW  HW  OW  HW  HW  OW  HW  HW  OW  HW  HW  OW  HW  
HW  OW  HW  HW  OW  HW  HW  OW  HW  HW  OW  HW  HW  OW  HW  HW  OW  HW  HW  OW  
HW  HW  OW  HW  HW  OW  HW  HW  OW  HW  HW  OW  HW  HW  OW  HW  HW  OW  HW  HW  
OW  HW  HW  OW  HW  HW  OW  HW  HW  OW  HW  HW  OW  HW  HW  OW  HW  HW  OW  HW  
HW  OW  HW  HW  OW  HW  HW  OW  HW  HW  OW  HW  HW  OW  HW  HW  OW  HW  HW  OW  
HW  HW  OW  HW  HW  OW  HW  HW  OW  HW  HW  OW  HW  HW  OW  HW  HW  OW  HW  HW  
OW  HW  HW  OW  HW  HW  OW  HW  HW  OW  HW  HW  OW  HW  HW  OW  HW  HW  OW  HW  
HW  OW  HW  HW  OW  HW  HW  OW  HW  HW  OW  HW  HW  OW  HW  HW  OW  HW  HW  OW  
HW  HW  OW  HW  HW  OW  HW  HW  OW  HW  HW  OW  HW  HW  OW  HW  HW  OW  HW  HW  
OW  HW  HW  OW  HW  HW  OW  HW  HW  OW  HW  HW  OW  HW  HW  OW  HW  HW  OW  HW  
HW  OW  HW  HW  OW  HW  HW  OW  HW  HW  OW  HW  HW  OW  HW  HW  OW  HW  HW  OW  
HW  HW  OW  HW  HW  OW  HW  HW  OW  HW  HW  OW  HW  HW  OW  HW  HW  OW  HW  HW  
OW  HW  HW  OW  HW  HW  OW  HW  HW  OW  HW  HW  OW  HW  HW  OW  HW  HW  OW  HW  
HW  OW  HW  HW  OW  HW  HW  OW  HW  HW  OW  HW  HW  OW  HW  HW  OW  HW  HW  OW  
HW  HW  OW  HW  HW  OW  HW  HW  OW  HW  HW  OW  HW  HW  OW  HW  HW  OW  HW  HW  
OW  HW  HW  OW  HW  HW  OW  HW  HW  OW  HW  HW  OW  HW  HW  OW  HW  HW  OW  HW  
HW  OW  HW  HW  OW  HW  HW  OW  HW  HW  OW  HW  HW  OW  HW  HW  OW  HW  HW  OW  
HW  HW  OW  HW  HW  OW  HW  HW  OW  HW  HW  OW  HW  HW  OW  HW  HW  OW  HW  HW  
OW  HW  HW  OW  HW  HW  OW  HW  HW  OW  HW  HW  OW  HW  HW  OW  HW  HW  OW  HW  
HW  OW  HW  HW  OW  HW  HW  OW  HW  HW  OW  HW  HW  OW  HW  HW  OW  HW  HW  OW  
HW  HW  OW  HW  HW  OW  HW  HW  OW  HW  HW  OW  HW  HW  OW  HW  HW  OW  HW  HW  
OW  HW  HW  OW  HW  HW  OW  HW  HW  OW  HW  HW  OW  HW  HW  OW  HW  HW  OW  HW  
HW  OW  HW  HW  OW  HW  HW  OW  HW  HW  OW  HW  HW  OW  HW  HW  OW  HW  HW  OW  
HW  HW  OW  HW  HW  OW  HW  HW  OW  HW  HW  OW  HW  HW  OW  HW  HW  OW  HW  HW  
OW  HW  HW  OW  HW  HW  OW  HW  HW  OW  HW  HW  OW  HW  HW  OW  HW  HW  OW  HW  
HW  OW  HW  HW  OW  HW  HW  OW  HW  HW  OW  HW  HW  OW  HW  HW  OW  HW  HW  OW  
HW  HW  OW  HW  HW  OW  HW  HW  OW  HW  HW  OW  HW  HW  OW  HW  HW  OW  HW  HW  
OW  HW  HW  OW  HW  HW  OW  HW  HW  OW  HW  HW  OW  HW  HW  OW  HW  HW  OW  HW  
HW  OW  HW  HW  OW  HW  HW  OW  HW  HW  OW  HW  HW  OW  HW  HW  OW  HW  HW  OW  
HW  HW  OW  HW  HW  OW  HW  HW  OW  HW  HW  OW  HW  HW  OW  HW  HW  OW  HW  HW  
OW  HW  HW  OW  HW  HW  OW  HW  HW  OW  HW  HW  OW  HW  HW  OW  HW  HW  OW  HW  
HW  OW  HW  HW  OW  HW  HW  OW  HW  HW  OW  HW  HW  OW  HW  HW  OW  HW  HW  OW  
HW  HW  OW  HW  HW  OW  HW  HW  OW  HW  HW  OW  HW  HW  OW  HW  HW  OW  HW  HW  
OW  HW  HW  OW  HW  HW  OW  HW  HW  OW  HW  HW  OW  HW  HW  OW  HW  HW  OW  HW  
HW  OW  HW  HW  OW  HW  HW  OW  HW  HW  OW  HW  HW  OW  HW  HW  OW  HW  HW  OW  
HW  HW  OW  HW  HW  OW  HW  HW  OW  HW  HW  OW  HW  HW  OW  HW  HW  OW  HW  HW  
OW  HW  HW  OW  HW  HW  OW  HW  HW  OW  HW  HW  OW  HW  HW  OW  HW  HW  OW  HW  
HW  OW  HW  HW  OW  HW  HW  OW  HW  HW  OW  HW  HW  OW  HW  HW  OW  HW  HW  OW  
HW  HW  OW  HW  HW  OW  HW  HW  OW  HW  HW  OW  HW  HW  OW  HW  HW  OW  HW  HW  
OW  HW  HW  OW  HW  HW  OW  HW  HW  OW  HW  HW  OW  HW  HW  OW  HW  HW  OW  HW  
HW  OW  HW  HW  OW  HW  HW  OW  HW  HW  OW  HW  HW  OW  HW  HW  OW  HW  HW  OW  
HW  HW  OW  HW  HW  OW  HW  HW  OW  HW  HW  OW  HW  HW  OW  HW  HW  OW  HW  HW  
OW  HW  HW  OW  HW  HW  OW  HW  HW  OW  HW  HW  OW  HW  HW  OW  HW  HW  OW  HW  
HW  OW  HW  HW  OW  HW  HW  OW  HW  HW  OW  HW  HW  OW  HW  HW  OW  HW  HW  OW  
HW  HW  OW  HW  HW  OW  HW  HW  OW  HW  HW  OW  HW  HW  OW  HW  HW  OW  HW  HW  
OW  HW  HW  OW  HW  HW  OW  HW  HW  OW  HW  HW  OW  HW  HW  OW  HW  HW  OW  HW  
HW  OW  HW  HW  OW  HW  HW  OW  HW  HW  OW  HW  HW  OW  HW  HW  OW  HW  HW  OW  
HW  HW  OW  HW  HW  OW  HW  HW  OW  HW  HW  OW  HW  HW  OW  HW  HW  OW  HW  HW  
OW  HW  HW  OW  HW  HW  OW  HW  HW  OW  HW  HW  OW  HW  HW  OW  HW  HW  OW  HW  
HW  OW  HW  HW  OW  HW  HW  OW  HW  HW  OW  HW  HW  OW  HW  HW  OW  HW  HW  OW  
HW  HW  OW  HW  HW  OW  HW  HW  OW  HW  HW  OW  HW  HW  OW  HW  HW  OW  HW  HW  
OW  HW  HW  OW  HW  HW  OW  HW  HW  OW  HW  HW  OW  HW  HW  OW  HW  HW  OW  HW  
HW  OW  HW  HW  OW  HW  HW  OW  HW  HW  OW  HW  HW  OW  HW  HW  OW  HW  HW  OW  
HW  HW  OW  HW  HW  OW  HW  HW  OW  HW  HW  OW  HW  HW  OW  HW  HW  OW  HW  HW  
OW  HW  HW  OW  HW  HW  OW  HW  HW  OW  HW  HW  OW  HW  HW  OW  HW  HW  OW  HW  
HW  OW  HW  HW  OW  HW  HW  OW  HW  HW  OW  HW  HW  OW  HW  HW  OW  HW  HW  OW  
HW  HW  OW  HW  HW  OW  HW  HW  OW  HW  HW  OW  HW  HW  OW  HW  HW  OW  HW  HW  
OW  HW  HW  OW  HW  HW  OW  HW  HW  OW  HW  HW  OW  HW  HW  OW  HW  HW  OW  HW  
HW  OW  HW  HW  OW  HW  HW  OW  HW  HW  OW  HW  HW  OW  HW  HW  OW  HW  HW  OW  
HW  HW  OW  HW  HW  OW  HW  HW  OW  HW  HW  OW  HW  HW  OW  HW  HW  OW  HW  HW  
OW  HW  HW  OW  HW  HW  OW  HW  HW  OW  HW  HW  OW  HW  HW  OW  HW  HW  OW  HW  
HW  OW  HW  HW  OW  HW  HW  OW  HW  HW  OW  HW  HW  OW  HW  HW  OW  HW  HW  OW  
HW  HW  OW  HW  HW  OW  HW  HW  OW  HW  HW  OW  HW  HW  OW  HW  HW  OW  HW  HW  
OW  HW  HW  OW  HW  HW  OW  HW  HW  OW  HW  HW  OW  HW  HW  OW  HW  HW  OW  HW  
HW  OW  HW  HW  OW  HW  HW  OW  HW  HW  OW  HW  HW  OW  HW  HW  OW  HW  HW  OW  
HW  HW  OW  HW  HW  OW  HW  HW  OW  HW  HW  OW  HW  HW  OW  HW  HW  OW  HW  HW  
OW  HW  HW  OW  HW  HW  OW  HW  HW  OW  HW  HW  OW  HW  HW  OW  HW  HW  OW  HW  
HW  OW  HW  HW  OW  HW  HW  OW  HW  HW  OW  HW  HW  OW  HW  HW  OW  HW  HW  OW  
HW  HW  OW  HW  HW  OW  HW  HW  OW  HW  HW  OW  HW  HW  OW  HW  HW  OW  HW  HW  
OW  HW  HW  OW  HW  HW  OW  HW  HW  OW  HW  HW  OW  HW  HW  OW  HW  HW  OW  HW  
HW  OW  HW  HW  OW  HW  HW  OW  HW  HW  OW  HW  HW  OW  HW  HW  OW  HW  HW  OW  
HW  HW  OW  HW  HW  OW  HW  HW  OW  HW  HW  OW  HW  HW  OW  HW  HW  OW  HW  HW  
OW  HW  HW  OW  HW  HW  OW  HW  HW  OW  HW  HW  OW  HW  HW  OW  HW  HW  OW  HW  
HW  OW  HW  HW  OW  HW  HW  OW  HW  HW  OW  HW  HW  OW  HW  HW  OW  HW  HW  OW  
HW  HW  OW  HW  HW  OW  HW  HW  OW  HW  HW  OW  HW  HW  OW  HW  HW  OW  HW  HW  
OW  HW  HW  OW  HW  HW  OW  HW  HW  OW  HW  HW  OW  HW  HW  OW  HW  HW  OW  HW  
HW  OW  HW  HW  OW  HW  HW  OW  HW  HW  OW  HW  HW  OW  HW  HW  OW  HW  HW  OW  
HW  HW  OW  HW  HW  OW  HW  HW  OW  HW  HW  OW  HW  HW  OW  HW  HW  OW  HW  HW  
OW  HW  HW  OW  HW  HW  OW  HW  HW  OW  HW  HW  OW  HW  HW  OW  HW  HW  OW  HW  
HW  OW  HW  HW  OW  HW  HW  OW  HW  HW  OW  HW  HW  OW  HW  HW  OW  HW  HW  OW  
HW  HW  OW  HW  HW  OW  HW  HW  OW  HW  HW  OW  HW  HW  OW  HW  HW  OW  HW  HW  
OW  HW  HW  OW  HW  HW  OW  HW  HW  OW  HW  HW  OW  HW  HW  OW  HW  HW  OW  HW  
HW  OW  HW  HW  OW  HW  HW  OW  HW  HW  OW  HW  HW  OW  HW  HW  OW  HW  HW  OW  
HW  HW  OW  HW  HW  OW  HW  HW  OW  HW  HW  OW  HW  HW  OW  HW  HW  OW  HW  HW  
OW  HW  HW  OW  HW  HW  OW  HW  HW  OW  HW  HW  OW  HW  HW  OW  HW  HW  OW  HW  
HW  OW  HW  HW  OW  HW  HW  OW  HW  HW  OW  HW  HW  OW  HW  HW  OW  HW  HW  OW  
HW  HW  OW  HW  HW  OW  HW  HW  OW  HW  HW  OW  HW  HW  OW  HW  HW  OW  HW  HW  
OW  HW  HW  OW  HW  HW  OW  HW  HW  OW  HW  HW  OW  HW  HW  OW  HW  HW  OW  HW  
HW  OW  HW  HW  OW  HW  HW  OW  HW  HW  OW  HW  HW  OW  HW  HW  OW  HW  HW  OW  
HW  HW  OW  HW  HW  OW  HW  HW  OW  HW  HW  OW  HW  HW  OW  HW  HW  OW  HW  HW  
OW  HW  HW  OW  HW  HW  OW  HW  HW  OW  HW  HW  OW  HW  HW  OW  HW  HW  OW  HW  
HW  OW  HW  HW  OW  HW  HW  OW  HW  HW  OW  HW  HW  OW  HW  HW  OW  HW  HW  OW  
HW  HW  OW  HW  HW  OW  HW  HW  OW  HW  HW  OW  HW  HW  OW  HW  HW  OW  HW  HW  
OW  HW  HW  OW  HW  HW  OW  HW  HW  OW  HW  HW  OW  HW  HW  OW  HW  HW  OW  HW  
HW  OW  HW  HW  OW  HW  HW  OW  HW  HW  OW  HW  HW  OW  HW  HW  OW  HW  HW  OW  
HW  HW  OW  HW  HW  OW  HW  HW  OW  HW  HW  OW  HW  HW  OW  HW  HW  OW  HW  HW  
OW  HW  HW  OW  HW  HW  OW  HW  HW  OW  HW  HW  OW  HW  HW  OW  HW  HW  OW  HW  
HW  OW  HW  HW  OW  HW  HW  OW  HW  HW  OW  HW  HW  OW  HW  HW  OW  HW  HW  OW  
HW  HW  OW  HW  HW  OW  HW  HW  OW  HW  HW  OW  HW  HW  OW  HW  HW  OW  HW  HW  
OW  HW  HW  OW  HW  HW  OW  HW  HW  OW  HW  HW  OW  HW  HW  OW  HW  HW  OW  HW  
HW  OW  HW  HW  OW  HW  HW  OW  HW  HW  OW  HW  HW  OW  HW  HW  OW  HW  HW  OW  
HW  HW  OW  HW  HW  OW  HW  HW  OW  HW  HW  OW  HW  HW  OW  HW  HW  OW  HW  HW  
OW  HW  HW  OW  HW  HW  OW  HW  HW  OW  HW  HW  OW  HW  HW  OW  HW  HW  OW  HW  
HW  OW  HW  HW  OW  HW  HW  OW  HW  HW  OW  HW  HW  OW  HW  HW  OW  HW  HW  OW  
HW  HW  OW  HW  HW  OW  HW  HW  OW  HW  HW  OW  HW  HW  OW  HW  HW  OW  HW  HW  
OW  HW  HW  OW  HW  HW  OW  HW  HW  OW  HW  HW  OW  HW  HW  OW  HW  HW  OW  HW  
HW  OW  HW  HW  OW  HW  HW  OW  HW  HW  OW  HW  HW  OW  HW  HW  OW  HW  HW  OW  
HW  HW  OW  HW  HW  OW  HW  HW  OW  HW  HW  OW  HW  HW  OW  HW  HW  OW  HW  HW  
OW  HW  HW  OW  HW  HW  OW  HW  HW  OW  HW  HW  OW  HW  HW  OW  HW  HW  OW  HW  
HW  OW  HW  HW  OW  HW  HW  OW  HW  HW  OW  HW  HW  OW  HW  HW  OW  HW  HW  OW  
HW  HW  OW  HW  HW  OW  HW  HW  OW  HW  HW  OW  HW  HW  OW  HW  HW  OW  HW  HW  
OW  HW  HW  OW  HW  HW  OW  HW  HW  OW  HW  HW  OW  HW  HW  OW  HW  HW  OW  HW  
HW  OW  HW  HW  OW  HW  HW  OW  HW  HW  OW  HW  HW  OW  HW  HW  OW  HW  HW  OW  
HW  HW  OW  HW  HW  OW  HW  HW  OW  HW  HW  OW  HW  HW  OW  HW  HW  OW  HW  HW  
OW  HW  HW  OW  HW  HW  OW  HW  HW  OW  HW  HW  OW  HW  HW  OW  HW  HW  OW  HW  
HW  OW  HW  HW  OW  HW  HW  OW  HW  HW  OW  HW  HW  OW  HW  HW  OW  HW  HW  OW  
HW  HW  OW  HW  HW  OW  HW  HW  OW  HW  HW  OW  HW  HW  OW  HW  HW  OW  HW  HW  
OW  HW  HW  OW  HW  HW  OW  HW  HW  OW  HW  HW  OW  HW  HW  OW  HW  HW  OW  HW  
HW  OW  HW  HW  OW  HW  HW  OW  HW  HW  OW  HW  HW  OW  HW  HW  OW  HW  HW  OW  
HW  HW  OW  HW  HW  OW  HW  HW  OW  HW  HW  OW  HW  HW  OW  HW  HW  OW  HW  HW  
OW  HW  HW  OW  HW  HW  OW  HW  HW  OW  HW  HW  OW  HW  HW  OW  HW  HW  OW  HW  
HW  OW  HW  HW  OW  HW  HW  OW  HW  HW  OW  HW  HW  OW  HW  HW  OW  HW  HW  OW  
HW  HW  OW  HW  HW  OW  HW  HW  OW  HW  HW  OW  HW  HW  OW  HW  HW  OW  HW  HW  
OW  HW  HW  OW  HW  HW  OW  HW  HW  OW  HW  HW  OW  HW  HW  OW  HW  HW  OW  HW  
HW  OW  HW  HW  OW  HW  HW  OW  HW  HW  OW  HW  HW  OW  HW  HW  OW  HW  HW  OW  
HW  HW  OW  HW  HW  OW  HW  HW  OW  HW  HW  OW  HW  HW  OW  HW  HW  OW  HW  HW  
OW  HW  HW  OW  HW  HW  OW  HW  HW  OW  HW  HW  OW  HW  HW  OW  HW  HW  OW  HW  
HW  OW  HW  HW  OW  HW  HW  OW  HW  HW  OW  HW  HW  OW  HW  HW  OW  HW  HW  OW  
HW  HW  OW  HW  HW  OW  HW  HW  OW  HW  HW  OW  HW  HW  OW  HW  HW  OW  HW  HW  
OW  HW  HW  OW  HW  HW  OW  HW  HW  OW  HW  HW  OW  HW  HW  OW  HW  HW  OW  HW  
HW  OW  HW  HW  OW  HW  HW  OW  HW  HW  OW  HW  HW  OW  HW  HW  OW  HW  HW  OW  
HW  HW  OW  HW  HW  OW  HW  HW  OW  HW  HW  OW  HW  HW  OW  HW  HW  OW  HW  HW  
OW  HW  HW  OW  HW  HW  OW  HW  HW  OW  HW  HW  OW  HW  HW  OW  HW  HW  OW  HW  
HW  OW  HW  HW  OW  HW  HW  OW  HW  HW  OW  HW  HW  OW  HW  HW  OW  HW  HW  OW  
HW  HW  OW  HW  HW  OW  HW  HW  OW  HW  HW  OW  HW  HW  OW  HW  HW  OW  HW  HW  
OW  HW  HW  OW  HW  HW  OW  HW  HW  OW  HW  HW  OW  HW  HW  OW  HW  HW  OW  HW  
HW  OW  HW  HW  OW  HW  HW  OW  HW  HW  OW  HW  HW  OW  HW  HW  OW  HW  HW  OW  
HW  HW  OW  HW  HW  OW  HW  HW  OW  HW  HW  OW  HW  HW  OW  HW  HW  OW  HW  HW  
OW  HW  HW  OW  HW  HW  OW  HW  HW  OW  HW  HW  OW  HW  HW  OW  HW  HW  OW  HW  
HW  OW  HW  HW  OW  HW  HW  OW  HW  HW  OW  HW  HW  OW  HW  HW  OW  HW  HW  OW  
HW  HW  OW  HW  HW  OW  HW  HW  OW  HW  HW  OW  HW  HW  OW  HW  HW  OW  HW  HW  
OW  HW  HW  OW  HW  HW  OW  HW  HW  OW  HW  HW  OW  HW  HW  OW  HW  HW  OW  HW  
HW  OW  HW  HW  OW  HW  HW  OW  HW  HW  OW  HW  HW  OW  HW  HW  OW  HW  HW  OW  
HW  HW  OW  HW  HW  OW  HW  HW  OW  HW  HW  OW  HW  HW  OW  HW  HW  OW  HW  HW  
OW  HW  HW  OW  HW  HW  OW  HW  HW  OW  HW  HW  OW  HW  HW  OW  HW  HW  OW  HW  
HW  OW  HW  HW  OW  HW  HW  OW  HW  HW  OW  HW  HW  OW  HW  HW  OW  HW  HW  OW  
HW  HW  OW  HW  HW  OW  HW  HW  OW  HW  HW  OW  HW  HW  OW  HW  HW  OW  HW  HW  
OW  HW  HW  OW  HW  HW  OW  HW  HW  OW  HW  HW  OW  HW  HW  OW  HW  HW  OW  HW  
HW  OW  HW  HW  OW  HW  HW  OW  HW  HW  OW  HW  HW  OW  HW  HW  OW  HW  HW  OW  
HW  HW  OW  HW  HW  OW  HW  HW  OW  HW  HW  OW  HW  HW  OW  HW  HW  OW  HW  HW  
OW  HW  HW  OW  HW  HW  OW  HW  HW  OW  HW  HW  OW  HW  HW  OW  HW  HW  OW  HW  
HW  OW  HW  HW  OW  HW  HW  OW  HW  HW  OW  HW  HW  OW  HW  HW  OW  HW  HW  OW  
HW  HW  OW  HW  HW  OW  HW  HW  OW  HW  HW  OW  HW  HW  OW  HW  HW  OW  HW  HW  
OW  HW  HW  OW  HW  HW  OW  HW  HW  OW  HW  HW  OW  HW  HW  OW  HW  HW  OW  HW  
HW  OW  HW  HW  OW  HW  HW  OW  HW  HW  OW  HW  HW  OW  HW  HW  OW  HW  HW  OW  
HW  HW  OW  HW  HW  OW  HW  HW  OW  HW  HW  OW  HW  HW  OW  HW  HW  OW  HW  HW  
OW  HW  HW  OW  HW  HW  OW  HW  HW  OW  HW  HW  OW  HW  HW  OW  HW  HW  OW  HW  
HW  OW  HW  HW  OW  HW  HW  OW  HW  HW  OW  HW  HW  OW  HW  HW  OW  HW  HW  OW  
HW  HW  OW  HW  HW  OW  HW  HW  OW  HW  HW  OW  HW  HW  OW  HW  HW  OW  HW  HW  
OW  HW  HW  OW  HW  HW  OW  HW  HW  OW  HW  HW  OW  HW  HW  OW  HW  HW  OW  HW  
HW  OW  HW  HW  OW  HW  HW  OW  HW  HW  OW  HW  HW  OW  HW  HW  OW  HW  HW  OW  
HW  HW  OW  HW  HW  OW  HW  HW  OW  HW  HW  OW  HW  HW  OW  HW  HW  OW  HW  HW  
OW  HW  HW  OW  HW  HW  OW  HW  HW  OW  HW  HW  OW  HW  HW  OW  HW  HW  OW  HW  
HW  OW  HW  HW  OW  HW  HW  OW  HW  HW  OW  HW  HW  OW  HW  HW  OW  HW  HW  OW  
HW  HW  OW  HW  HW  OW  HW  HW  OW  HW  HW  OW  HW  HW  OW  HW  HW  OW  HW  HW  
OW  HW  HW  OW  HW  HW  OW  HW  HW  OW  HW  HW  OW  HW  HW  OW  HW  HW  OW  HW  
HW  OW  HW  HW  OW  HW  HW  OW  HW  HW  OW  HW  HW  OW  HW  HW  OW  HW  HW  OW  
HW  HW  OW  HW  HW  OW  HW  HW  OW  HW  HW  OW  HW  HW  OW  HW  HW  OW  HW  HW  
OW  HW  HW  OW  HW  HW  OW  HW  HW  OW  HW  HW  OW  HW  HW  OW  HW  HW  OW  HW  
HW  OW  HW  HW  OW  HW  HW  OW  HW  HW  OW  HW  HW  OW  HW  HW  OW  HW  HW  OW  
HW  HW  OW  HW  HW  OW  HW  HW  OW  HW  HW  OW  HW  HW  OW  HW  HW  OW  HW  HW  
OW  HW  HW  OW  HW  HW  OW  HW  HW  OW  HW  HW  OW  HW  HW  OW  HW  HW  OW  HW  
HW  OW  HW  HW  OW  HW  HW  OW  HW  HW  OW  HW  HW  OW  HW  HW  OW  HW  HW  OW  
HW  HW  OW  HW  HW  OW  HW  HW  OW  HW  HW  OW  HW  HW  OW  HW  HW  OW  HW  HW  
OW  HW  HW  OW  HW  HW  OW  HW  HW  OW  HW  HW  OW  HW  HW  OW  HW  HW  OW  HW  
HW  OW  HW  HW  OW  HW  HW  OW  HW  HW  OW  HW  HW  OW  HW  HW  OW  HW  HW  OW  
HW  HW  OW  HW  HW  OW  HW  HW  OW  HW  HW  OW  HW  HW  OW  HW  HW  OW  HW  HW  
OW  HW  HW  OW  HW  HW  OW  HW  HW  OW  HW  HW  OW  HW  HW  OW  HW  HW  OW  HW  
HW  OW  HW  HW  OW  HW  HW  OW  HW  HW  OW  HW  HW  OW  HW  HW  OW  HW  HW  OW  
HW  HW  OW  HW  HW  OW  HW  HW  OW  HW  HW  OW  HW  HW  OW  HW  HW  OW  HW  HW  
OW  HW  HW  OW  HW  HW  OW  HW  HW  OW  HW  HW  OW  HW  HW  OW  HW  HW  OW  HW  
HW  OW  HW  HW  OW  HW  HW  OW  HW  HW  OW  HW  HW  OW  HW  HW  OW  HW  HW  OW  
HW  HW  OW  HW  HW  OW  HW  HW  OW  HW  HW  OW  HW  HW  OW  HW  HW  OW  HW  HW  
OW  HW  HW  OW  HW  HW  OW  HW  HW  OW  HW  HW  OW  HW  HW  OW  HW  HW  OW  HW  
HW  OW  HW  HW  OW  HW  HW  OW  HW  HW  OW  HW  HW  OW  HW  HW  OW  HW  HW  OW  
HW  HW  OW  HW  HW  OW  HW  HW  OW  HW  HW  OW  HW  HW  OW  HW  HW  OW  HW  HW  
OW  HW  HW  OW  HW  HW  OW  HW  HW  OW  HW  HW  OW  HW  HW  OW  HW  HW  OW  HW  
HW  OW  HW  HW  OW  HW  HW  OW  HW  HW  OW  HW  HW  OW  HW  HW  OW  HW  HW  OW  
HW  HW  OW  HW  HW  OW  HW  HW  OW  HW  HW  OW  HW  HW  OW  HW  HW  OW  HW  HW  
OW  HW  HW  OW  HW  HW  OW  HW  HW  OW  HW  HW  OW  HW  HW  OW  HW  HW  OW  HW  
HW  OW  HW  HW  OW  HW  HW  OW  HW  HW  OW  HW  HW  OW  HW  HW  OW  HW  HW  OW  
HW  HW  OW  HW  HW  OW  HW  HW  OW  HW  HW  OW  HW  HW  OW  HW  HW  OW  HW  HW  
OW  HW  HW  OW  HW  HW  OW  HW  HW  OW  HW  HW  OW  HW  HW  OW  HW  HW  OW  HW  
HW  OW  HW  HW  OW  HW  HW  OW  HW  HW  OW  HW  HW  OW  HW  HW  OW  HW  HW  OW  
HW  HW  OW  HW  HW  OW  HW  HW  OW  HW  HW  OW  HW  HW  OW  HW  HW  OW  HW  HW  
OW  HW  HW  OW  HW  HW  OW  HW  HW  OW  HW  HW  OW  HW  HW  OW  HW  HW  OW  HW  
HW  OW  HW  HW  OW  HW  HW  OW  HW  HW  OW  HW  HW  OW  HW  HW  OW  HW  HW  OW  
HW  HW  OW  HW  HW  OW  HW  HW  OW  HW  HW  OW  HW  HW  OW  HW  HW  OW  HW  HW  
OW  HW  HW  OW  HW  HW  OW  HW  HW  OW  HW  HW  OW  HW  HW  OW  HW  HW  OW  HW  
HW  OW  HW  HW  OW  HW  HW  OW  HW  HW  OW  HW  HW  OW  HW  HW  OW  HW  HW  OW  
HW  HW  OW  HW  HW  OW  HW  HW  OW  HW  HW  OW  HW  HW  OW  HW  HW  OW  HW  HW  
OW  HW  HW  OW  HW  HW  OW  HW  HW  OW  HW  HW  OW  HW  HW  OW  HW  HW  OW  HW  
HW  OW  HW  HW  OW  HW  HW  OW  HW  HW  OW  HW  HW  OW  HW  HW  OW  HW  HW  OW  
HW  HW  OW  HW  HW  OW  HW  HW  OW  HW  HW  OW  HW  HW  OW  HW  HW  OW  HW  HW  
OW  HW  HW  OW  HW  HW  OW  HW  HW  OW  HW  HW  OW  HW  HW  OW  HW  HW  OW  HW  
HW  OW  HW  HW  OW  HW  HW  OW  HW  HW  OW  HW  HW  OW  HW  HW  OW  HW  HW  OW  
HW  HW  OW  HW  HW  OW  HW  HW  OW  HW  HW  OW  HW  HW  OW  HW  HW  OW  HW  HW  
OW  HW  HW  OW  HW  HW  OW  HW  HW  OW  HW  HW  OW  HW  HW  OW  HW  HW  OW  HW  
HW  OW  HW  HW  OW  HW  HW  OW  HW  HW  OW  HW  HW  OW  HW  HW  OW  HW  HW  OW  
HW  HW  OW  HW  HW  OW  HW  HW  OW  HW  HW  OW  HW  HW  OW  HW  HW  OW  HW  HW  
OW  HW  HW  OW  HW  HW  OW  HW  HW  OW  HW  HW  OW  HW  HW  OW  HW  HW  OW  HW  
HW  OW  HW  HW  OW  HW  HW  OW  HW  HW  OW  HW  HW  OW  HW  HW  OW  HW  HW  OW  
HW  HW  OW  HW  HW  OW  HW  HW  OW  HW  HW  OW  HW  HW  OW  HW  HW  OW  HW  HW  
OW  HW  HW  OW  HW  HW  OW  HW  HW  OW  HW  HW  OW  HW  HW  OW  HW  HW  OW  HW  
HW  OW  HW  HW  OW  HW  HW  OW  HW  HW  OW  HW  HW  OW  HW  HW  OW  HW  HW  OW  
HW  HW  OW  HW  HW  OW  HW  HW  OW  HW  HW  OW  HW  HW  OW  HW  HW  OW  HW  HW  
OW  HW  HW  OW  HW  HW  OW  HW  HW  OW  HW  HW  OW  HW  HW  OW  HW  HW  OW  HW  
HW  OW  HW  HW  OW  HW  HW  OW  HW  HW  OW  HW  HW  OW  HW  HW  OW  HW  HW  OW  
HW  HW  OW  HW  HW  OW  HW  HW  OW  HW  HW  OW  HW  HW  OW  HW  HW  OW  HW  HW  
OW  HW  HW  OW  HW  HW  OW  HW  HW  OW  HW  HW  OW  HW  HW  OW  HW  HW  OW  HW  
HW  OW  HW  HW  OW  HW  HW  OW  HW  HW  OW  HW  HW  OW  HW  HW  OW  HW  HW  OW  
HW  HW  OW  HW  HW  OW  HW  HW  OW  HW  HW  OW  HW  HW  OW  HW  HW  OW  HW  HW  
OW  HW  HW  OW  HW  HW  OW  HW  HW  OW  HW  HW  OW  HW  HW  OW  HW  HW  OW  HW  
HW  OW  HW  HW  OW  HW  HW  OW  HW  HW  OW  HW  HW  OW  HW  HW  OW  HW  HW  OW  
HW  HW  OW  HW  HW  OW  HW  HW  OW  HW  HW  OW  HW  HW  OW  HW  HW  OW  HW  HW  
OW  HW  HW  OW  HW  HW  OW  HW  HW  OW  HW  HW  OW  HW  HW  OW  HW  HW  OW  HW  
HW  OW  HW  HW  OW  HW  HW  OW  HW  HW  OW  HW  HW  OW  HW  HW  OW  HW  HW  OW  
HW  HW  OW  HW  HW  OW  HW  HW  OW  HW  HW  OW  HW  HW  OW  HW  HW  OW  HW  HW  
OW  HW  HW  OW  HW  HW  OW  HW  HW  OW  HW  HW  OW  HW  HW  OW  HW  HW  OW  HW  
HW  OW  HW  HW  OW  HW  HW  OW  HW  HW  OW  HW  HW  OW  HW  HW  OW  HW  HW  OW  
HW  HW  OW  HW  HW  OW  HW  HW  OW  HW  HW  OW  HW  HW  OW  HW  HW  OW  HW  HW  
OW  HW  HW  OW  HW  HW  OW  HW  HW  OW  HW  HW  OW  HW  HW  OW  HW  HW  OW  HW  
HW  OW  HW  HW  OW  HW  HW  OW  HW  HW  OW  HW  HW  OW  HW  HW  OW  HW  HW  OW  
HW  HW  OW  HW  HW  OW  HW  HW  OW  HW  HW  OW  HW  HW  OW  HW  HW  OW  HW  HW  
OW  HW  HW  OW  HW  HW  OW  HW  HW  OW  HW  HW  OW  HW  HW  OW  HW  HW  OW  HW  
HW  OW  HW  HW  OW  HW  HW  OW  HW  HW  OW  HW  HW  OW  HW  HW  OW  HW  HW  OW  
HW  HW  OW  HW  HW  OW  HW  HW  OW  HW  HW  OW  HW  HW  OW  HW  HW  OW  HW  HW  
OW  HW  HW  OW  HW  HW  OW  HW  HW  OW  HW  HW  OW  HW  HW  OW  HW  HW  OW  HW  
HW  OW  HW  HW  OW  HW  HW  OW  HW  HW  OW  HW  HW  OW  HW  HW  OW  HW  HW  OW  
HW  HW  OW  HW  HW  OW  HW  HW  OW  HW  HW  OW  HW  HW  OW  HW  HW  OW  HW  HW  
OW  HW  HW  OW  HW  HW  OW  HW  HW  OW  HW  HW  OW  HW  HW  OW  HW  HW  OW  HW  
HW  OW  HW  HW  OW  HW  HW  OW  HW  HW  OW  HW  HW  OW  HW  HW  OW  HW  HW  OW  
HW  HW  OW  HW  HW  OW  HW  HW  OW  HW  HW  OW  HW  HW  OW  HW  HW  OW  HW  HW  
OW  HW  HW  OW  HW  HW  OW  HW  HW  OW  HW  HW  OW  HW  HW  OW  HW  HW  OW  HW  
HW  OW  HW  HW  OW  HW  HW  OW  HW  HW  OW  HW  HW  OW  HW  HW  OW  HW  HW  OW  
HW  HW  OW  HW  HW  OW  HW  HW  OW  HW  HW  OW  HW  HW  OW  HW  HW  OW  HW  HW  
OW  HW  HW  OW  HW  HW  OW  HW  HW  OW  HW  HW  OW  HW  HW  OW  HW  HW  OW  HW  
HW  OW  HW  HW  OW  HW  HW  OW  HW  HW  OW  HW  HW  OW  HW  HW  OW  HW  HW  OW  
HW  HW  OW  HW  HW  OW  HW  HW  OW  HW  HW  OW  HW  HW  OW  HW  HW  OW  HW  HW  
OW  HW  HW  OW  HW  HW  OW  HW  HW  OW  HW  HW  OW  HW  HW  OW  HW  HW  OW  HW  
HW  OW  HW  HW  OW  HW  HW  OW  HW  HW  OW  HW  HW  OW  HW  HW  OW  HW  HW  OW  
HW  HW  OW  HW  HW  OW  HW  HW  OW  HW  HW  OW  HW  HW  OW  HW  HW  OW  HW  HW  
OW  HW  HW  OW  HW  HW  OW  HW  HW  OW  HW  HW  OW  HW  HW  OW  HW  HW  OW  HW  
HW  OW  HW  HW  OW  HW  HW  OW  HW  HW  OW  HW  HW  OW  HW  HW  OW  HW  HW  OW  
HW  HW  OW  HW  HW  OW  HW  HW  OW  HW  HW  OW  HW  HW  OW  HW  HW  OW  HW  HW  
OW  HW  HW  OW  HW  HW  OW  HW  HW  OW  HW  HW  OW  HW  HW  OW  HW  HW  OW  HW  
HW  OW  HW  HW  OW  HW  HW  OW  HW  HW  OW  HW  HW  OW  HW  HW  OW  HW  HW  OW  
HW  HW  OW  HW  HW  OW  HW  HW  OW  HW  HW  OW  HW  HW  OW  HW  HW  OW  HW  HW  
OW  HW  HW  OW  HW  HW  OW  HW  HW  OW  HW  HW  OW  HW  HW  OW  HW  HW  OW  HW  
HW  OW  HW  HW  OW  HW  HW  OW  HW  HW  OW  HW  HW  OW  HW  HW  OW  HW  HW  OW  
HW  HW  OW  HW  HW  OW  HW  HW  OW  HW  HW  OW  HW  HW  OW  HW  HW  OW  HW  HW  
OW  HW  HW  OW  HW  HW  OW  HW  HW  OW  HW  HW  OW  HW  HW  OW  HW  HW  OW  HW  
HW  OW  HW  HW  OW  HW  HW  OW  HW  HW  OW  HW  HW  OW  HW  HW  OW  HW  HW  OW  
HW  HW  OW  HW  HW  OW  HW  HW  OW  HW  HW  OW  HW  HW  OW  HW  HW  OW  HW  HW  
OW  HW  HW  OW  HW  HW  OW  HW  HW  OW  HW  HW  OW  HW  HW  OW  HW  HW  OW  HW  
HW  OW  HW  HW  OW  HW  HW  OW  HW  HW  OW  HW  HW  OW  HW  HW  OW  HW  HW  OW  
HW  HW  OW  HW  HW  OW  HW  HW  OW  HW  HW  OW  HW  HW  OW  HW  HW  OW  HW  HW  
OW  HW  HW  OW  HW  HW  OW  HW  HW  OW  HW  HW  OW  HW  HW  OW  HW  HW  OW  HW  
HW  OW  HW  HW  OW  HW  HW  OW  HW  HW  OW  HW  HW  OW  HW  HW  OW  HW  HW  OW  
HW  HW  OW  HW  HW  OW  HW  HW  OW  HW  HW  OW  HW  HW  OW  HW  HW  OW  HW  HW  
OW  HW  HW  OW  HW  HW  OW  HW  HW  OW  HW  HW  OW  HW  HW  OW  HW  HW  OW  HW  
HW  OW  HW  HW  OW  HW  HW  OW  HW  HW  OW  HW  HW  OW  HW  HW  OW  HW  HW  OW  
HW  HW  OW  HW  HW  OW  HW  HW  OW  HW  HW  OW  HW  HW  OW  HW  HW  OW  HW  HW  
OW  HW  HW  OW  HW  HW  OW  HW  HW  OW  HW  HW  OW  HW  HW  OW  HW  HW  OW  HW  
HW  OW  HW  HW  OW  HW  HW  OW  HW  HW  OW  HW  HW  OW  HW  HW  OW  HW  HW  OW  
HW  HW  OW  HW  HW  OW  HW  HW  OW  HW  HW  OW  HW  HW  OW  HW  HW  OW  HW  HW  
OW  HW  HW  OW  HW  HW  OW  HW  HW  OW  HW  HW  OW  HW  HW  OW  HW  HW  OW  HW  
HW  OW  HW  HW  OW  HW  HW  OW  HW  HW  OW  HW  HW  OW  HW  HW  OW  HW  HW  OW  
HW  HW  OW  HW  HW  OW  HW  HW  OW  HW  HW  OW  HW  HW  OW  HW  HW  OW  HW  HW  
OW  HW  HW  OW  HW  HW  OW  HW  HW  OW  HW  HW  OW  HW  HW  OW  HW  HW  OW  HW  
HW  OW  HW  HW  OW  HW  HW  OW  HW  HW  OW  HW  HW  OW  HW  HW  OW  HW  HW  OW  
HW  HW  OW  HW  HW  OW  HW  HW  OW  HW  HW  OW  HW  HW  OW  HW  HW  OW  HW  HW  
OW  HW  HW  OW  HW  HW  OW  HW  HW  OW  HW  HW  OW  HW  HW  OW  HW  HW  OW  HW  
HW  OW  HW  HW  OW  HW  HW  OW  HW  HW  OW  HW  HW  OW  HW  HW  OW  HW  HW  OW  
HW  HW  OW  HW  HW  OW  HW  HW  OW  HW  HW  OW  HW  HW  OW  HW  HW  OW  HW  HW  
OW  HW  HW  OW  HW  HW  OW  HW  HW  OW  HW  HW  OW  HW  HW  OW  HW  HW  OW  HW  
HW  OW  HW  HW  OW  HW  HW  OW  HW  HW  OW  HW  HW  OW  HW  HW  OW  HW  HW  OW  
HW  HW  OW  HW  HW  OW  HW  HW  OW  HW  HW  OW  HW  HW  OW  HW  HW  OW  HW  HW  
OW  HW  HW  OW  HW  HW  OW  HW  HW  OW  HW  HW  OW  HW  HW  OW  HW  HW  OW  HW  
HW  OW  HW  HW  OW  HW  HW  OW  HW  HW  OW  HW  HW  OW  HW  HW  OW  HW  HW  OW  
HW  HW  OW  HW  HW  OW  HW  HW  OW  HW  HW  OW  HW  HW  OW  HW  HW  OW  HW  HW  
OW  HW  HW  OW  HW  HW  OW  HW  HW  OW  HW  HW  OW  HW  HW  OW  HW  HW  OW  HW  
HW  OW  HW  HW  OW  HW  HW  OW  HW  HW  OW  HW  HW  OW  HW  HW  OW  HW  HW  OW  
HW  HW  OW  HW  HW  OW  HW  HW  OW  HW  HW  OW  HW  HW  OW  HW  HW  OW  HW  HW  
OW  HW  HW  OW  HW  HW  OW  HW  HW  OW  HW  HW  OW  HW  HW  OW  HW  HW  OW  HW  
HW  OW  HW  HW  OW  HW  HW  OW  HW  HW  OW  HW  HW  OW  HW  HW  OW  HW  HW  OW  
HW  HW  OW  HW  HW  OW  HW  HW  OW  HW  HW  OW  HW  HW  OW  HW  HW  OW  HW  HW  
OW  HW  HW  OW  HW  HW  OW  HW  HW  OW  HW  HW  OW  HW  HW  OW  HW  HW  OW  HW  
HW  OW  HW  HW  OW  HW  HW  OW  HW  HW  OW  HW  HW  OW  HW  HW  OW  HW  HW  OW  
HW  HW  OW  HW  HW  OW  HW  HW  OW  HW  HW  OW  HW  HW  OW  HW  HW  OW  HW  HW  
OW  HW  HW  OW  HW  HW  OW  HW  HW  OW  HW  HW  OW  HW  HW  OW  HW  HW  OW  HW  
HW  OW  HW  HW  OW  HW  HW  OW  HW  HW  OW  HW  HW  OW  HW  HW  OW  HW  HW  OW  
HW  HW  OW  HW  HW  OW  HW  HW  OW  HW  HW  OW  HW  HW  OW  HW  HW  OW  HW  HW  
OW  HW  HW  OW  HW  HW  OW  HW  HW  OW  HW  HW  OW  HW  HW  OW  HW  HW  OW  HW  
HW  OW  HW  HW  OW  HW  HW  OW  HW  HW  OW  HW  HW  OW  HW  HW  OW  HW  HW  OW  
HW  HW  OW  HW  HW  OW  HW  HW  OW  HW  HW  OW  HW  HW  OW  HW  HW  OW  HW  HW  
OW  HW  HW  OW  HW  HW  OW  HW  HW  OW  HW  HW  OW  HW  HW  OW  HW  HW  OW  HW  
HW  OW  HW  HW  OW  HW  HW  OW  HW  HW  OW  HW  HW  OW  HW  HW  OW  HW  HW  OW  
HW  HW  OW  HW  HW  OW  HW  HW  OW  HW  HW  OW  HW  HW  OW  HW  HW  OW  HW  HW  
OW  HW  HW  OW  HW  HW  OW  HW  HW  OW  HW  HW  OW  HW  HW  OW  HW  HW  OW  HW  
HW  OW  HW  HW  OW  HW  HW  OW  HW  HW  OW  HW  HW  OW  HW  HW  OW  HW  HW  OW  
HW  HW  OW  HW  HW  OW  HW  HW  OW  HW  HW  OW  HW  HW  OW  HW  HW  OW  HW  HW  
OW  HW  HW  OW  HW  HW  OW  HW  HW  OW  HW  HW  OW  HW  HW  OW  HW  HW  OW  HW  
HW  OW  HW  HW  OW  HW  HW  OW  HW  HW  OW  HW  HW  OW  HW  HW  OW  HW  HW  OW  
HW  HW  OW  HW  HW  OW  HW  HW  OW  HW  HW  OW  HW  HW  OW  HW  HW  OW  HW  HW  
OW  HW  HW  OW  HW  HW  OW  HW  HW  OW  HW  HW  OW  HW  HW  OW  HW  HW  OW  HW  
HW  OW  HW  HW  OW  HW  HW  OW  HW  HW  OW  HW  HW  OW  HW  HW  OW  HW  HW  OW  
HW  HW  OW  HW  HW  OW  HW  HW  OW  HW  HW  OW  HW  HW  OW  HW  HW  OW  HW  HW  
OW  HW  HW  OW  HW  HW  OW  HW  HW  OW  HW  HW  OW  HW  HW  OW  HW  HW  OW  HW  
HW  OW  HW  HW  OW  HW  HW  OW  HW  HW  OW  HW  HW  OW  HW  HW  OW  HW  HW  OW  
HW  HW  OW  HW  HW  OW  HW  HW  OW  HW  HW  OW  HW  HW  OW  HW  HW  OW  HW  HW  
OW  HW  HW  OW  HW  HW  OW  HW  HW  OW  HW  HW  OW  HW  HW  OW  HW  HW  OW  HW  
HW  OW  HW  HW  OW  HW  HW  OW  HW  HW  OW  HW  HW  OW  HW  HW  OW  HW  HW  OW  
HW  HW  OW  HW  HW  OW  HW  HW  OW  HW  HW  OW  HW  HW  OW  HW  HW  OW  HW  HW  
OW  HW  HW  OW  HW  HW  OW  HW  HW  OW  HW  HW  OW  HW  HW  OW  HW  HW  OW  HW  
HW  OW  HW  HW  OW  HW  HW  OW  HW  HW  OW  HW  HW  OW  HW  HW  OW  HW  HW  OW  
HW  HW  OW  HW  HW  OW  HW  HW  OW  HW  HW  OW  HW  HW  OW  HW  HW  OW  HW  HW  
OW  HW  HW  OW  HW  HW  OW  HW  HW  OW  HW  HW  OW  HW  HW  OW  HW  HW  OW  HW  
HW  OW  HW  HW  OW  HW  HW  OW  HW  HW  OW  HW  HW  OW  HW  HW  OW  HW  HW  OW  
HW  HW  OW  HW  HW  OW  HW  HW  OW  HW  HW  OW  HW  HW  OW  HW  HW  OW  HW  HW  
OW  HW  HW  OW  HW  HW  OW  HW  HW  OW  HW  HW  OW  HW  HW  OW  HW  HW  OW  HW  
HW  OW  HW  HW  OW  HW  HW  OW  HW  HW  OW  HW  HW  OW  HW  HW  OW  HW  HW  OW  
HW  HW  OW  HW  HW  OW  HW  HW  OW  HW  HW  OW  HW  HW  OW  HW  HW  OW  HW  HW  
OW  HW  HW  OW  HW  HW  OW  HW  HW  OW  HW  HW  OW  HW  HW  OW  HW  HW  OW  HW  
HW  OW  HW  HW  OW  HW  HW  OW  HW  HW  OW  HW  HW  OW  HW  HW  OW  HW  HW  OW  
HW  HW  OW  HW  HW  OW  HW  HW  OW  HW  HW  OW  HW  HW  OW  HW  HW  OW  HW  HW  
OW  HW  HW  OW  HW  HW  OW  HW  HW  OW  HW  HW  OW  HW  HW  OW  HW  HW  OW  HW  
HW  OW  HW  HW  OW  HW  HW  OW  HW  HW  OW  HW  HW  OW  HW  HW  OW  HW  HW  OW  
HW  HW  OW  HW  HW  OW  HW  HW  OW  HW  HW  OW  HW  HW  OW  HW  HW  OW  HW  HW  
OW  HW  HW  OW  HW  HW  OW  HW  HW  OW  HW  HW  OW  HW  HW  OW  HW  HW  OW  HW  
HW  OW  HW  HW  OW  HW  HW  OW  HW  HW  OW  HW  HW  OW  HW  HW  OW  HW  HW  OW  
HW  HW  OW  HW  HW  OW  HW  HW  OW  HW  HW  OW  HW  HW  OW  HW  HW  OW  HW  HW  
OW  HW  HW  OW  HW  HW  OW  HW  HW  OW  HW  HW  OW  HW  HW  OW  HW  HW  OW  HW  
HW  OW  HW  HW  OW  HW  HW  OW  HW  HW  OW  HW  HW  OW  HW  HW  OW  HW  HW  OW  
HW  HW  OW  HW  HW  OW  HW  HW  OW  HW  HW  OW  HW  HW  OW  HW  HW  OW  HW  HW  
OW  HW  HW  OW  HW  HW  OW  HW  HW  OW  HW  HW  OW  HW  HW  OW  HW  HW  OW  HW  
HW  OW  HW  HW  OW  HW  HW  OW  HW  HW  OW  HW  HW  OW  HW  HW  OW  HW  HW  OW  
HW  HW  OW  HW  HW  OW  HW  HW  OW  HW  HW  OW  HW  HW  OW  HW  HW  OW  HW  HW  
OW  HW  HW  OW  HW  HW  OW  HW  HW  OW  HW  HW  OW  HW  HW  OW  HW  HW  OW  HW  
HW  OW  HW  HW  OW  HW  HW  OW  HW  HW  OW  HW  HW  OW  HW  HW  OW  HW  HW  OW  
HW  HW  OW  HW  HW  OW  HW  HW  OW  HW  HW  OW  HW  HW  OW  HW  HW  OW  HW  HW  
OW  HW  HW  OW  HW  HW  OW  HW  HW  OW  HW  HW  OW  HW  HW  OW  HW  HW  OW  HW  
HW  OW  HW  HW  OW  HW  HW  OW  HW  HW  OW  HW  HW  OW  HW  HW  OW  HW  HW  OW  
HW  HW  OW  HW  HW  OW  HW  HW  OW  HW  HW  OW  HW  HW  OW  HW  HW  OW  HW  HW  
OW  HW  HW  OW  HW  HW  OW  HW  HW  OW  HW  HW  OW  HW  HW  OW  HW  HW  OW  HW  
HW  OW  HW  HW  OW  HW  HW  OW  HW  HW  OW  HW  HW  OW  HW  HW  OW  HW  HW  OW  
HW  HW  OW  HW  HW  OW  HW  HW  OW  HW  HW  OW  HW  HW  OW  HW  HW  OW  HW  HW  
OW  HW  HW  OW  HW  HW  OW  HW  HW  OW  HW  HW  OW  HW  HW  OW  HW  HW  OW  HW  
HW  OW  HW  HW  OW  HW  HW  OW  HW  HW  OW  HW  HW  OW  HW  HW  OW  HW  HW  OW  
HW  HW  OW  HW  HW  OW  HW  HW  OW  HW  HW  OW  HW  HW  OW  HW  HW  OW  HW  HW  
OW  HW  HW  OW  HW  HW  OW  HW  HW  OW  HW  HW  OW  HW  HW  OW  HW  HW  OW  HW  
HW  OW  HW  HW  OW  HW  HW  OW  HW  HW  OW  HW  HW  OW  HW  HW  OW  HW  HW  OW  
HW  HW  OW  HW  HW  OW  HW  HW  OW  HW  HW  OW  HW  HW  OW  HW  HW  OW  HW  HW  
OW  HW  HW  OW  HW  HW  OW  HW  HW  OW  HW  HW  OW  HW  HW  OW  HW  HW  OW  HW  
HW  OW  HW  HW  OW  HW  HW  OW  HW  HW  OW  HW  HW  OW  HW  HW  OW  HW  HW  OW  
HW  HW  OW  HW  HW  OW  HW  HW  OW  HW  HW  OW  HW  HW  OW  HW  HW  OW  HW  HW  
OW  HW  HW  OW  HW  HW  OW  HW  HW  OW  HW  HW  OW  HW  HW  OW  HW  HW  OW  HW  
HW  OW  HW  HW  OW  HW  HW  OW  HW  HW  OW  HW  HW  OW  HW  HW  OW  HW  HW  OW  
HW  HW  OW  HW  HW  OW  HW  HW  OW  HW  HW  OW  HW  HW  OW  HW  HW  OW  HW  HW  
OW  HW  HW  OW  HW  HW  OW  HW  HW  OW  HW  HW  OW  HW  HW  OW  HW  HW  OW  HW  
HW  OW  HW  HW  OW  HW  HW  OW  HW  HW  OW  HW  HW  OW  HW  HW  OW  HW  HW  OW  
HW  HW  OW  HW  HW  OW  HW  HW  OW  HW  HW  OW  HW  HW  OW  HW  HW  OW  HW  HW  
OW  HW  HW  OW  HW  HW  OW  HW  HW  OW  HW  HW  OW  HW  HW  OW  HW  HW  OW  HW  
HW  OW  HW  HW  OW  HW  HW  OW  HW  HW  OW  HW  HW  OW  HW  HW  OW  HW  HW  OW  
HW  HW  OW  HW  HW  OW  HW  HW  OW  HW  HW  OW  HW  HW  OW  HW  HW  OW  HW  HW  
OW  HW  HW  OW  HW  HW  OW  HW  HW  OW  HW  HW  OW  HW  HW  OW  HW  HW  OW  HW  
HW  OW  HW  HW  OW  HW  HW  OW  HW  HW  OW  HW  HW  OW  HW  HW  OW  HW  HW  OW  
HW  HW  OW  HW  HW  OW  HW  HW  OW  HW  HW  OW  HW  HW  OW  HW  HW  OW  HW  HW  
OW  HW  HW  OW  HW  HW  OW  HW  HW  OW  HW  HW  OW  HW  HW  OW  HW  HW  OW  HW  
HW  OW  HW  HW  OW  HW  HW  OW  HW  HW  OW  HW  HW  OW  HW  HW  OW  HW  HW  OW  
HW  HW  OW  HW  HW  OW  HW  HW  OW  HW  HW  OW  HW  HW  OW  HW  HW  OW  HW  HW  
OW  HW  HW  OW  HW  HW  OW  HW  HW  OW  HW  HW  OW  HW  HW  OW  HW  HW  OW  HW  
HW  OW  HW  HW  OW  HW  HW  OW  HW  HW  OW  HW  HW  OW  HW  HW  OW  HW  HW  OW  
HW  HW  OW  HW  HW  OW  HW  HW  OW  HW  HW  OW  HW  HW  OW  HW  HW  OW  HW  HW  
OW  HW  HW  OW  HW  HW  OW  HW  HW  OW  HW  HW  OW  HW  HW  OW  HW  HW  OW  HW  
HW  OW  HW  HW  OW  HW  HW  OW  HW  HW  OW  HW  HW  OW  HW  HW  OW  HW  HW  OW  
HW  HW  OW  HW  HW  OW  HW  HW  OW  HW  HW  OW  HW  HW  OW  HW  HW  OW  HW  HW  
OW  HW  HW  OW  HW  HW  OW  HW  HW  OW  HW  HW  OW  HW  HW  OW  HW  HW  OW  HW  
HW  OW  HW  HW  OW  HW  HW  OW  HW  HW  OW  HW  HW  OW  HW  HW  OW  HW  HW  OW  
HW  HW  OW  HW  HW  OW  HW  HW  OW  HW  HW  OW  HW  HW  OW  HW  HW  OW  HW  HW  
OW  HW  HW  OW  HW  HW  OW  HW  HW  OW  HW  HW  OW  HW  HW  OW  HW  HW  OW  HW  
HW  OW  HW  HW  OW  HW  HW  OW  HW  HW  OW  HW  HW  OW  HW  HW  OW  HW  HW  OW  
HW  HW  OW  HW  HW  OW  HW  HW  OW  HW  HW  OW  HW  HW  OW  HW  HW  OW  HW  HW  
OW  HW  HW  OW  HW  HW  OW  HW  HW  OW  HW  HW  OW  HW  HW  OW  HW  HW  OW  HW  
HW  OW  HW  HW  OW  HW  HW  OW  HW  HW  OW  HW  HW  OW  HW  HW  OW  HW  HW  OW  
HW  HW  OW  HW  HW  OW  HW  HW  OW  HW  HW  OW  HW  HW  OW  HW  HW  OW  HW  HW  
OW  HW  HW  OW  HW  HW  OW  HW  HW  OW  HW  HW  OW  HW  HW  OW  HW  HW  OW  HW  
HW  OW  HW  HW  OW  HW  HW  OW  HW  HW  OW  HW  HW  OW  HW  HW  OW  HW  HW  OW  
HW  HW  OW  HW  HW  OW  HW  HW  OW  HW  HW  OW  HW  HW  OW  HW  HW  OW  HW  HW  
OW  HW  HW  OW  HW  HW  OW  HW  HW  OW  HW  HW  OW  HW  HW  OW  HW  HW  OW  HW  
HW  OW  HW  HW  OW  HW  HW  OW  HW  HW  OW  HW  HW  OW  HW  HW  OW  HW  HW  OW  
HW  HW  OW  HW  HW  OW  HW  HW  OW  HW  HW  OW  HW  HW  OW  HW  HW  OW  HW  HW  
OW  HW  HW  OW  HW  HW  OW  HW  HW  OW  HW  HW  OW  HW  HW  OW  HW  HW  OW  HW  
HW  OW  HW  HW  OW  HW  HW  OW  HW  HW  OW  HW  HW  OW  HW  HW  OW  HW  HW  OW  
HW  HW  OW  HW  HW  OW  HW  HW  OW  HW  HW  OW  HW  HW  OW  HW  HW  OW  HW  HW  
OW  HW  HW  OW  HW  HW  OW  HW  HW  OW  HW  HW  OW  HW  HW  OW  HW  HW  OW  HW  
HW  OW  HW  HW  OW  HW  HW  OW  HW  HW  OW  HW  HW  OW  HW  HW  OW  HW  HW  OW  
HW  HW  OW  HW  HW  OW  HW  HW  OW  HW  HW  OW  HW  HW  OW  HW  HW  OW  HW  HW  
OW  HW  HW  OW  HW  HW  OW  HW  HW  OW  HW  HW  OW  HW  HW  OW  HW  HW  OW  HW  
HW  OW  HW  HW  OW  HW  HW  OW  HW  HW  OW  HW  HW  OW  HW  HW  OW  HW  HW  OW  
HW  HW  OW  HW  HW  OW  HW  HW  OW  HW  HW  OW  HW  HW  OW  HW  HW  OW  HW  HW  
OW  HW  HW  OW  HW  HW  OW  HW  HW  OW  HW  HW  OW  HW  HW  OW  HW  HW  OW  HW  
HW  OW  HW  HW  OW  HW  HW  OW  HW  HW  OW  HW  HW  OW  HW  HW  OW  HW  HW  OW  
HW  HW  OW  HW  HW  OW  HW  HW  OW  HW  HW  OW  HW  HW  OW  HW  HW  OW  HW  HW  
OW  HW  HW  OW  HW  HW  OW  HW  HW  OW  HW  HW  OW  HW  HW  OW  HW  HW  OW  HW  
HW  OW  HW  HW  OW  HW  HW  OW  HW  HW  OW  HW  HW  OW  HW  HW  OW  HW  HW  OW  
HW  HW  OW  HW  HW  OW  HW  HW  OW  HW  HW  OW  HW  HW  OW  HW  HW  OW  HW  HW  
OW  HW  HW  OW  HW  HW  OW  HW  HW  OW  HW  HW  OW  HW  HW  OW  HW  HW  OW  HW  
HW  OW  HW  HW  OW  HW  HW  OW  HW  HW  OW  HW  HW  OW  HW  HW  OW  HW  HW  OW  
HW  HW  OW  HW  HW  OW  HW  HW  OW  HW  HW  OW  HW  HW  OW  HW  HW  OW  HW  HW  
OW  HW  HW  OW  HW  HW  
%FLAG TREE_CHAIN_CLASSIFICATION                                                 
%FORMAT(20a4)                                                                   
BLA BLA BLA BLA BLA BLA M   E   M   E   3   E   E   3   E   E   B   E   B   E   
E   M   E   M   E   M   E   3   E   E   E   M   E   M   E   M   E   3   E   E   
E   M   E   M   E   M   E   3   E   3   E   E   E   S   E   M   E   M   E   M   
E   3   E   E   S   E   M   E   M   E   M   E   3   E   3   E   E   E   3   E   
E   3   E   E   E   M   E   M   E   M   E   3   E   E   E   M   E   M   E   M   
E   3   E   E   S   E   M   E   M   E   M   E   3   E   E   3   E   3   E   E   
E   3   E   E   E   M   E   M   E   M   E   3   E   E   B   B   E   B   E   B   
S   E   S   E   S   E   M   E   M   E   M   E   3   E   E   3   E   E   B   E   
B   E   E   M   E   M   E   M   E   3   E   E   3   E   3   E   E   E   3   E   
E   E   M   E   M   E   M   E   3   E   E   3   E   E   B   B   B   E   M   E   
E   E   E   M   E   M   E   3   E   E   B   E   B   E   E   M   E   M   E   M   
E   3   E   E   B   B   E   B   E   B   S   E   S   E   S   E   M   E   M   E   
M   E   3   E   E   E   M   E   BLA BLA BLA BLA BLA BLA BLA BLA BLA BLA BLA BLA 
M   E   M   E   3   E   E   B   S   E   S   E   B   E   B   E   M   E   M   E   
M   E   3   E   E   3   E   3   E   E   E   3   E   E   E   M   E   M   E   M   
E   3   E   E   E   M   E   M   E   M   E   E   M   E   M   E   M   E   3   E   
E   S   E   M   E   M   E   M   E   3   E   E   B   S   E   S   E   B   E   B   
E   M   E   M   E   M   E   3   E   E   3   E   3   E   E   E   3   E   E   E   
M   E   M   E   M   E   3   E   3   E   E   E   3   E   E   E   M   E   M   E   
M   E   3   E   E   3   E   E   B   B   B   E   M   E   E   E   E   M   E   M   
E   3   E   E   E   M   E   M   E   M   E   3   E   E   3   E   3   E   E   E   
3   E   E   E   M   E   M   E   M   E   3   E   E   B   B   E   B   E   B   S   
E   S   E   S   E   M   E   M   E   M   E   3   E   E   3   E   3   E   E   E   
3   E   E   E   M   E   M   E   M   E   3   E   3   E   E   E   3   E   E   E   
M   E   M   E   M   E   3   E   E   E   M   E   M   E   M   E   E   M   E   M   
E   M   E   3   E   E   3   E   E   B   B   B   E   M   E   E   E   E   M   E   
M   E   3   E   E   3   E   E   3   E   E   B   E   B   B   E   E   B   E   E   
M   E   M   E   M   E   E   M   E   M   E   M   E   3   E   E   B   B   E   B   
E   B   E   S   E   S   E   M   E   M   E   M   E   3   E   E   B   B   E   B   
E   B   E   S   E   S   E   M   E   M   E   M   E   3   E   E   B   B   E   B   
E   B   S   E   S   E   S   E   M   E   M   E   M   E   3   E   3   E   E   E   
S   E   M   E   BLA BLA BLA BLA BLA BLA BLA BLA BLA BLA BLA BLA M   E   M   E   
3   E   E   3   E   E   B   E   B   E   E   M   E   M   E   M   E   3   E   E   
E   M   E   M   E   M   E   3   E   E   E   M   E   M   E   M   E   3   E   3   
E   E   E   S   E   M   E   M   E   M   E   3   E   E   S   E   M   E   M   E   
M   E   3   E   3   E   E   E   3   E   E   3   E   E   E   M   E   M   E   M   
E   3   E   E   E   M   E   M   E   M   E   3   E   E   S   E   M   E   M   E   
M   E   3   E   E   3   E   3   E   E   E   3   E   E   E   M   E   M   E   M   
E   3   E   E   B   B   E   B   E   B   S   E   S   E   S   E   M   E   M   E   
M   E   3   E   E   3   E   E   B   E   B   E   E   M   E   M   E   M   E   3   
E   E   3   E   3   E   E   E   3   E   E   E   M   E   M   E   M   E   3   E   
E   3   E   E   B   B   B   E   M   E   E   E   E   M   E   M   E   3   E   E   
B   E   B   E   E   M   E   M   E   M   E   3   E   E   B   B   E   B   E   B   
S   E   S   E   S   E   M   E   M   E   M   E   3   E   E   E   M   E   BLA BLA 
BLA BLA BLA BLA BLA BLA BLA BLA BLA BLA M   E   M   E   3   E   E   B   S   E   
S   E   B   E   B   E   M   E   M   E   M   E   3   E   E   3   E   3   E   E   
E   3   E   E   E   M   E   M   E   M   E   3   E   E   E   M   E   M   E   M   
E   E   M   E   M   E   M   E   3   E   E   S   E   M   E   M   E   M   E   3   
E   E   B   S   E   S   E   B   E   B   E   M   E   M   E   M   E   3   E   E   
3   E   3   E   E   E   3   E   E   E   M   E   M   E   M   E   3   E   3   E   
E   E   3   E   E   E   M   E   M   E   M   E   3   E   E   3   E   E   B   B   
B   E   M   E   E   E   E   M   E   M   E   3   E   E   E   M   E   M   E   M   
E   3   E   E   3   E   3   E   E   E   3   E   E   E   M   E   M   E   M   E   
3   E   E   B   B   E   B   E   B   S   E   S   E   S   E   M   E   M   E   M   
E   3   E   E   3   E   3   E   E   E   3   E   E   E   M   E   M   E   M   E   
3   E   3   E   E   E   3   E   E   E   M   E   M   E   M   E   3   E   E   E   
M   E   M   E   M   E   E   M   E   M   E   M   E   3   E   E   3   E   E   B   
B   B   E   M   E   E   E   E   M   E   M   E   3   E   E   3   E   E   3   E   
E   B   E   B   B   E   E   B   E   E   M   E   M   E   M   E   E   M   E   M   
E   M   E   3   E   E   B   B   E   B   E   B   E   S   E   S   E   M   E   M   
E   M   E   3   E   E   B   B   E   B   E   B   E   S   E   S   E   M   E   M   
E   M   E   3   E   E   B   B   E   B   E   B   S   E   S   E   S   E   M   E   
M   E   M   E   3   E   3   E   E   E   S   E   M   E   BLA BLA BLA BLA BLA BLA 
BLA BLA BLA BLA BLA BLA M   E   M   E   3   E   E   3   E   E   B   E   B   E   
E   M   E   M   E   M   E   3   E   E   E   M   E   M   E   M   E   3   E   E   
E   M   E   M   E   M   E   3   E   3   E   E   E   S   E   M   E   M   E   M   
E   3   E   E   S   E   M   E   M   E   M   E   3   E   3   E   E   E   3   E   
E   3   E   E   E   M   E   M   E   M   E   3   E   E   E   M   E   M   E   M   
E   3   E   E   S   E   M   E   M   E   M   E   3   E   E   3   E   3   E   E   
E   3   E   E   E   M   E   M   E   M   E   3   E   E   B   B   E   B   E   B   
S   E   S   E   S   E   M   E   M   E   M   E   3   E   E   3   E   E   B   E   
B   E   E   M   E   M   E   M   E   3   E   E   3   E   3   E   E   E   3   E   
E   E   M   E   M   E   M   E   3   E   E   3   E   E   B   B   B   E   M   E   
E   E   E   M   E   M   E   3   E   E   B   E   B   E   E   M   E   M   E   M   
E   3   E   E   B   B   E   B   E   B   S   E   S   E   S   E   M   E   M   E   
M   E   3   E   E   E   M   E   BLA BLA BLA BLA BLA BLA BLA BLA BLA BLA BLA BLA 
M   E   M   E   3   E   E   B   S   E   S   E   B   E   B   E   M   E   M   E   
M   E   3   E   E   3   E   3   E   E   E   3   E   E   E   M   E   M   E   M   
E   3   E   E   E   M   E   M   E   M   E   E   M   E   M   E   M   E   3   E   
E   S   E   M   E   M   E   M   E   3   E   E   B   S   E   S   E   B   E   B   
E   M   E   M   E   M   E   3   E   E   3   E   3   E   E   E   3   E   E   E   
M   E   M   E   M   E   3   E   3   E   E   E   3   E   E   E   M   E   M   E   
M   E   3   E   E   3   E   E   B   B   B   E   M   E   E   E   E   M   E   M   
E   3   E   E   E   M   E   M   E   M   E   3   E   E   3   E   3   E   E   E   
3   E   E   E   M   E   M   E   M   E   3   E   E   B   B   E   B   E   B   S   
E   S   E   S   E   M   E   M   E   M   E   3   E   E   3   E   3   E   E   E   
3   E   E   E   M   E   M   E   M   E   3   E   3   E   E   E   3   E   E   E   
M   E   M   E   M   E   3   E   E   E   M   E   M   E   M   E   E   M   E   M   
E   M   E   3   E   E   3   E   E   B   B   B   E   M   E   E   E   E   M   E   
M   E   3   E   E   3   E   E   3   E   E   B   E   B   B   E   E   B   E   E   
M   E   M   E   M   E   E   M   E   M   E   M   E   3   E   E   B   B   E   B   
E   B   E   S   E   S   E   M   E   M   E   M   E   3   E   E   B   B   E   B   
E   B   E   S   E   S   E   M   E   M   E   M   E   3   E   E   B   B   E   B   
E   B   S   E   S   E   S   E   M   E   M   E   M   E   3   E   3   E   E   E   
S   E   M   E   BLA BLA BLA BLA BLA BLA BLA BLA BLA BLA BLA BLA M   E   M   E   
3   E   E   3   E   E   B   E   B   E   E   M   E   M   E   M   E   3   E   E   
E   M   E   M   E   M   E   3   E   E   E   M   E   M   E   M   E   3   E   3   
E   E   E   S   E   M   E   M   E   M   E   3   E   E   S   E   M   E   M   E   
M   E   3   E   3   E   E   E   3   E   E   3   E   E   E   M   E   M   E   M   
E   3   E   E   E   M   E   M   E   M   E   3   E   E   S   E   M   E   M   E   
M   E   3   E   E   3   E   3   E   E   E   3   E   E   E   M   E   M   E   M   
E   3   E   E   B   B   E   B   E   B   S   E   S   E   S   E   M   E   M   E   
M   E   3   E   E   3   E   E   B   E   B   E   E   M   E   M   E   M   E   3   
E   E   3   E   3   E   E   E   3   E   E   E   M   E   M   E   M   E   3   E   
E   3   E   E   B   B   B   E   M   E   E   E   E   M   E   M   E   3   E   E   
B   E   B   E   E   M   E   M   E   M   E   3   E   E   B   B   E   B   E   B   
S   E   S   E   S   E   M   E   M   E   M   E   3   E   E   E   M   E   BLA BLA 
BLA BLA BLA BLA BLA BLA BLA BLA BLA BLA M   E   M   E   3   E   E   B   S   E   
S   E   B   E   B   E   M   E   M   E   M   E   3   E   E   3   E   3   E   E   
E   3   E   E   E   M   E   M   E   M   E   3   E   E   E   M   E   M   E   M   
E   E   M   E   M   E   M   E   3   E   E   S   E   M   E   M   E   M   E   3   
E   E   B   S   E   S   E   B   E   B   E   M   E   M   E   M   E   3   E   E   
3   E   3   E   E   E   3   E   E   E   M   E   M   E   M   E   3   E   3   E   
E   E   3   E   E   E   M   E   M   E   M   E   3   E   E   3   E   E   B   B   
B   E   M   E   E   E   E   M   E   M   E   3   E   E   E   M   E   M   E   M   
E   3   E   E   3   E   3   E   E   E   3   E   E   E   M   E   M   E   M   E   
3   E   E   B   B   E   B   E   B   S   E   S   E   S   E   M   E   M   E   M   
E   3   E   E   3   E   3   E   E   E   3   E   E   E   M   E   M   E   M   E   
3   E   3   E   E   E   3   E   E   E   M   E   M   E   M   E   3   E   E   E   
M   E   M   E   M   E   E   M   E   M   E   M   E   3   E   E   3   E   E   B   
B   B   E   M   E   E   E   E   M   E   M   E   3   E   E   3   E   E   3   E   
E   B   E   B   B   E   E   B   E   E   M   E   M   E   M   E   E   M   E   M   
E   M   E   3   E   E   B   B   E   B   E   B   E   S   E   S   E   M   E   M   
E   M   E   3   E   E   B   B   E   B   E   B   E   S   E   S   E   M   E   M   
E   M   E   3   E   E   B   B   E   B   E   B   S   E   S   E   S   E   M   E   
M   E   M   E   3   E   3   E   E   E   S   E   M   E   BLA BLA BLA BLA BLA BLA 
BLA BLA BLA BLA BLA BLA BLA BLA BLA BLA BLA BLA BLA BLA BLA BLA BLA BLA BLA BLA 
BLA BLA BLA BLA BLA BLA BLA BLA BLA BLA BLA BLA BLA BLA BLA BLA BLA BLA BLA BLA 
BLA BLA BLA BLA BLA BLA BLA BLA BLA BLA BLA BLA BLA BLA BLA BLA BLA BLA BLA BLA 
BLA BLA BLA BLA BLA BLA BLA BLA BLA BLA BLA BLA BLA BLA BLA BLA BLA BLA BLA BLA 
BLA BLA BLA BLA BLA BLA BLA BLA BLA BLA BLA BLA BLA BLA BLA BLA BLA BLA BLA BLA 
BLA BLA BLA BLA BLA BLA BLA BLA BLA BLA BLA BLA BLA BLA BLA BLA BLA BLA BLA BLA 
BLA BLA BLA BLA BLA BLA BLA BLA BLA BLA BLA BLA BLA BLA BLA BLA BLA BLA BLA BLA 
BLA BLA BLA BLA BLA BLA BLA BLA BLA BLA BLA BLA BLA BLA BLA BLA BLA BLA BLA BLA 
BLA BLA BLA BLA BLA BLA BLA BLA BLA BLA BLA BLA BLA BLA BLA BLA BLA BLA BLA BLA 
BLA BLA BLA BLA BLA BLA BLA BLA BLA BLA BLA BLA BLA BLA BLA BLA BLA BLA BLA BLA 
BLA BLA BLA BLA BLA BLA BLA BLA BLA BLA BLA BLA BLA BLA BLA BLA BLA BLA BLA BLA 
BLA BLA BLA BLA BLA BLA BLA BLA BLA BLA BLA BLA BLA BLA BLA BLA BLA BLA BLA BLA 
BLA BLA BLA BLA BLA BLA BLA BLA BLA BLA BLA BLA BLA BLA BLA BLA BLA BLA BLA BLA 
BLA BLA BLA BLA BLA BLA BLA BLA BLA BLA BLA BLA BLA BLA BLA BLA BLA BLA BLA BLA 
BLA BLA BLA BLA BLA BLA BLA BLA BLA BLA BLA BLA BLA BLA BLA BLA BLA BLA BLA BLA 
BLA BLA BLA BLA BLA BLA BLA BLA BLA BLA BLA BLA BLA BLA BLA BLA BLA BLA BLA BLA 
BLA BLA BLA BLA BLA BLA BLA BLA BLA BLA BLA BLA BLA BLA BLA BLA BLA BLA BLA BLA 
BLA BLA BLA BLA BLA BLA BLA BLA BLA BLA BLA BLA BLA BLA BLA BLA BLA BLA BLA BLA 
BLA BLA BLA BLA BLA BLA BLA BLA BLA BLA BLA BLA BLA BLA BLA BLA BLA BLA BLA BLA 
BLA BLA BLA BLA BLA BLA BLA BLA BLA BLA BLA BLA BLA BLA BLA BLA BLA BLA BLA BLA 
BLA BLA BLA BLA BLA BLA BLA BLA BLA BLA BLA BLA BLA BLA BLA BLA BLA BLA BLA BLA 
BLA BLA BLA BLA BLA BLA BLA BLA BLA BLA BLA BLA BLA BLA BLA BLA BLA BLA BLA BLA 
BLA BLA BLA BLA BLA BLA BLA BLA BLA BLA BLA BLA BLA BLA BLA BLA BLA BLA BLA BLA 
BLA BLA BLA BLA BLA BLA BLA BLA BLA BLA BLA BLA BLA BLA BLA BLA BLA BLA BLA BLA 
BLA BLA BLA BLA BLA BLA BLA BLA BLA BLA BLA BLA BLA BLA BLA BLA BLA BLA BLA BLA 
BLA BLA BLA BLA BLA BLA BLA BLA BLA BLA BLA BLA BLA BLA BLA BLA BLA BLA BLA BLA 
BLA BLA BLA BLA BLA BLA BLA BLA BLA BLA BLA BLA BLA BLA BLA BLA BLA BLA BLA BLA 
BLA BLA BLA BLA BLA BLA BLA BLA BLA BLA BLA BLA BLA BLA BLA BLA BLA BLA BLA BLA 
BLA BLA BLA BLA BLA BLA BLA BLA BLA BLA BLA BLA BLA BLA BLA BLA BLA BLA BLA BLA 
BLA BLA BLA BLA BLA BLA BLA BLA BLA BLA BLA BLA BLA BLA BLA BLA BLA BLA BLA BLA 
BLA BLA BLA BLA BLA BLA BLA BLA BLA BLA BLA BLA BLA BLA BLA BLA BLA BLA BLA BLA 
BLA BLA BLA BLA BLA BLA BLA BLA BLA BLA BLA BLA BLA BLA BLA BLA BLA BLA BLA BLA 
BLA BLA BLA BLA BLA BLA BLA BLA BLA BLA BLA BLA BLA BLA BLA BLA BLA BLA BLA BLA 
BLA BLA BLA BLA BLA BLA BLA BLA BLA BLA BLA BLA BLA BLA BLA BLA BLA BLA BLA BLA 
BLA BLA BLA BLA BLA BLA BLA BLA BLA BLA BLA BLA BLA BLA BLA BLA BLA BLA BLA BLA 
BLA BLA BLA BLA BLA BLA BLA BLA BLA BLA BLA BLA BLA BLA BLA BLA BLA BLA BLA BLA 
BLA BLA BLA BLA BLA BLA BLA BLA BLA BLA BLA BLA BLA BLA BLA BLA BLA BLA BLA BLA 
BLA BLA BLA BLA BLA BLA BLA BLA BLA BLA BLA BLA BLA BLA BLA BLA BLA BLA BLA BLA 
BLA BLA BLA BLA BLA BLA BLA BLA BLA BLA BLA BLA BLA BLA BLA BLA BLA BLA BLA BLA 
BLA BLA BLA BLA BLA BLA BLA BLA BLA BLA BLA BLA BLA BLA BLA BLA BLA BLA BLA BLA 
BLA BLA BLA BLA BLA BLA BLA BLA BLA BLA BLA BLA BLA BLA BLA BLA BLA BLA BLA BLA 
BLA BLA BLA BLA BLA BLA BLA BLA BLA BLA BLA BLA BLA BLA BLA BLA BLA BLA BLA BLA 
BLA BLA BLA BLA BLA BLA BLA BLA BLA BLA BLA BLA BLA BLA BLA BLA BLA BLA BLA BLA 
BLA BLA BLA BLA BLA BLA BLA BLA BLA BLA BLA BLA BLA BLA BLA BLA BLA BLA BLA BLA 
BLA BLA BLA BLA BLA BLA BLA BLA BLA BLA BLA BLA BLA BLA BLA BLA BLA BLA BLA BLA 
BLA BLA BLA BLA BLA BLA BLA BLA BLA BLA BLA BLA BLA BLA BLA BLA BLA BLA BLA BLA 
BLA BLA BLA BLA BLA BLA BLA BLA BLA BLA BLA BLA BLA BLA BLA BLA BLA BLA BLA BLA 
BLA BLA BLA BLA BLA BLA BLA BLA BLA BLA BLA BLA BLA BLA BLA BLA BLA BLA BLA BLA 
BLA BLA BLA BLA BLA BLA BLA BLA BLA BLA BLA BLA BLA BLA BLA BLA BLA BLA BLA BLA 
BLA BLA BLA BLA BLA BLA BLA BLA BLA BLA BLA BLA BLA BLA BLA BLA BLA BLA BLA BLA 
BLA BLA BLA BLA BLA BLA BLA BLA BLA BLA BLA BLA BLA BLA BLA BLA BLA BLA BLA BLA 
BLA BLA BLA BLA BLA BLA BLA BLA BLA BLA BLA BLA BLA BLA BLA BLA BLA BLA BLA BLA 
BLA BLA BLA BLA BLA BLA BLA BLA BLA BLA BLA BLA BLA BLA BLA BLA BLA BLA BLA BLA 
BLA BLA BLA BLA BLA BLA BLA BLA BLA BLA BLA BLA BLA BLA BLA BLA BLA BLA BLA BLA 
BLA BLA BLA BLA BLA BLA BLA BLA BLA BLA BLA BLA BLA BLA BLA BLA BLA BLA BLA BLA 
BLA BLA BLA BLA BLA BLA BLA BLA BLA BLA BLA BLA BLA BLA BLA BLA BLA BLA BLA BLA 
BLA BLA BLA BLA BLA BLA BLA BLA BLA BLA BLA BLA BLA BLA BLA BLA BLA BLA BLA BLA 
BLA BLA BLA BLA BLA BLA BLA BLA BLA BLA BLA BLA BLA BLA BLA BLA BLA BLA BLA BLA 
BLA BLA BLA BLA BLA BLA BLA BLA BLA BLA BLA BLA BLA BLA BLA BLA BLA BLA BLA BLA 
BLA BLA BLA BLA BLA BLA BLA BLA BLA BLA BLA BLA BLA BLA BLA BLA BLA BLA BLA BLA 
BLA BLA BLA BLA BLA BLA BLA BLA BLA BLA BLA BLA BLA BLA BLA BLA BLA BLA BLA BLA 
BLA BLA BLA BLA BLA BLA BLA BLA BLA BLA BLA BLA BLA BLA BLA BLA BLA BLA BLA BLA 
BLA BLA BLA BLA BLA BLA BLA BLA BLA BLA BLA BLA BLA BLA BLA BLA BLA BLA BLA BLA 
BLA BLA BLA BLA BLA BLA BLA BLA BLA BLA BLA BLA BLA BLA BLA BLA BLA BLA BLA BLA 
BLA BLA BLA BLA BLA BLA BLA BLA BLA BLA BLA BLA BLA BLA BLA BLA BLA BLA BLA BLA 
BLA BLA BLA BLA BLA BLA BLA BLA BLA BLA BLA BLA BLA BLA BLA BLA BLA BLA BLA BLA 
BLA BLA BLA BLA BLA BLA BLA BLA BLA BLA BLA BLA BLA BLA BLA BLA BLA BLA BLA BLA 
BLA BLA BLA BLA BLA BLA BLA BLA BLA BLA BLA BLA BLA BLA BLA BLA BLA BLA BLA BLA 
BLA BLA BLA BLA BLA BLA BLA BLA BLA BLA BLA BLA BLA BLA BLA BLA BLA BLA BLA BLA 
BLA BLA BLA BLA BLA BLA BLA BLA BLA BLA BLA BLA BLA BLA BLA BLA BLA BLA BLA BLA 
BLA BLA BLA BLA BLA BLA BLA BLA BLA BLA BLA BLA BLA BLA BLA BLA BLA BLA BLA BLA 
BLA BLA BLA BLA BLA BLA BLA BLA BLA BLA BLA BLA BLA BLA BLA BLA BLA BLA BLA BLA 
BLA BLA BLA BLA BLA BLA BLA BLA BLA BLA BLA BLA BLA BLA BLA BLA BLA BLA BLA BLA 
BLA BLA BLA BLA BLA BLA BLA BLA BLA BLA BLA BLA BLA BLA BLA BLA BLA BLA BLA BLA 
BLA BLA BLA BLA BLA BLA BLA BLA BLA BLA BLA BLA BLA BLA BLA BLA BLA BLA BLA BLA 
BLA BLA BLA BLA BLA BLA BLA BLA BLA BLA BLA BLA BLA BLA BLA BLA BLA BLA BLA BLA 
BLA BLA BLA BLA BLA BLA BLA BLA BLA BLA BLA BLA BLA BLA BLA BLA BLA BLA BLA BLA 
BLA BLA BLA BLA BLA BLA BLA BLA BLA BLA BLA BLA BLA BLA BLA BLA BLA BLA BLA BLA 
BLA BLA BLA BLA BLA BLA BLA BLA BLA BLA BLA BLA BLA BLA BLA BLA BLA BLA BLA BLA 
BLA BLA BLA BLA BLA BLA BLA BLA BLA BLA BLA BLA BLA BLA BLA BLA BLA BLA BLA BLA 
BLA BLA BLA BLA BLA BLA BLA BLA BLA BLA BLA BLA BLA BLA BLA BLA BLA BLA BLA BLA 
BLA BLA BLA BLA BLA BLA BLA BLA BLA BLA BLA BLA BLA BLA BLA BLA BLA BLA BLA BLA 
BLA BLA BLA BLA BLA BLA BLA BLA BLA BLA BLA BLA BLA BLA BLA BLA BLA BLA BLA BLA 
BLA BLA BLA BLA BLA BLA BLA BLA BLA BLA BLA BLA BLA BLA BLA BLA BLA BLA BLA BLA 
BLA BLA BLA BLA BLA BLA BLA BLA BLA BLA BLA BLA BLA BLA BLA BLA BLA BLA BLA BLA 
BLA BLA BLA BLA BLA BLA BLA BLA BLA BLA BLA BLA BLA BLA BLA BLA BLA BLA BLA BLA 
BLA BLA BLA BLA BLA BLA BLA BLA BLA BLA BLA BLA BLA BLA BLA BLA BLA BLA BLA BLA 
BLA BLA BLA BLA BLA BLA BLA BLA BLA BLA BLA BLA BLA BLA BLA BLA BLA BLA BLA BLA 
BLA BLA BLA BLA BLA BLA BLA BLA BLA BLA BLA BLA BLA BLA BLA BLA BLA BLA BLA BLA 
BLA BLA BLA BLA BLA BLA BLA BLA BLA BLA BLA BLA BLA BLA BLA BLA BLA BLA BLA BLA 
BLA BLA BLA BLA BLA BLA BLA BLA BLA BLA BLA BLA BLA BLA BLA BLA BLA BLA BLA BLA 
BLA BLA BLA BLA BLA BLA BLA BLA BLA BLA BLA BLA BLA BLA BLA BLA BLA BLA BLA BLA 
BLA BLA BLA BLA BLA BLA BLA BLA BLA BLA BLA BLA BLA BLA BLA BLA BLA BLA BLA BLA 
BLA BLA BLA BLA BLA BLA BLA BLA BLA BLA BLA BLA BLA BLA BLA BLA BLA BLA BLA BLA 
BLA BLA BLA BLA BLA BLA BLA BLA BLA BLA BLA BLA BLA BLA BLA BLA BLA BLA BLA BLA 
BLA BLA BLA BLA BLA BLA BLA BLA BLA BLA BLA BLA BLA BLA BLA BLA BLA BLA BLA BLA 
BLA BLA BLA BLA BLA BLA BLA BLA BLA BLA BLA BLA BLA BLA BLA BLA BLA BLA BLA BLA 
BLA BLA BLA BLA BLA BLA BLA BLA BLA BLA BLA BLA BLA BLA BLA BLA BLA BLA BLA BLA 
BLA BLA BLA BLA BLA BLA BLA BLA BLA BLA BLA BLA BLA BLA BLA BLA BLA BLA BLA BLA 
BLA BLA BLA BLA BLA BLA BLA BLA BLA BLA BLA BLA BLA BLA BLA BLA BLA BLA BLA BLA 
BLA BLA BLA BLA BLA BLA BLA BLA BLA BLA BLA BLA BLA BLA BLA BLA BLA BLA BLA BLA 
BLA BLA BLA BLA BLA BLA BLA BLA BLA BLA BLA BLA BLA BLA BLA BLA BLA BLA BLA BLA 
BLA BLA BLA BLA BLA BLA BLA BLA BLA BLA BLA BLA BLA BLA BLA BLA BLA BLA BLA BLA 
BLA BLA BLA BLA BLA BLA BLA BLA BLA BLA BLA BLA BLA BLA BLA BLA BLA BLA BLA BLA 
BLA BLA BLA BLA BLA BLA BLA BLA BLA BLA BLA BLA BLA BLA BLA BLA BLA BLA BLA BLA 
BLA BLA BLA BLA BLA BLA BLA BLA BLA BLA BLA BLA BLA BLA BLA BLA BLA BLA BLA BLA 
BLA BLA BLA BLA BLA BLA BLA BLA BLA BLA BLA BLA BLA BLA BLA BLA BLA BLA BLA BLA 
BLA BLA BLA BLA BLA BLA BLA BLA BLA BLA BLA BLA BLA BLA BLA BLA BLA BLA BLA BLA 
BLA BLA BLA BLA BLA BLA BLA BLA BLA BLA BLA BLA BLA BLA BLA BLA BLA BLA BLA BLA 
BLA BLA BLA BLA BLA BLA BLA BLA BLA BLA BLA BLA BLA BLA BLA BLA BLA BLA BLA BLA 
BLA BLA BLA BLA BLA BLA BLA BLA BLA BLA BLA BLA BLA BLA BLA BLA BLA BLA BLA BLA 
BLA BLA BLA BLA BLA BLA BLA BLA BLA BLA BLA BLA BLA BLA BLA BLA BLA BLA BLA BLA 
BLA BLA BLA BLA BLA BLA BLA BLA BLA BLA BLA BLA BLA BLA BLA BLA BLA BLA BLA BLA 
BLA BLA BLA BLA BLA BLA BLA BLA BLA BLA BLA BLA BLA BLA BLA BLA BLA BLA BLA BLA 
BLA BLA BLA BLA BLA BLA BLA BLA BLA BLA BLA BLA BLA BLA BLA BLA BLA BLA BLA BLA 
BLA BLA BLA BLA BLA BLA BLA BLA BLA BLA BLA BLA BLA BLA BLA BLA BLA BLA BLA BLA 
BLA BLA BLA BLA BLA BLA BLA BLA BLA BLA BLA BLA BLA BLA BLA BLA BLA BLA BLA BLA 
BLA BLA BLA BLA BLA BLA BLA BLA BLA BLA BLA BLA BLA BLA BLA BLA BLA BLA BLA BLA 
BLA BLA BLA BLA BLA BLA BLA BLA BLA BLA BLA BLA BLA BLA BLA BLA BLA BLA BLA BLA 
BLA BLA BLA BLA BLA BLA BLA BLA BLA BLA BLA BLA BLA BLA BLA BLA BLA BLA BLA BLA 
BLA BLA BLA BLA BLA BLA BLA BLA BLA BLA BLA BLA BLA BLA BLA BLA BLA BLA BLA BLA 
BLA BLA BLA BLA BLA BLA BLA BLA BLA BLA BLA BLA BLA BLA BLA BLA BLA BLA BLA BLA 
BLA BLA BLA BLA BLA BLA BLA BLA BLA BLA BLA BLA BLA BLA BLA BLA BLA BLA BLA BLA 
BLA BLA BLA BLA BLA BLA BLA BLA BLA BLA BLA BLA BLA BLA BLA BLA BLA BLA BLA BLA 
BLA BLA BLA BLA BLA BLA BLA BLA BLA BLA BLA BLA BLA BLA BLA BLA BLA BLA BLA BLA 
BLA BLA BLA BLA BLA BLA BLA BLA BLA BLA BLA BLA BLA BLA BLA BLA BLA BLA BLA BLA 
BLA BLA BLA BLA BLA BLA BLA BLA BLA BLA BLA BLA BLA BLA BLA BLA BLA BLA BLA BLA 
BLA BLA BLA BLA BLA BLA BLA BLA BLA BLA BLA BLA BLA BLA BLA BLA BLA BLA BLA BLA 
BLA BLA BLA BLA BLA BLA BLA BLA BLA BLA BLA BLA BLA BLA BLA BLA BLA BLA BLA BLA 
BLA BLA BLA BLA BLA BLA BLA BLA BLA BLA BLA BLA BLA BLA BLA BLA BLA BLA BLA BLA 
BLA BLA BLA BLA BLA BLA BLA BLA BLA BLA BLA BLA BLA BLA BLA BLA BLA BLA BLA BLA 
BLA BLA BLA BLA BLA BLA BLA BLA BLA BLA BLA BLA BLA BLA BLA BLA BLA BLA BLA BLA 
BLA BLA BLA BLA BLA BLA BLA BLA BLA BLA BLA BLA BLA BLA BLA BLA BLA BLA BLA BLA 
BLA BLA BLA BLA BLA BLA BLA BLA BLA BLA BLA BLA BLA BLA BLA BLA BLA BLA BLA BLA 
BLA BLA BLA BLA BLA BLA BLA BLA BLA BLA BLA BLA BLA BLA BLA BLA BLA BLA BLA BLA 
BLA BLA BLA BLA BLA BLA BLA BLA BLA BLA BLA BLA BLA BLA BLA BLA BLA BLA BLA BLA 
BLA BLA BLA BLA BLA BLA BLA BLA BLA BLA BLA BLA BLA BLA BLA BLA BLA BLA BLA BLA 
BLA BLA BLA BLA BLA BLA BLA BLA BLA BLA BLA BLA BLA BLA BLA BLA BLA BLA BLA BLA 
BLA BLA BLA BLA BLA BLA BLA BLA BLA BLA BLA BLA BLA BLA BLA BLA BLA BLA BLA BLA 
BLA BLA BLA BLA BLA BLA BLA BLA BLA BLA BLA BLA BLA BLA BLA BLA BLA BLA BLA BLA 
BLA BLA BLA BLA BLA BLA BLA BLA BLA BLA BLA BLA BLA BLA BLA BLA BLA BLA BLA BLA 
BLA BLA BLA BLA BLA BLA BLA BLA BLA BLA BLA BLA BLA BLA BLA BLA BLA BLA BLA BLA 
BLA BLA BLA BLA BLA BLA BLA BLA BLA BLA BLA BLA BLA BLA BLA BLA BLA BLA BLA BLA 
BLA BLA BLA BLA BLA BLA BLA BLA BLA BLA BLA BLA BLA BLA BLA BLA BLA BLA BLA BLA 
BLA BLA BLA BLA BLA BLA BLA BLA BLA BLA BLA BLA BLA BLA BLA BLA BLA BLA BLA BLA 
BLA BLA BLA BLA BLA BLA BLA BLA BLA BLA BLA BLA BLA BLA BLA BLA BLA BLA BLA BLA 
BLA BLA BLA BLA BLA BLA BLA BLA BLA BLA BLA BLA BLA BLA BLA BLA BLA BLA BLA BLA 
BLA BLA BLA BLA BLA BLA BLA BLA BLA BLA BLA BLA BLA BLA BLA BLA BLA BLA BLA BLA 
BLA BLA BLA BLA BLA BLA BLA BLA BLA BLA BLA BLA BLA BLA BLA BLA BLA BLA BLA BLA 
BLA BLA BLA BLA BLA BLA BLA BLA BLA BLA BLA BLA BLA BLA BLA BLA BLA BLA BLA BLA 
BLA BLA BLA BLA BLA BLA BLA BLA BLA BLA BLA BLA BLA BLA BLA BLA BLA BLA BLA BLA 
BLA BLA BLA BLA BLA BLA BLA BLA BLA BLA BLA BLA BLA BLA BLA BLA BLA BLA BLA BLA 
BLA BLA BLA BLA BLA BLA BLA BLA BLA BLA BLA BLA BLA BLA BLA BLA BLA BLA BLA BLA 
BLA BLA BLA BLA BLA BLA BLA BLA BLA BLA BLA BLA BLA BLA BLA BLA BLA BLA BLA BLA 
BLA BLA BLA BLA BLA BLA BLA BLA BLA BLA BLA BLA BLA BLA BLA BLA BLA BLA BLA BLA 
BLA BLA BLA BLA BLA BLA BLA BLA BLA BLA BLA BLA BLA BLA BLA BLA BLA BLA BLA BLA 
BLA BLA BLA BLA BLA BLA BLA BLA BLA BLA BLA BLA BLA BLA BLA BLA BLA BLA BLA BLA 
BLA BLA BLA BLA BLA BLA BLA BLA BLA BLA BLA BLA BLA BLA BLA BLA BLA BLA BLA BLA 
BLA BLA BLA BLA BLA BLA BLA BLA BLA BLA BLA BLA BLA BLA BLA BLA BLA BLA BLA BLA 
BLA BLA BLA BLA BLA BLA BLA BLA BLA BLA BLA BLA BLA BLA BLA BLA BLA BLA BLA BLA 
BLA BLA BLA BLA BLA BLA BLA BLA BLA BLA BLA BLA BLA BLA BLA BLA BLA BLA BLA BLA 
BLA BLA BLA BLA BLA BLA BLA BLA BLA BLA BLA BLA BLA BLA BLA BLA BLA BLA BLA BLA 
BLA BLA BLA BLA BLA BLA BLA BLA BLA BLA BLA BLA BLA BLA BLA BLA BLA BLA BLA BLA 
BLA BLA BLA BLA BLA BLA BLA BLA BLA BLA BLA BLA BLA BLA BLA BLA BLA BLA BLA BLA 
BLA BLA BLA BLA BLA BLA BLA BLA BLA BLA BLA BLA BLA BLA BLA BLA BLA BLA BLA BLA 
BLA BLA BLA BLA BLA BLA BLA BLA BLA BLA BLA BLA BLA BLA BLA BLA BLA BLA BLA BLA 
BLA BLA BLA BLA BLA BLA BLA BLA BLA BLA BLA BLA BLA BLA BLA BLA BLA BLA BLA BLA 
BLA BLA BLA BLA BLA BLA BLA BLA BLA BLA BLA BLA BLA BLA BLA BLA BLA BLA BLA BLA 
BLA BLA BLA BLA BLA BLA BLA BLA BLA BLA BLA BLA BLA BLA BLA BLA BLA BLA BLA BLA 
BLA BLA BLA BLA BLA BLA BLA BLA BLA BLA BLA BLA BLA BLA BLA BLA BLA BLA BLA BLA 
BLA BLA BLA BLA BLA BLA BLA BLA BLA BLA BLA BLA BLA BLA BLA BLA BLA BLA BLA BLA 
BLA BLA BLA BLA BLA BLA BLA BLA BLA BLA BLA BLA BLA BLA BLA BLA BLA BLA BLA BLA 
BLA BLA BLA BLA BLA BLA BLA BLA BLA BLA BLA BLA BLA BLA BLA BLA BLA BLA BLA BLA 
BLA BLA BLA BLA BLA BLA BLA BLA BLA BLA BLA BLA BLA BLA BLA BLA BLA BLA BLA BLA 
BLA BLA BLA BLA BLA BLA BLA BLA BLA BLA BLA BLA BLA BLA BLA BLA BLA BLA BLA BLA 
BLA BLA BLA BLA BLA BLA BLA BLA BLA BLA BLA BLA BLA BLA BLA BLA BLA BLA BLA BLA 
BLA BLA BLA BLA BLA BLA BLA BLA BLA BLA BLA BLA BLA BLA BLA BLA BLA BLA BLA BLA 
BLA BLA BLA BLA BLA BLA BLA BLA BLA BLA BLA BLA BLA BLA BLA BLA BLA BLA BLA BLA 
BLA BLA BLA BLA BLA BLA BLA BLA BLA BLA BLA BLA BLA BLA BLA BLA BLA BLA BLA BLA 
BLA BLA BLA BLA BLA BLA BLA BLA BLA BLA BLA BLA BLA BLA BLA BLA BLA BLA BLA BLA 
BLA BLA BLA BLA BLA BLA BLA BLA BLA BLA BLA BLA BLA BLA BLA BLA BLA BLA BLA BLA 
BLA BLA BLA BLA BLA BLA BLA BLA BLA BLA BLA BLA BLA BLA BLA BLA BLA BLA BLA BLA 
BLA BLA BLA BLA BLA BLA BLA BLA BLA BLA BLA BLA BLA BLA BLA BLA BLA BLA BLA BLA 
BLA BLA BLA BLA BLA BLA BLA BLA BLA BLA BLA BLA BLA BLA BLA BLA BLA BLA BLA BLA 
BLA BLA BLA BLA BLA BLA BLA BLA BLA BLA BLA BLA BLA BLA BLA BLA BLA BLA BLA BLA 
BLA BLA BLA BLA BLA BLA BLA BLA BLA BLA BLA BLA BLA BLA BLA BLA BLA BLA BLA BLA 
BLA BLA BLA BLA BLA BLA BLA BLA BLA BLA BLA BLA BLA BLA BLA BLA BLA BLA BLA BLA 
BLA BLA BLA BLA BLA BLA BLA BLA BLA BLA BLA BLA BLA BLA BLA BLA BLA BLA BLA BLA 
BLA BLA BLA BLA BLA BLA BLA BLA BLA BLA BLA BLA BLA BLA BLA BLA BLA BLA BLA BLA 
BLA BLA BLA BLA BLA BLA BLA BLA BLA BLA BLA BLA BLA BLA BLA BLA BLA BLA BLA BLA 
BLA BLA BLA BLA BLA BLA BLA BLA BLA BLA BLA BLA BLA BLA BLA BLA BLA BLA BLA BLA 
BLA BLA BLA BLA BLA BLA BLA BLA BLA BLA BLA BLA BLA BLA BLA BLA BLA BLA BLA BLA 
BLA BLA BLA BLA BLA BLA BLA BLA BLA BLA BLA BLA BLA BLA BLA BLA BLA BLA BLA BLA 
BLA BLA BLA BLA BLA BLA BLA BLA BLA BLA BLA BLA BLA BLA BLA BLA BLA BLA BLA BLA 
BLA BLA BLA BLA BLA BLA BLA BLA BLA BLA BLA BLA BLA BLA BLA BLA BLA BLA BLA BLA 
BLA BLA BLA BLA BLA BLA BLA BLA BLA BLA BLA BLA BLA BLA BLA BLA BLA BLA BLA BLA 
BLA BLA BLA BLA BLA BLA BLA BLA BLA BLA BLA BLA BLA BLA BLA BLA BLA BLA BLA BLA 
BLA BLA BLA BLA BLA BLA BLA BLA BLA BLA BLA BLA BLA BLA BLA BLA BLA BLA BLA BLA 
BLA BLA BLA BLA BLA BLA BLA BLA BLA BLA BLA BLA BLA BLA BLA BLA BLA BLA BLA BLA 
BLA BLA BLA BLA BLA BLA BLA BLA BLA BLA BLA BLA BLA BLA BLA BLA BLA BLA BLA BLA 
BLA BLA BLA BLA BLA BLA BLA BLA BLA BLA BLA BLA BLA BLA BLA BLA BLA BLA BLA BLA 
BLA BLA BLA BLA BLA BLA BLA BLA BLA BLA BLA BLA BLA BLA BLA BLA BLA BLA BLA BLA 
BLA BLA BLA BLA BLA BLA BLA BLA BLA BLA BLA BLA BLA BLA BLA BLA BLA BLA BLA BLA 
BLA BLA BLA BLA BLA BLA BLA BLA BLA BLA BLA BLA BLA BLA BLA BLA BLA BLA BLA BLA 
BLA BLA BLA BLA BLA BLA BLA BLA BLA BLA BLA BLA BLA BLA BLA BLA BLA BLA BLA BLA 
BLA BLA BLA BLA BLA BLA BLA BLA BLA BLA BLA BLA BLA BLA BLA BLA BLA BLA BLA BLA 
BLA BLA BLA BLA BLA BLA BLA BLA BLA BLA BLA BLA BLA BLA BLA BLA BLA BLA BLA BLA 
BLA BLA BLA BLA BLA BLA BLA BLA BLA BLA BLA BLA BLA BLA BLA BLA BLA BLA BLA BLA 
BLA BLA BLA BLA BLA BLA BLA BLA BLA BLA BLA BLA BLA BLA BLA BLA BLA BLA BLA BLA 
BLA BLA BLA BLA BLA BLA BLA BLA BLA BLA BLA BLA BLA BLA BLA BLA BLA BLA BLA BLA 
BLA BLA BLA BLA BLA BLA BLA BLA BLA BLA BLA BLA BLA BLA BLA BLA BLA BLA BLA BLA 
BLA BLA BLA BLA BLA BLA BLA BLA BLA BLA BLA BLA BLA BLA BLA BLA BLA BLA BLA BLA 
BLA BLA BLA BLA BLA BLA BLA BLA BLA BLA BLA BLA BLA BLA BLA BLA BLA BLA BLA BLA 
BLA BLA BLA BLA BLA BLA BLA BLA BLA BLA BLA BLA BLA BLA BLA BLA BLA BLA BLA BLA 
BLA BLA BLA BLA BLA BLA BLA BLA BLA BLA BLA BLA BLA BLA BLA BLA BLA BLA BLA BLA 
BLA BLA BLA BLA BLA BLA BLA BLA BLA BLA BLA BLA BLA BLA BLA BLA BLA BLA BLA BLA 
BLA BLA BLA BLA BLA BLA BLA BLA BLA BLA BLA BLA BLA BLA BLA BLA BLA BLA BLA BLA 
BLA BLA BLA BLA BLA BLA BLA BLA BLA BLA BLA BLA BLA BLA BLA BLA BLA BLA BLA BLA 
BLA BLA BLA BLA BLA BLA BLA BLA BLA BLA BLA BLA BLA BLA BLA BLA BLA BLA BLA BLA 
BLA BLA BLA BLA BLA BLA BLA BLA BLA BLA BLA BLA BLA BLA BLA BLA BLA BLA BLA BLA 
BLA BLA BLA BLA BLA BLA BLA BLA BLA BLA BLA BLA BLA BLA BLA BLA BLA BLA BLA BLA 
BLA BLA BLA BLA BLA BLA BLA BLA BLA BLA BLA BLA BLA BLA BLA BLA BLA BLA BLA BLA 
BLA BLA BLA BLA BLA BLA BLA BLA BLA BLA BLA BLA BLA BLA BLA BLA BLA BLA BLA BLA 
BLA BLA BLA BLA BLA BLA BLA BLA BLA BLA BLA BLA BLA BLA BLA BLA BLA BLA BLA BLA 
BLA BLA BLA BLA BLA BLA BLA BLA BLA BLA BLA BLA BLA BLA BLA BLA BLA BLA BLA BLA 
BLA BLA BLA BLA BLA BLA BLA BLA BLA BLA BLA BLA BLA BLA BLA BLA BLA BLA BLA BLA 
BLA BLA BLA BLA BLA BLA BLA BLA BLA BLA BLA BLA BLA BLA BLA BLA BLA BLA BLA BLA 
BLA BLA BLA BLA BLA BLA BLA BLA BLA BLA BLA BLA BLA BLA BLA BLA BLA BLA BLA BLA 
BLA BLA BLA BLA BLA BLA BLA BLA BLA BLA BLA BLA BLA BLA BLA BLA BLA BLA BLA BLA 
BLA BLA BLA BLA BLA BLA BLA BLA BLA BLA BLA BLA BLA BLA BLA BLA BLA BLA BLA BLA 
BLA BLA BLA BLA BLA BLA BLA BLA BLA BLA BLA BLA BLA BLA BLA BLA BLA BLA BLA BLA 
BLA BLA BLA BLA BLA BLA BLA BLA BLA BLA BLA BLA BLA BLA BLA BLA BLA BLA BLA BLA 
BLA BLA BLA BLA BLA BLA BLA BLA BLA BLA BLA BLA BLA BLA BLA BLA BLA BLA BLA BLA 
BLA BLA BLA BLA BLA BLA BLA BLA BLA BLA BLA BLA BLA BLA BLA BLA BLA BLA BLA BLA 
BLA BLA BLA BLA BLA BLA BLA BLA BLA BLA BLA BLA BLA BLA BLA BLA BLA BLA BLA BLA 
BLA BLA BLA BLA BLA BLA BLA BLA BLA BLA BLA BLA BLA BLA BLA BLA BLA BLA BLA BLA 
BLA BLA BLA BLA BLA BLA BLA BLA BLA BLA BLA BLA BLA BLA BLA BLA BLA BLA BLA BLA 
BLA BLA BLA BLA BLA BLA BLA BLA BLA BLA BLA BLA BLA BLA BLA BLA BLA BLA BLA BLA 
BLA BLA BLA BLA BLA BLA BLA BLA BLA BLA BLA BLA BLA BLA BLA BLA BLA BLA BLA BLA 
BLA BLA BLA BLA BLA BLA BLA BLA BLA BLA BLA BLA BLA BLA BLA BLA BLA BLA BLA BLA 
BLA BLA BLA BLA BLA BLA BLA BLA BLA BLA BLA BLA BLA BLA BLA BLA BLA BLA BLA BLA 
BLA BLA BLA BLA BLA BLA BLA BLA BLA BLA BLA BLA BLA BLA BLA BLA BLA BLA BLA BLA 
BLA BLA BLA BLA BLA BLA BLA BLA BLA BLA BLA BLA BLA BLA BLA BLA BLA BLA BLA BLA 
BLA BLA BLA BLA BLA BLA BLA BLA BLA BLA BLA BLA BLA BLA BLA BLA BLA BLA BLA BLA 
BLA BLA BLA BLA BLA BLA BLA BLA BLA BLA BLA BLA BLA BLA BLA BLA BLA BLA BLA BLA 
BLA BLA BLA BLA BLA BLA BLA BLA BLA BLA BLA BLA BLA BLA BLA BLA BLA BLA BLA BLA 
BLA BLA BLA BLA BLA BLA BLA BLA BLA BLA BLA BLA BLA BLA BLA BLA BLA BLA BLA BLA 
BLA BLA BLA BLA BLA BLA BLA BLA BLA BLA BLA BLA BLA BLA BLA BLA BLA BLA BLA BLA 
BLA BLA BLA BLA BLA BLA BLA BLA BLA BLA BLA BLA BLA BLA BLA BLA BLA BLA BLA BLA 
BLA BLA BLA BLA BLA BLA BLA BLA BLA BLA BLA BLA BLA BLA BLA BLA BLA BLA BLA BLA 
BLA BLA BLA BLA BLA BLA BLA BLA BLA BLA BLA BLA BLA BLA BLA BLA BLA BLA BLA BLA 
BLA BLA BLA BLA BLA BLA BLA BLA BLA BLA BLA BLA BLA BLA BLA BLA BLA BLA BLA BLA 
BLA BLA BLA BLA BLA BLA BLA BLA BLA BLA BLA BLA BLA BLA BLA BLA BLA BLA BLA BLA 
BLA BLA BLA BLA BLA BLA BLA BLA BLA BLA BLA BLA BLA BLA BLA BLA BLA BLA BLA BLA 
BLA BLA BLA BLA BLA BLA BLA BLA BLA BLA BLA BLA BLA BLA BLA BLA BLA BLA BLA BLA 
BLA BLA BLA BLA BLA BLA BLA BLA BLA BLA BLA BLA BLA BLA BLA BLA BLA BLA BLA BLA 
BLA BLA BLA BLA BLA BLA BLA BLA BLA BLA BLA BLA BLA BLA BLA BLA BLA BLA BLA BLA 
BLA BLA BLA BLA BLA BLA BLA BLA BLA BLA BLA BLA BLA BLA BLA BLA BLA BLA BLA BLA 
BLA BLA BLA BLA BLA BLA BLA BLA BLA BLA BLA BLA BLA BLA BLA BLA BLA BLA BLA BLA 
BLA BLA BLA BLA BLA BLA BLA BLA BLA BLA BLA BLA BLA BLA BLA BLA BLA BLA BLA BLA 
BLA BLA BLA BLA BLA BLA BLA BLA BLA BLA BLA BLA BLA BLA BLA BLA BLA BLA BLA BLA 
BLA BLA BLA BLA BLA BLA BLA BLA BLA BLA BLA BLA BLA BLA BLA BLA BLA BLA BLA BLA 
BLA BLA BLA BLA BLA BLA BLA BLA BLA BLA BLA BLA BLA BLA BLA BLA BLA BLA BLA BLA 
BLA BLA BLA BLA BLA BLA BLA BLA BLA BLA BLA BLA BLA BLA BLA BLA BLA BLA BLA BLA 
BLA BLA BLA BLA BLA BLA BLA BLA BLA BLA BLA BLA BLA BLA BLA BLA BLA BLA BLA BLA 
BLA BLA BLA BLA BLA BLA BLA BLA BLA BLA BLA BLA BLA BLA BLA BLA BLA BLA BLA BLA 
BLA BLA BLA BLA BLA BLA BLA BLA BLA BLA BLA BLA BLA BLA BLA BLA BLA BLA BLA BLA 
BLA BLA BLA BLA BLA BLA BLA BLA BLA BLA BLA BLA BLA BLA BLA BLA BLA BLA BLA BLA 
BLA BLA BLA BLA BLA BLA BLA BLA BLA BLA BLA BLA BLA BLA BLA BLA BLA BLA BLA BLA 
BLA BLA BLA BLA BLA BLA BLA BLA BLA BLA BLA BLA BLA BLA BLA BLA BLA BLA BLA BLA 
BLA BLA BLA BLA BLA BLA BLA BLA BLA BLA BLA BLA BLA BLA BLA BLA BLA BLA BLA BLA 
BLA BLA BLA BLA BLA BLA BLA BLA BLA BLA BLA BLA BLA BLA BLA BLA BLA BLA BLA BLA 
BLA BLA BLA BLA BLA BLA BLA BLA BLA BLA BLA BLA BLA BLA BLA BLA BLA BLA BLA BLA 
BLA BLA BLA BLA BLA BLA BLA BLA BLA BLA BLA BLA BLA BLA BLA BLA BLA BLA BLA BLA 
BLA BLA BLA BLA BLA BLA BLA BLA BLA BLA BLA BLA BLA BLA BLA BLA BLA BLA BLA BLA 
BLA BLA BLA BLA BLA BLA BLA BLA BLA BLA BLA BLA BLA BLA BLA BLA BLA BLA BLA BLA 
BLA BLA BLA BLA BLA BLA BLA BLA BLA BLA BLA BLA BLA BLA BLA BLA BLA BLA BLA BLA 
BLA BLA BLA BLA BLA BLA BLA BLA BLA BLA BLA BLA BLA BLA BLA BLA BLA BLA BLA BLA 
BLA BLA BLA BLA BLA BLA BLA BLA BLA BLA BLA BLA BLA BLA BLA BLA BLA BLA BLA BLA 
BLA BLA BLA BLA BLA BLA BLA BLA BLA BLA BLA BLA BLA BLA BLA BLA BLA BLA BLA BLA 
BLA BLA BLA BLA BLA BLA BLA BLA BLA BLA BLA BLA BLA BLA BLA BLA BLA BLA BLA BLA 
BLA BLA BLA BLA BLA BLA BLA BLA BLA BLA BLA BLA BLA BLA BLA BLA BLA BLA BLA BLA 
BLA BLA BLA BLA BLA BLA BLA BLA BLA BLA BLA BLA BLA BLA BLA BLA BLA BLA BLA BLA 
BLA BLA BLA BLA BLA BLA BLA BLA BLA BLA BLA BLA BLA BLA BLA BLA BLA BLA BLA BLA 
BLA BLA BLA BLA BLA BLA BLA BLA BLA BLA BLA BLA BLA BLA BLA BLA BLA BLA BLA BLA 
BLA BLA BLA BLA BLA BLA BLA BLA BLA BLA BLA BLA BLA BLA BLA BLA BLA BLA BLA BLA 
BLA BLA BLA BLA BLA BLA BLA BLA BLA BLA BLA BLA BLA BLA BLA BLA BLA BLA BLA BLA 
BLA BLA BLA BLA BLA BLA BLA BLA BLA BLA BLA BLA BLA BLA BLA BLA BLA BLA BLA BLA 
BLA BLA BLA BLA BLA BLA BLA BLA BLA BLA BLA BLA BLA BLA BLA BLA BLA BLA BLA BLA 
BLA BLA BLA BLA BLA BLA BLA BLA BLA BLA BLA BLA BLA BLA BLA BLA BLA BLA BLA BLA 
BLA BLA BLA BLA BLA BLA BLA BLA BLA BLA BLA BLA BLA BLA BLA BLA BLA BLA BLA BLA 
BLA BLA BLA BLA BLA BLA BLA BLA BLA BLA BLA BLA BLA BLA BLA BLA BLA BLA BLA BLA 
BLA BLA BLA BLA BLA BLA BLA BLA BLA BLA BLA BLA BLA BLA BLA BLA BLA BLA BLA BLA 
BLA BLA BLA BLA BLA BLA BLA BLA BLA BLA BLA BLA BLA BLA BLA BLA BLA BLA BLA BLA 
BLA BLA BLA BLA BLA BLA BLA BLA BLA BLA BLA BLA BLA BLA BLA BLA BLA BLA BLA BLA 
BLA BLA BLA BLA BLA BLA BLA BLA BLA BLA BLA BLA BLA BLA BLA BLA BLA BLA BLA BLA 
BLA BLA BLA BLA BLA BLA BLA BLA BLA BLA BLA BLA BLA BLA BLA BLA BLA BLA BLA BLA 
BLA BLA BLA BLA BLA BLA BLA BLA BLA BLA BLA BLA BLA BLA BLA BLA BLA BLA BLA BLA 
BLA BLA BLA BLA BLA BLA BLA BLA BLA BLA BLA BLA BLA BLA BLA BLA BLA BLA BLA BLA 
BLA BLA BLA BLA BLA BLA BLA BLA BLA BLA BLA BLA BLA BLA BLA BLA BLA BLA BLA BLA 
BLA BLA BLA BLA BLA BLA BLA BLA BLA BLA BLA BLA BLA BLA BLA BLA BLA BLA BLA BLA 
BLA BLA BLA BLA BLA BLA BLA BLA BLA BLA BLA BLA BLA BLA BLA BLA BLA BLA BLA BLA 
BLA BLA BLA BLA BLA BLA BLA BLA BLA BLA BLA BLA BLA BLA BLA BLA BLA BLA BLA BLA 
BLA BLA BLA BLA BLA BLA BLA BLA BLA BLA BLA BLA BLA BLA BLA BLA BLA BLA BLA BLA 
BLA BLA BLA BLA BLA BLA BLA BLA BLA BLA BLA BLA BLA BLA BLA BLA BLA BLA BLA BLA 
BLA BLA BLA BLA BLA BLA BLA BLA BLA BLA BLA BLA BLA BLA BLA BLA BLA BLA BLA BLA 
BLA BLA BLA BLA BLA BLA BLA BLA BLA BLA BLA BLA BLA BLA BLA BLA BLA BLA BLA BLA 
BLA BLA BLA BLA BLA BLA BLA BLA BLA BLA BLA BLA BLA BLA BLA BLA BLA BLA BLA BLA 
BLA BLA BLA BLA BLA BLA BLA BLA BLA BLA BLA BLA BLA BLA BLA BLA BLA BLA BLA BLA 
BLA BLA BLA BLA BLA BLA BLA BLA BLA BLA BLA BLA BLA BLA BLA BLA BLA BLA BLA BLA 
BLA BLA BLA BLA BLA BLA BLA BLA BLA BLA BLA BLA BLA BLA BLA BLA BLA BLA BLA BLA 
BLA BLA BLA BLA BLA BLA BLA BLA BLA BLA BLA BLA BLA BLA BLA BLA BLA BLA BLA BLA 
BLA BLA BLA BLA BLA BLA BLA BLA BLA BLA BLA BLA BLA BLA BLA BLA BLA BLA BLA BLA 
BLA BLA BLA BLA BLA BLA BLA BLA BLA BLA BLA BLA BLA BLA BLA BLA BLA BLA BLA BLA 
BLA BLA BLA BLA BLA BLA BLA BLA BLA BLA BLA BLA BLA BLA BLA BLA BLA BLA BLA BLA 
BLA BLA BLA BLA BLA BLA BLA BLA BLA BLA BLA BLA BLA BLA BLA BLA BLA BLA BLA BLA 
BLA BLA BLA BLA BLA BLA BLA BLA BLA BLA BLA BLA BLA BLA BLA BLA BLA BLA BLA BLA 
BLA BLA BLA BLA BLA BLA BLA BLA BLA BLA BLA BLA BLA BLA BLA BLA BLA BLA BLA BLA 
BLA BLA BLA BLA BLA BLA BLA BLA BLA BLA BLA BLA BLA BLA BLA BLA BLA BLA BLA BLA 
BLA BLA BLA BLA BLA BLA BLA BLA BLA BLA BLA BLA BLA BLA BLA BLA BLA BLA BLA BLA 
BLA BLA BLA BLA BLA BLA BLA BLA BLA BLA BLA BLA BLA BLA BLA BLA BLA BLA BLA BLA 
BLA BLA BLA BLA BLA BLA BLA BLA BLA BLA BLA BLA BLA BLA BLA BLA BLA BLA BLA BLA 
BLA BLA BLA BLA BLA BLA BLA BLA BLA BLA BLA BLA BLA BLA BLA BLA BLA BLA BLA BLA 
BLA BLA BLA BLA BLA BLA BLA BLA BLA BLA BLA BLA BLA BLA BLA BLA BLA BLA BLA BLA 
BLA BLA BLA BLA BLA BLA BLA BLA BLA BLA BLA BLA BLA BLA BLA BLA BLA BLA BLA BLA 
BLA BLA BLA BLA BLA BLA BLA BLA BLA BLA BLA BLA BLA BLA BLA BLA BLA BLA BLA BLA 
BLA BLA BLA BLA BLA BLA BLA BLA BLA BLA BLA BLA BLA BLA BLA BLA BLA BLA BLA BLA 
BLA BLA BLA BLA BLA BLA BLA BLA BLA BLA BLA BLA BLA BLA BLA BLA BLA BLA BLA BLA 
BLA BLA BLA BLA BLA BLA BLA BLA BLA BLA BLA BLA BLA BLA BLA BLA BLA BLA BLA BLA 
BLA BLA BLA BLA BLA BLA BLA BLA BLA BLA BLA BLA BLA BLA BLA BLA BLA BLA BLA BLA 
BLA BLA BLA BLA BLA BLA BLA BLA BLA BLA BLA BLA BLA BLA BLA BLA BLA BLA BLA BLA 
BLA BLA BLA BLA BLA BLA BLA BLA BLA BLA BLA BLA BLA BLA BLA BLA BLA BLA BLA BLA 
BLA BLA BLA BLA BLA BLA BLA BLA BLA BLA BLA BLA BLA BLA BLA BLA BLA BLA BLA BLA 
BLA BLA BLA BLA BLA BLA BLA BLA BLA BLA BLA BLA BLA BLA BLA BLA BLA BLA BLA BLA 
BLA BLA BLA BLA BLA BLA BLA BLA BLA BLA BLA BLA BLA BLA BLA BLA BLA BLA BLA BLA 
BLA BLA BLA BLA BLA BLA BLA BLA BLA BLA BLA BLA BLA BLA BLA BLA BLA BLA BLA BLA 
BLA BLA BLA BLA BLA BLA BLA BLA BLA BLA BLA BLA BLA BLA BLA BLA BLA BLA BLA BLA 
BLA BLA BLA BLA BLA BLA BLA BLA BLA BLA BLA BLA BLA BLA BLA BLA BLA BLA BLA BLA 
BLA BLA BLA BLA BLA BLA BLA BLA BLA BLA BLA BLA BLA BLA BLA BLA BLA BLA BLA BLA 
BLA BLA BLA BLA BLA BLA BLA BLA BLA BLA BLA BLA BLA BLA BLA BLA BLA BLA BLA BLA 
BLA BLA BLA BLA BLA BLA BLA BLA BLA BLA BLA BLA BLA BLA BLA BLA BLA BLA BLA BLA 
BLA BLA BLA BLA BLA BLA BLA BLA BLA BLA BLA BLA BLA BLA BLA BLA BLA BLA BLA BLA 
BLA BLA BLA BLA BLA BLA BLA BLA BLA BLA BLA BLA BLA BLA BLA BLA BLA BLA BLA BLA 
BLA BLA BLA BLA BLA BLA BLA BLA BLA BLA BLA BLA BLA BLA BLA BLA BLA BLA BLA BLA 
BLA BLA BLA BLA BLA BLA BLA BLA BLA BLA BLA BLA BLA BLA BLA BLA BLA BLA BLA BLA 
BLA BLA BLA BLA BLA BLA BLA BLA BLA BLA BLA BLA BLA BLA BLA BLA BLA BLA BLA BLA 
BLA BLA BLA BLA BLA BLA BLA BLA BLA BLA BLA BLA BLA BLA BLA BLA BLA BLA BLA BLA 
BLA BLA BLA BLA BLA BLA BLA BLA BLA BLA BLA BLA BLA BLA BLA BLA BLA BLA BLA BLA 
BLA BLA BLA BLA BLA BLA BLA BLA BLA BLA BLA BLA BLA BLA BLA BLA BLA BLA BLA BLA 
BLA BLA BLA BLA BLA BLA BLA BLA BLA BLA BLA BLA BLA BLA BLA BLA BLA BLA BLA BLA 
BLA BLA BLA BLA BLA BLA BLA BLA BLA BLA BLA BLA BLA BLA BLA BLA BLA BLA BLA BLA 
BLA BLA BLA BLA BLA BLA BLA BLA BLA BLA BLA BLA BLA BLA BLA BLA BLA BLA BLA BLA 
BLA BLA BLA BLA BLA BLA BLA BLA BLA BLA BLA BLA BLA BLA BLA BLA BLA BLA BLA BLA 
BLA BLA BLA BLA BLA BLA BLA BLA BLA BLA BLA BLA BLA BLA BLA BLA BLA BLA BLA BLA 
BLA BLA BLA BLA BLA BLA BLA BLA BLA BLA BLA BLA BLA BLA BLA BLA BLA BLA BLA BLA 
BLA BLA BLA BLA BLA BLA BLA BLA BLA BLA BLA BLA BLA BLA BLA BLA BLA BLA BLA BLA 
BLA BLA BLA BLA BLA BLA BLA BLA BLA BLA BLA BLA BLA BLA BLA BLA BLA BLA BLA BLA 
BLA BLA BLA BLA BLA BLA BLA BLA BLA BLA BLA BLA BLA BLA BLA BLA BLA BLA BLA BLA 
BLA BLA BLA BLA BLA BLA BLA BLA BLA BLA BLA BLA BLA BLA BLA BLA BLA BLA BLA BLA 
BLA BLA BLA BLA BLA BLA BLA BLA BLA BLA BLA BLA BLA BLA BLA BLA BLA BLA BLA BLA 
BLA BLA BLA BLA BLA BLA BLA BLA BLA BLA BLA BLA BLA BLA BLA BLA BLA BLA BLA BLA 
BLA BLA BLA BLA BLA BLA BLA BLA BLA BLA BLA BLA BLA BLA BLA BLA BLA BLA BLA BLA 
BLA BLA BLA BLA BLA BLA BLA BLA BLA BLA BLA BLA BLA BLA BLA BLA BLA BLA BLA BLA 
BLA BLA BLA BLA BLA BLA BLA BLA BLA BLA BLA BLA BLA BLA BLA BLA BLA BLA BLA BLA 
BLA BLA BLA BLA BLA BLA BLA BLA BLA BLA BLA BLA BLA BLA BLA BLA BLA BLA BLA BLA 
BLA BLA BLA BLA BLA BLA BLA BLA BLA BLA BLA BLA BLA BLA BLA BLA BLA BLA BLA BLA 
BLA BLA BLA BLA BLA BLA BLA BLA BLA BLA BLA BLA BLA BLA BLA BLA BLA BLA BLA BLA 
BLA BLA BLA BLA BLA BLA BLA BLA BLA BLA BLA BLA BLA BLA BLA BLA BLA BLA BLA BLA 
BLA BLA BLA BLA BLA BLA BLA BLA BLA BLA BLA BLA BLA BLA BLA BLA BLA BLA BLA BLA 
BLA BLA BLA BLA BLA BLA BLA BLA BLA BLA BLA BLA BLA BLA BLA BLA BLA BLA BLA BLA 
BLA BLA BLA BLA BLA BLA BLA BLA BLA BLA BLA BLA BLA BLA BLA BLA BLA BLA BLA BLA 
BLA BLA BLA BLA BLA BLA BLA BLA BLA BLA BLA BLA BLA BLA BLA BLA BLA BLA BLA BLA 
BLA BLA BLA BLA BLA BLA BLA BLA BLA BLA BLA BLA BLA BLA BLA BLA BLA BLA BLA BLA 
BLA BLA BLA BLA BLA BLA BLA BLA BLA BLA BLA BLA BLA BLA BLA BLA BLA BLA BLA BLA 
BLA BLA BLA BLA BLA BLA BLA BLA BLA BLA BLA BLA BLA BLA BLA BLA BLA BLA BLA BLA 
BLA BLA BLA BLA BLA BLA BLA BLA BLA BLA BLA BLA BLA BLA BLA BLA BLA BLA BLA BLA 
BLA BLA BLA BLA BLA BLA BLA BLA BLA BLA BLA BLA BLA BLA BLA BLA BLA BLA BLA BLA 
BLA BLA BLA BLA BLA BLA BLA BLA BLA BLA BLA BLA BLA BLA BLA BLA BLA BLA BLA BLA 
BLA BLA BLA BLA BLA BLA BLA BLA BLA BLA BLA BLA BLA BLA BLA BLA BLA BLA BLA BLA 
BLA BLA BLA BLA BLA BLA BLA BLA BLA BLA BLA BLA BLA BLA BLA BLA BLA BLA BLA BLA 
BLA BLA BLA BLA BLA BLA BLA BLA BLA BLA BLA BLA BLA BLA BLA BLA BLA BLA BLA BLA 
BLA BLA BLA BLA BLA BLA BLA BLA BLA BLA BLA BLA BLA BLA BLA BLA BLA BLA BLA BLA 
BLA BLA BLA BLA BLA BLA BLA BLA BLA BLA BLA BLA BLA BLA BLA BLA BLA BLA BLA BLA 
BLA BLA BLA BLA BLA BLA BLA BLA BLA BLA BLA BLA BLA BLA BLA BLA BLA BLA BLA BLA 
BLA BLA BLA BLA BLA BLA BLA BLA BLA BLA BLA BLA BLA BLA BLA BLA BLA BLA BLA BLA 
BLA BLA BLA BLA BLA BLA BLA BLA BLA BLA BLA BLA BLA BLA BLA BLA BLA BLA BLA BLA 
BLA BLA BLA BLA BLA BLA BLA BLA BLA BLA BLA BLA BLA BLA BLA BLA BLA BLA BLA BLA 
BLA BLA BLA BLA BLA BLA BLA BLA BLA BLA BLA BLA BLA BLA BLA BLA BLA BLA BLA BLA 
BLA BLA BLA BLA BLA BLA BLA BLA BLA BLA BLA BLA BLA BLA BLA BLA BLA BLA BLA BLA 
BLA BLA BLA BLA BLA BLA BLA BLA BLA BLA BLA BLA BLA BLA BLA BLA BLA BLA BLA BLA 
BLA BLA BLA BLA BLA BLA BLA BLA BLA BLA BLA BLA BLA BLA BLA BLA BLA BLA BLA BLA 
BLA BLA BLA BLA BLA BLA BLA BLA BLA BLA BLA BLA BLA BLA BLA BLA BLA BLA BLA BLA 
BLA BLA BLA BLA BLA BLA BLA BLA BLA BLA BLA BLA BLA BLA BLA BLA BLA BLA BLA BLA 
BLA BLA BLA BLA BLA BLA BLA BLA BLA BLA BLA BLA BLA BLA BLA BLA BLA BLA BLA BLA 
BLA BLA BLA BLA BLA BLA BLA BLA BLA BLA BLA BLA BLA BLA BLA BLA BLA BLA BLA BLA 
BLA BLA BLA BLA BLA BLA BLA BLA BLA BLA BLA BLA BLA BLA BLA BLA BLA BLA BLA BLA 
BLA BLA BLA BLA BLA BLA BLA BLA BLA BLA BLA BLA BLA BLA BLA BLA BLA BLA BLA BLA 
BLA BLA BLA BLA BLA BLA BLA BLA BLA BLA BLA BLA BLA BLA BLA BLA BLA BLA BLA BLA 
BLA BLA BLA BLA BLA BLA BLA BLA BLA BLA BLA BLA BLA BLA BLA BLA BLA BLA BLA BLA 
BLA BLA BLA BLA BLA BLA BLA BLA BLA BLA BLA BLA BLA BLA BLA BLA BLA BLA BLA BLA 
BLA BLA BLA BLA BLA BLA BLA BLA BLA BLA BLA BLA BLA BLA BLA BLA BLA BLA BLA BLA 
BLA BLA BLA BLA BLA BLA BLA BLA BLA BLA BLA BLA BLA BLA BLA BLA BLA BLA BLA BLA 
BLA BLA BLA BLA BLA BLA BLA BLA BLA BLA BLA BLA BLA BLA BLA BLA BLA BLA BLA BLA 
BLA BLA BLA BLA BLA BLA BLA BLA BLA BLA BLA BLA BLA BLA BLA BLA BLA BLA BLA BLA 
BLA BLA BLA BLA BLA BLA BLA BLA BLA BLA BLA BLA BLA BLA BLA BLA BLA BLA BLA BLA 
BLA BLA BLA BLA BLA BLA BLA BLA BLA BLA BLA BLA BLA BLA BLA BLA BLA BLA BLA BLA 
BLA BLA BLA BLA BLA BLA BLA BLA BLA BLA BLA BLA BLA BLA BLA BLA BLA BLA BLA BLA 
BLA BLA BLA BLA BLA BLA BLA BLA BLA BLA BLA BLA BLA BLA BLA BLA BLA BLA BLA BLA 
BLA BLA BLA BLA BLA BLA BLA BLA BLA BLA BLA BLA BLA BLA BLA BLA BLA BLA BLA BLA 
BLA BLA BLA BLA BLA BLA BLA BLA BLA BLA BLA BLA BLA BLA BLA BLA BLA BLA BLA BLA 
BLA BLA BLA BLA BLA BLA BLA BLA BLA BLA BLA BLA BLA BLA BLA BLA BLA BLA BLA BLA 
BLA BLA BLA BLA BLA BLA BLA BLA BLA BLA BLA BLA BLA BLA BLA BLA BLA BLA BLA BLA 
BLA BLA BLA BLA BLA BLA BLA BLA BLA BLA BLA BLA BLA BLA BLA BLA BLA BLA BLA BLA 
BLA BLA BLA BLA BLA BLA BLA BLA BLA BLA BLA BLA BLA BLA BLA BLA BLA BLA BLA BLA 
BLA BLA BLA BLA BLA BLA BLA BLA BLA BLA BLA BLA BLA BLA BLA BLA BLA BLA BLA BLA 
BLA BLA BLA BLA BLA BLA BLA BLA BLA BLA BLA BLA BLA BLA BLA BLA BLA BLA BLA BLA 
BLA BLA BLA BLA BLA BLA BLA BLA BLA BLA BLA BLA BLA BLA BLA BLA BLA BLA BLA BLA 
BLA BLA BLA BLA BLA BLA BLA BLA BLA BLA BLA BLA BLA BLA BLA BLA BLA BLA BLA BLA 
BLA BLA BLA BLA BLA BLA BLA BLA BLA BLA BLA BLA BLA BLA BLA BLA BLA BLA BLA BLA 
BLA BLA BLA BLA BLA BLA BLA BLA BLA BLA BLA BLA BLA BLA BLA BLA BLA BLA BLA BLA 
BLA BLA BLA BLA BLA BLA BLA BLA BLA BLA BLA BLA BLA BLA BLA BLA BLA BLA BLA BLA 
BLA BLA BLA BLA BLA BLA BLA BLA BLA BLA BLA BLA BLA BLA BLA BLA BLA BLA BLA BLA 
BLA BLA BLA BLA BLA BLA BLA BLA BLA BLA BLA BLA BLA BLA BLA BLA BLA BLA BLA BLA 
BLA BLA BLA BLA BLA BLA BLA BLA BLA BLA BLA BLA BLA BLA BLA BLA BLA BLA BLA BLA 
BLA BLA BLA BLA BLA BLA BLA BLA BLA BLA BLA BLA BLA BLA BLA BLA BLA BLA BLA BLA 
BLA BLA BLA BLA BLA BLA BLA BLA BLA BLA BLA BLA BLA BLA BLA BLA BLA BLA BLA BLA 
BLA BLA BLA BLA BLA BLA BLA BLA BLA BLA BLA BLA BLA BLA BLA BLA BLA BLA BLA BLA 
BLA BLA BLA BLA BLA BLA BLA BLA BLA BLA BLA BLA BLA BLA BLA BLA BLA BLA BLA BLA 
BLA BLA BLA BLA BLA BLA BLA BLA BLA BLA BLA BLA BLA BLA BLA BLA BLA BLA BLA BLA 
BLA BLA BLA BLA BLA BLA BLA BLA BLA BLA BLA BLA BLA BLA BLA BLA BLA BLA BLA BLA 
BLA BLA BLA BLA BLA BLA BLA BLA BLA BLA BLA BLA BLA BLA BLA BLA BLA BLA BLA BLA 
BLA BLA BLA BLA BLA BLA BLA BLA BLA BLA BLA BLA BLA BLA BLA BLA BLA BLA BLA BLA 
BLA BLA BLA BLA BLA BLA BLA BLA BLA BLA BLA BLA BLA BLA BLA BLA BLA BLA BLA BLA 
BLA BLA BLA BLA BLA BLA BLA BLA BLA BLA BLA BLA BLA BLA BLA BLA BLA BLA BLA BLA 
BLA BLA BLA BLA BLA BLA BLA BLA BLA BLA BLA BLA BLA BLA BLA BLA BLA BLA BLA BLA 
BLA BLA BLA BLA BLA BLA BLA BLA BLA BLA BLA BLA BLA BLA BLA BLA BLA BLA BLA BLA 
BLA BLA BLA BLA BLA BLA BLA BLA BLA BLA BLA BLA BLA BLA BLA BLA BLA BLA BLA BLA 
BLA BLA BLA BLA BLA BLA BLA BLA BLA BLA BLA BLA BLA BLA BLA BLA BLA BLA BLA BLA 
BLA BLA BLA BLA BLA BLA BLA BLA BLA BLA BLA BLA BLA BLA BLA BLA BLA BLA BLA BLA 
BLA BLA BLA BLA BLA BLA BLA BLA BLA BLA BLA BLA BLA BLA BLA BLA BLA BLA BLA BLA 
BLA BLA BLA BLA BLA BLA BLA BLA BLA BLA BLA BLA BLA BLA BLA BLA BLA BLA BLA BLA 
BLA BLA BLA BLA BLA BLA BLA BLA BLA BLA BLA BLA BLA BLA BLA BLA BLA BLA BLA BLA 
BLA BLA BLA BLA BLA BLA BLA BLA BLA BLA BLA BLA BLA BLA BLA BLA BLA BLA BLA BLA 
BLA BLA BLA BLA BLA BLA BLA BLA BLA BLA BLA BLA BLA BLA BLA BLA BLA BLA BLA BLA 
BLA BLA BLA BLA BLA BLA BLA BLA BLA BLA BLA BLA BLA BLA BLA BLA BLA BLA BLA BLA 
BLA BLA BLA BLA BLA BLA BLA BLA BLA BLA BLA BLA BLA BLA BLA BLA BLA BLA BLA BLA 
BLA BLA BLA BLA BLA BLA BLA BLA BLA BLA BLA BLA BLA BLA BLA BLA BLA BLA BLA BLA 
BLA BLA BLA BLA BLA BLA BLA BLA BLA BLA BLA BLA BLA BLA BLA BLA BLA BLA BLA BLA 
BLA BLA BLA BLA BLA BLA BLA BLA BLA BLA BLA BLA BLA BLA BLA BLA BLA BLA BLA BLA 
BLA BLA BLA BLA BLA BLA BLA BLA BLA BLA BLA BLA BLA BLA BLA BLA BLA BLA BLA BLA 
BLA BLA BLA BLA BLA BLA BLA BLA BLA BLA BLA BLA BLA BLA BLA BLA BLA BLA BLA BLA 
BLA BLA BLA BLA BLA BLA BLA BLA BLA BLA BLA BLA BLA BLA BLA BLA BLA BLA BLA BLA 
BLA BLA BLA BLA BLA BLA BLA BLA BLA BLA BLA BLA BLA BLA BLA BLA BLA BLA BLA BLA 
BLA BLA BLA BLA BLA BLA BLA BLA BLA BLA BLA BLA BLA BLA BLA BLA BLA BLA BLA BLA 
BLA BLA BLA BLA BLA BLA BLA BLA BLA BLA BLA BLA BLA BLA BLA BLA BLA BLA BLA BLA 
BLA BLA BLA BLA BLA BLA BLA BLA BLA BLA BLA BLA BLA BLA BLA BLA BLA BLA BLA BLA 
BLA BLA BLA BLA BLA BLA BLA BLA BLA BLA BLA BLA BLA BLA BLA BLA BLA BLA BLA BLA 
BLA BLA BLA BLA BLA BLA BLA BLA BLA BLA BLA BLA BLA BLA BLA BLA BLA BLA BLA BLA 
BLA BLA BLA BLA BLA BLA BLA BLA BLA BLA BLA BLA BLA BLA BLA BLA BLA BLA BLA BLA 
BLA BLA BLA BLA BLA BLA BLA BLA BLA BLA BLA BLA BLA BLA BLA BLA BLA BLA BLA BLA 
BLA BLA BLA BLA BLA BLA BLA BLA BLA BLA BLA BLA BLA BLA BLA BLA BLA BLA BLA BLA 
BLA BLA BLA BLA BLA BLA BLA BLA BLA BLA BLA BLA BLA BLA BLA BLA BLA BLA BLA BLA 
BLA BLA BLA BLA BLA BLA BLA BLA BLA BLA BLA BLA BLA BLA BLA BLA BLA BLA BLA BLA 
BLA BLA BLA BLA BLA BLA BLA BLA BLA BLA BLA BLA BLA BLA BLA BLA BLA BLA BLA BLA 
BLA BLA BLA BLA BLA BLA BLA BLA BLA BLA BLA BLA BLA BLA BLA BLA BLA BLA BLA BLA 
BLA BLA BLA BLA BLA BLA BLA BLA BLA BLA BLA BLA BLA BLA BLA BLA BLA BLA BLA BLA 
BLA BLA BLA BLA BLA BLA BLA BLA BLA BLA BLA BLA BLA BLA BLA BLA BLA BLA BLA BLA 
BLA BLA BLA BLA BLA BLA BLA BLA BLA BLA BLA BLA BLA BLA BLA BLA BLA BLA BLA BLA 
BLA BLA BLA BLA BLA BLA BLA BLA BLA BLA BLA BLA BLA BLA BLA BLA BLA BLA BLA BLA 
BLA BLA BLA BLA BLA BLA BLA BLA BLA BLA BLA BLA BLA BLA BLA BLA BLA BLA BLA BLA 
BLA BLA BLA BLA BLA BLA BLA BLA BLA BLA BLA BLA BLA BLA BLA BLA BLA BLA BLA BLA 
BLA BLA BLA BLA BLA BLA BLA BLA BLA BLA BLA BLA BLA BLA BLA BLA BLA BLA BLA BLA 
BLA BLA BLA BLA BLA BLA BLA BLA BLA BLA BLA BLA BLA BLA BLA BLA BLA BLA BLA BLA 
BLA BLA BLA BLA BLA BLA BLA BLA BLA BLA BLA BLA BLA BLA BLA BLA BLA BLA BLA BLA 
BLA BLA BLA BLA BLA BLA BLA BLA BLA BLA BLA BLA BLA BLA BLA BLA BLA BLA BLA BLA 
BLA BLA BLA BLA BLA BLA BLA BLA BLA BLA BLA BLA BLA BLA BLA BLA BLA BLA BLA BLA 
BLA BLA BLA BLA BLA BLA BLA BLA BLA BLA BLA BLA BLA BLA BLA BLA BLA BLA BLA BLA 
BLA BLA BLA BLA BLA BLA BLA BLA BLA BLA BLA BLA BLA BLA BLA BLA BLA BLA BLA BLA 
BLA BLA BLA BLA BLA BLA BLA BLA BLA BLA BLA BLA BLA BLA BLA BLA BLA BLA BLA BLA 
BLA BLA BLA BLA BLA BLA BLA BLA BLA BLA BLA BLA BLA BLA BLA BLA BLA BLA BLA BLA 
BLA BLA BLA BLA BLA BLA BLA BLA BLA BLA BLA BLA BLA BLA BLA BLA BLA BLA BLA BLA 
BLA BLA BLA BLA BLA BLA BLA BLA BLA BLA BLA BLA BLA BLA BLA BLA BLA BLA BLA BLA 
BLA BLA BLA BLA BLA BLA BLA BLA BLA BLA BLA BLA BLA BLA BLA BLA BLA BLA BLA BLA 
BLA BLA BLA BLA BLA BLA BLA BLA BLA BLA BLA BLA BLA BLA BLA BLA BLA BLA BLA BLA 
BLA BLA BLA BLA BLA BLA BLA BLA BLA BLA BLA BLA BLA BLA BLA BLA BLA BLA BLA BLA 
BLA BLA BLA BLA BLA BLA BLA BLA BLA BLA BLA BLA BLA BLA BLA BLA BLA BLA BLA BLA 
BLA BLA BLA BLA BLA BLA BLA BLA BLA BLA BLA BLA BLA BLA BLA BLA BLA BLA BLA BLA 
BLA BLA BLA BLA BLA BLA BLA BLA BLA BLA BLA BLA BLA BLA BLA BLA BLA BLA BLA BLA 
BLA BLA BLA BLA BLA BLA BLA BLA BLA BLA BLA BLA BLA BLA BLA BLA BLA BLA BLA BLA 
BLA BLA BLA BLA BLA BLA BLA BLA BLA BLA BLA BLA BLA BLA BLA BLA BLA BLA BLA BLA 
BLA BLA BLA BLA BLA BLA BLA BLA BLA BLA BLA BLA BLA BLA BLA BLA BLA BLA BLA BLA 
BLA BLA BLA BLA BLA BLA BLA BLA BLA BLA BLA BLA BLA BLA BLA BLA BLA BLA BLA BLA 
BLA BLA BLA BLA BLA BLA BLA BLA BLA BLA BLA BLA BLA BLA BLA BLA BLA BLA BLA BLA 
BLA BLA BLA BLA BLA BLA BLA BLA BLA BLA BLA BLA BLA BLA BLA BLA BLA BLA BLA BLA 
BLA BLA BLA BLA BLA BLA BLA BLA BLA BLA BLA BLA BLA BLA BLA BLA BLA BLA BLA BLA 
BLA BLA BLA BLA BLA BLA BLA BLA BLA BLA BLA BLA BLA BLA BLA BLA BLA BLA BLA BLA 
BLA BLA BLA BLA BLA BLA BLA BLA BLA BLA BLA BLA BLA BLA BLA BLA BLA BLA BLA BLA 
BLA BLA BLA BLA BLA BLA BLA BLA BLA BLA BLA BLA BLA BLA BLA BLA BLA BLA BLA BLA 
BLA BLA BLA BLA BLA BLA BLA BLA BLA BLA BLA BLA BLA BLA BLA BLA BLA BLA BLA BLA 
BLA BLA BLA BLA BLA BLA BLA BLA BLA BLA BLA BLA BLA BLA BLA BLA BLA BLA BLA BLA 
BLA BLA BLA BLA BLA BLA BLA BLA BLA BLA BLA BLA BLA BLA BLA BLA BLA BLA BLA BLA 
BLA BLA BLA BLA BLA BLA BLA BLA BLA BLA BLA BLA BLA BLA BLA BLA BLA BLA BLA BLA 
BLA BLA BLA BLA BLA BLA BLA BLA BLA BLA BLA BLA BLA BLA BLA BLA BLA BLA BLA BLA 
BLA BLA BLA BLA BLA BLA BLA BLA BLA BLA BLA BLA BLA BLA BLA BLA BLA BLA BLA BLA 
BLA BLA BLA BLA BLA BLA BLA BLA BLA BLA BLA BLA BLA BLA BLA BLA BLA BLA BLA BLA 
BLA BLA BLA BLA BLA BLA BLA BLA BLA BLA BLA BLA BLA BLA BLA BLA BLA BLA BLA BLA 
BLA BLA BLA BLA BLA BLA BLA BLA BLA BLA BLA BLA BLA BLA BLA BLA BLA BLA BLA BLA 
BLA BLA BLA BLA BLA BLA BLA BLA BLA BLA BLA BLA BLA BLA BLA BLA BLA BLA BLA BLA 
BLA BLA BLA BLA BLA BLA BLA BLA BLA BLA BLA BLA BLA BLA BLA BLA BLA BLA BLA BLA 
BLA BLA BLA BLA BLA BLA BLA BLA BLA BLA BLA BLA BLA BLA BLA BLA BLA BLA BLA BLA 
BLA BLA BLA BLA BLA BLA BLA BLA BLA BLA BLA BLA BLA BLA BLA BLA BLA BLA BLA BLA 
BLA BLA BLA BLA BLA BLA BLA BLA BLA BLA BLA BLA BLA BLA BLA BLA BLA BLA BLA BLA 
BLA BLA BLA BLA BLA BLA BLA BLA BLA BLA BLA BLA BLA BLA BLA BLA BLA BLA BLA BLA 
BLA BLA BLA BLA BLA BLA BLA BLA BLA BLA BLA BLA BLA BLA BLA BLA BLA BLA BLA BLA 
BLA BLA BLA BLA BLA BLA BLA BLA BLA BLA BLA BLA BLA BLA BLA BLA BLA BLA BLA BLA 
BLA BLA BLA BLA BLA BLA BLA BLA BLA BLA BLA BLA BLA BLA BLA BLA BLA BLA BLA BLA 
BLA BLA BLA BLA BLA BLA BLA BLA BLA BLA BLA BLA BLA BLA BLA BLA BLA BLA BLA BLA 
BLA BLA BLA BLA BLA BLA BLA BLA BLA BLA BLA BLA BLA BLA BLA BLA BLA BLA BLA BLA 
BLA BLA BLA BLA BLA BLA BLA BLA BLA BLA BLA BLA BLA BLA BLA BLA BLA BLA BLA BLA 
BLA BLA BLA BLA BLA BLA BLA BLA BLA BLA BLA BLA BLA BLA BLA BLA BLA BLA BLA BLA 
BLA BLA BLA BLA BLA BLA BLA BLA BLA BLA BLA BLA BLA BLA BLA BLA BLA BLA BLA BLA 
BLA BLA BLA BLA BLA BLA BLA BLA BLA BLA BLA BLA BLA BLA BLA BLA BLA BLA BLA BLA 
BLA BLA BLA BLA BLA BLA BLA BLA BLA BLA BLA BLA BLA BLA BLA BLA BLA BLA BLA BLA 
BLA BLA BLA BLA BLA BLA BLA BLA BLA BLA BLA BLA BLA BLA BLA BLA BLA BLA BLA BLA 
BLA BLA BLA BLA BLA BLA BLA BLA BLA BLA BLA BLA BLA BLA BLA BLA BLA BLA BLA BLA 
BLA BLA BLA BLA BLA BLA BLA BLA BLA BLA BLA BLA BLA BLA BLA BLA BLA BLA BLA BLA 
BLA BLA BLA BLA BLA BLA BLA BLA BLA BLA BLA BLA BLA BLA BLA BLA BLA BLA BLA BLA 
BLA BLA BLA BLA BLA BLA BLA BLA BLA BLA BLA BLA BLA BLA BLA BLA BLA BLA BLA BLA 
BLA BLA BLA BLA BLA BLA BLA BLA BLA BLA BLA BLA BLA BLA BLA BLA BLA BLA BLA BLA 
BLA BLA BLA BLA BLA BLA BLA BLA BLA BLA BLA BLA BLA BLA BLA BLA BLA BLA BLA BLA 
BLA BLA BLA BLA BLA BLA BLA BLA BLA BLA BLA BLA BLA BLA BLA BLA BLA BLA BLA BLA 
BLA BLA BLA BLA BLA BLA BLA BLA BLA BLA BLA BLA BLA BLA BLA BLA BLA BLA BLA BLA 
BLA BLA BLA BLA BLA BLA BLA BLA BLA BLA BLA BLA BLA BLA BLA BLA BLA BLA BLA BLA 
BLA BLA BLA BLA BLA BLA BLA BLA BLA BLA BLA BLA BLA BLA BLA BLA BLA BLA BLA BLA 
BLA BLA BLA BLA BLA BLA BLA BLA BLA BLA BLA BLA BLA BLA BLA BLA BLA BLA BLA BLA 
BLA BLA BLA BLA BLA BLA BLA BLA BLA BLA BLA BLA BLA BLA BLA BLA BLA BLA BLA BLA 
BLA BLA BLA BLA BLA BLA BLA BLA BLA BLA BLA BLA BLA BLA BLA BLA BLA BLA BLA BLA 
BLA BLA BLA BLA BLA BLA BLA BLA BLA BLA BLA BLA BLA BLA BLA BLA BLA BLA BLA BLA 
BLA BLA BLA BLA BLA BLA BLA BLA BLA BLA BLA BLA BLA BLA BLA BLA BLA BLA BLA BLA 
BLA BLA BLA BLA BLA BLA BLA BLA BLA BLA BLA BLA BLA BLA BLA BLA BLA BLA BLA BLA 
BLA BLA BLA BLA BLA BLA BLA BLA BLA BLA BLA BLA BLA BLA BLA BLA BLA BLA BLA BLA 
BLA BLA BLA BLA BLA BLA BLA BLA BLA BLA BLA BLA BLA BLA BLA BLA BLA BLA BLA BLA 
BLA BLA BLA BLA BLA BLA BLA BLA BLA BLA BLA BLA BLA BLA BLA BLA BLA BLA BLA BLA 
BLA BLA BLA BLA BLA BLA BLA BLA BLA BLA BLA BLA BLA BLA BLA BLA BLA BLA BLA BLA 
BLA BLA BLA BLA BLA BLA BLA BLA BLA BLA BLA BLA BLA BLA BLA BLA BLA BLA BLA BLA 
BLA BLA BLA BLA BLA BLA BLA BLA BLA BLA BLA BLA BLA BLA BLA BLA BLA BLA BLA BLA 
BLA BLA BLA BLA BLA BLA BLA BLA BLA BLA BLA BLA BLA BLA BLA BLA BLA BLA BLA BLA 
BLA BLA BLA BLA BLA BLA BLA BLA BLA BLA BLA BLA BLA BLA BLA BLA BLA BLA BLA BLA 
BLA BLA BLA BLA BLA BLA BLA BLA BLA BLA BLA BLA BLA BLA BLA BLA BLA BLA BLA BLA 
BLA BLA BLA BLA BLA BLA BLA BLA BLA BLA BLA BLA BLA BLA BLA BLA BLA BLA BLA BLA 
BLA BLA BLA BLA BLA BLA BLA BLA BLA BLA BLA BLA BLA BLA BLA BLA BLA BLA BLA BLA 
BLA BLA BLA BLA BLA BLA BLA BLA BLA BLA BLA BLA BLA BLA BLA BLA BLA BLA BLA BLA 
BLA BLA BLA BLA BLA BLA BLA BLA BLA BLA BLA BLA BLA BLA BLA BLA BLA BLA BLA BLA 
BLA BLA BLA BLA BLA BLA BLA BLA BLA BLA BLA BLA BLA BLA BLA BLA BLA BLA BLA BLA 
BLA BLA BLA BLA BLA BLA BLA BLA BLA BLA BLA BLA BLA BLA BLA BLA BLA BLA BLA BLA 
BLA BLA BLA BLA BLA BLA BLA BLA BLA BLA BLA BLA BLA BLA BLA BLA BLA BLA BLA BLA 
BLA BLA BLA BLA BLA BLA BLA BLA BLA BLA BLA BLA BLA BLA BLA BLA BLA BLA BLA BLA 
BLA BLA BLA BLA BLA BLA BLA BLA BLA BLA BLA BLA BLA BLA BLA BLA BLA BLA BLA BLA 
BLA BLA BLA BLA BLA BLA BLA BLA BLA BLA BLA BLA BLA BLA BLA BLA BLA BLA BLA BLA 
BLA BLA BLA BLA BLA BLA BLA BLA BLA BLA BLA BLA BLA BLA BLA BLA BLA BLA BLA BLA 
BLA BLA BLA BLA BLA BLA BLA BLA BLA BLA BLA BLA BLA BLA BLA BLA BLA BLA BLA BLA 
BLA BLA BLA BLA BLA BLA BLA BLA BLA BLA BLA BLA BLA BLA BLA BLA BLA BLA BLA BLA 
BLA BLA BLA BLA BLA BLA BLA BLA BLA BLA BLA BLA BLA BLA BLA BLA BLA BLA BLA BLA 
BLA BLA BLA BLA BLA BLA BLA BLA BLA BLA BLA BLA BLA BLA BLA BLA BLA BLA BLA BLA 
BLA BLA BLA BLA BLA BLA BLA BLA BLA BLA BLA BLA BLA BLA BLA BLA BLA BLA BLA BLA 
BLA BLA BLA BLA BLA BLA BLA BLA BLA BLA BLA BLA BLA BLA BLA BLA BLA BLA BLA BLA 
BLA BLA BLA BLA BLA BLA BLA BLA BLA BLA BLA BLA BLA BLA BLA BLA BLA BLA BLA BLA 
BLA BLA BLA BLA BLA BLA BLA BLA BLA BLA BLA BLA BLA BLA BLA BLA BLA BLA BLA BLA 
BLA BLA BLA BLA BLA BLA BLA BLA BLA BLA BLA BLA BLA BLA BLA BLA BLA BLA BLA BLA 
BLA BLA BLA BLA BLA BLA BLA BLA BLA BLA BLA BLA BLA BLA BLA BLA BLA BLA BLA BLA 
BLA BLA BLA BLA BLA BLA BLA BLA BLA BLA BLA BLA BLA BLA BLA BLA BLA BLA BLA BLA 
BLA BLA BLA BLA BLA BLA BLA BLA BLA BLA BLA BLA BLA BLA BLA BLA BLA BLA BLA BLA 
BLA BLA BLA BLA BLA BLA BLA BLA BLA BLA BLA BLA BLA BLA BLA BLA BLA BLA BLA BLA 
BLA BLA BLA BLA BLA BLA BLA BLA BLA BLA BLA BLA BLA BLA BLA BLA BLA BLA BLA BLA 
BLA BLA BLA BLA BLA BLA BLA BLA BLA BLA BLA BLA BLA BLA BLA BLA BLA BLA BLA BLA 
BLA BLA BLA BLA BLA BLA BLA BLA BLA BLA BLA BLA BLA BLA BLA BLA BLA BLA BLA BLA 
BLA BLA BLA BLA BLA BLA BLA BLA BLA BLA BLA BLA BLA BLA BLA BLA BLA BLA BLA BLA 
BLA BLA BLA BLA BLA BLA BLA BLA BLA BLA BLA BLA BLA BLA BLA BLA BLA BLA BLA BLA 
BLA BLA BLA BLA BLA BLA BLA BLA BLA BLA BLA BLA BLA BLA BLA BLA BLA BLA BLA BLA 
BLA BLA BLA BLA BLA BLA BLA BLA BLA BLA BLA BLA BLA BLA BLA BLA BLA BLA BLA BLA 
BLA BLA BLA BLA BLA BLA BLA BLA BLA BLA BLA BLA BLA BLA BLA BLA BLA BLA BLA BLA 
BLA BLA BLA BLA BLA BLA BLA BLA BLA BLA BLA BLA BLA BLA BLA BLA BLA BLA BLA BLA 
BLA BLA BLA BLA BLA BLA BLA BLA BLA BLA BLA BLA BLA BLA BLA BLA BLA BLA BLA BLA 
BLA BLA BLA BLA BLA BLA BLA BLA BLA BLA BLA BLA BLA BLA BLA BLA BLA BLA BLA BLA 
BLA BLA BLA BLA BLA BLA BLA BLA BLA BLA BLA BLA BLA BLA BLA BLA BLA BLA BLA BLA 
BLA BLA BLA BLA BLA BLA BLA BLA BLA BLA BLA BLA BLA BLA BLA BLA BLA BLA BLA BLA 
BLA BLA BLA BLA BLA BLA BLA BLA BLA BLA BLA BLA BLA BLA BLA BLA BLA BLA BLA BLA 
BLA BLA BLA BLA BLA BLA BLA BLA BLA BLA BLA BLA BLA BLA BLA BLA BLA BLA BLA BLA 
BLA BLA BLA BLA BLA BLA BLA BLA BLA BLA BLA BLA BLA BLA BLA BLA BLA BLA BLA BLA 
BLA BLA BLA BLA BLA BLA BLA BLA BLA BLA BLA BLA BLA BLA BLA BLA BLA BLA BLA BLA 
BLA BLA BLA BLA BLA BLA BLA BLA BLA BLA BLA BLA BLA BLA BLA BLA BLA BLA BLA BLA 
BLA BLA BLA BLA BLA BLA BLA BLA BLA BLA BLA BLA BLA BLA BLA BLA BLA BLA BLA BLA 
BLA BLA BLA BLA BLA BLA BLA BLA BLA BLA BLA BLA BLA BLA BLA BLA BLA BLA BLA BLA 
BLA BLA BLA BLA BLA BLA BLA BLA BLA BLA BLA BLA BLA BLA BLA BLA BLA BLA BLA BLA 
BLA BLA BLA BLA BLA BLA BLA BLA BLA BLA BLA BLA BLA BLA BLA BLA BLA BLA BLA BLA 
BLA BLA BLA BLA BLA BLA BLA BLA BLA BLA BLA BLA BLA BLA BLA BLA BLA BLA BLA BLA 
BLA BLA BLA BLA BLA BLA BLA BLA BLA BLA BLA BLA BLA BLA BLA BLA BLA BLA BLA BLA 
BLA BLA BLA BLA BLA BLA BLA BLA BLA BLA BLA BLA BLA BLA BLA BLA BLA BLA BLA BLA 
BLA BLA BLA BLA BLA BLA BLA BLA BLA BLA BLA BLA BLA BLA BLA BLA BLA BLA BLA BLA 
BLA BLA BLA BLA BLA BLA BLA BLA BLA BLA BLA BLA BLA BLA BLA BLA BLA BLA BLA BLA 
BLA BLA BLA BLA BLA BLA BLA BLA BLA BLA BLA BLA BLA BLA BLA BLA BLA BLA BLA BLA 
BLA BLA BLA BLA BLA BLA BLA BLA BLA BLA BLA BLA BLA BLA BLA BLA BLA BLA BLA BLA 
BLA BLA BLA BLA BLA BLA BLA BLA BLA BLA BLA BLA BLA BLA BLA BLA BLA BLA BLA BLA 
BLA BLA BLA BLA BLA BLA BLA BLA BLA BLA BLA BLA BLA BLA BLA BLA BLA BLA BLA BLA 
BLA BLA BLA BLA BLA BLA BLA BLA BLA BLA BLA BLA BLA BLA BLA BLA BLA BLA BLA BLA 
BLA BLA BLA BLA BLA BLA BLA BLA BLA BLA BLA BLA BLA BLA BLA BLA BLA BLA BLA BLA 
BLA BLA BLA BLA BLA BLA BLA BLA BLA BLA BLA BLA BLA BLA BLA BLA BLA BLA BLA BLA 
BLA BLA BLA BLA BLA BLA BLA BLA BLA BLA BLA BLA BLA BLA BLA BLA BLA BLA BLA BLA 
BLA BLA BLA BLA BLA BLA BLA BLA BLA BLA BLA BLA BLA BLA BLA BLA BLA BLA BLA BLA 
BLA BLA BLA BLA BLA BLA BLA BLA BLA BLA BLA BLA BLA BLA BLA BLA BLA BLA BLA BLA 
BLA BLA BLA BLA BLA BLA BLA BLA BLA BLA BLA BLA BLA BLA BLA BLA BLA BLA BLA BLA 
BLA BLA BLA BLA BLA BLA BLA BLA BLA BLA BLA BLA BLA BLA BLA BLA BLA BLA BLA BLA 
BLA BLA BLA BLA BLA BLA BLA BLA BLA BLA BLA BLA BLA BLA BLA BLA BLA BLA BLA BLA 
BLA BLA BLA BLA BLA BLA BLA BLA BLA BLA BLA BLA BLA BLA BLA BLA BLA BLA BLA BLA 
BLA BLA BLA BLA BLA BLA BLA BLA BLA BLA BLA BLA BLA BLA BLA BLA BLA BLA BLA BLA 
BLA BLA BLA BLA BLA BLA BLA BLA BLA BLA BLA BLA BLA BLA BLA BLA BLA BLA BLA BLA 
BLA BLA BLA BLA BLA BLA BLA BLA BLA BLA BLA BLA BLA BLA BLA BLA BLA BLA BLA BLA 
BLA BLA BLA BLA BLA BLA BLA BLA BLA BLA BLA BLA BLA BLA BLA BLA BLA BLA BLA BLA 
BLA BLA BLA BLA BLA BLA BLA BLA BLA BLA BLA BLA BLA BLA BLA BLA BLA BLA BLA BLA 
BLA BLA BLA BLA BLA BLA BLA BLA BLA BLA BLA BLA BLA BLA BLA BLA BLA BLA BLA BLA 
BLA BLA BLA BLA BLA BLA BLA BLA BLA BLA BLA BLA BLA BLA BLA BLA BLA BLA BLA BLA 
BLA BLA BLA BLA BLA BLA BLA BLA BLA BLA BLA BLA BLA BLA BLA BLA BLA BLA BLA BLA 
BLA BLA BLA BLA BLA BLA BLA BLA BLA BLA BLA BLA BLA BLA BLA BLA BLA BLA BLA BLA 
BLA BLA BLA BLA BLA BLA BLA BLA BLA BLA BLA BLA BLA BLA BLA BLA BLA BLA BLA BLA 
BLA BLA BLA BLA BLA BLA BLA BLA BLA BLA BLA BLA BLA BLA BLA BLA BLA BLA BLA BLA 
BLA BLA BLA BLA BLA BLA BLA BLA BLA BLA BLA BLA BLA BLA BLA BLA BLA BLA BLA BLA 
BLA BLA BLA BLA BLA BLA BLA BLA BLA BLA BLA BLA BLA BLA BLA BLA BLA BLA BLA BLA 
BLA BLA BLA BLA BLA BLA BLA BLA BLA BLA BLA BLA BLA BLA BLA BLA BLA BLA BLA BLA 
BLA BLA BLA BLA BLA BLA BLA BLA BLA BLA BLA BLA BLA BLA BLA BLA BLA BLA BLA BLA 
BLA BLA BLA BLA BLA BLA BLA BLA BLA BLA BLA BLA BLA BLA BLA BLA BLA BLA BLA BLA 
BLA BLA BLA BLA BLA BLA BLA BLA BLA BLA BLA BLA BLA BLA BLA BLA BLA BLA BLA BLA 
BLA BLA BLA BLA BLA BLA BLA BLA BLA BLA BLA BLA BLA BLA BLA BLA BLA BLA BLA BLA 
BLA BLA BLA BLA BLA BLA BLA BLA BLA BLA BLA BLA BLA BLA BLA BLA BLA BLA BLA BLA 
BLA BLA BLA BLA BLA BLA BLA BLA BLA BLA BLA BLA BLA BLA BLA BLA BLA BLA BLA BLA 
BLA BLA BLA BLA BLA BLA BLA BLA BLA BLA BLA BLA BLA BLA BLA BLA BLA BLA BLA BLA 
BLA BLA BLA BLA BLA BLA BLA BLA BLA BLA BLA BLA BLA BLA BLA BLA BLA BLA BLA BLA 
BLA BLA BLA BLA BLA BLA BLA BLA BLA BLA BLA BLA BLA BLA BLA BLA BLA BLA BLA BLA 
BLA BLA BLA BLA BLA BLA BLA BLA BLA BLA BLA BLA BLA BLA BLA BLA BLA BLA BLA BLA 
BLA BLA BLA BLA BLA BLA BLA BLA BLA BLA BLA BLA BLA BLA BLA BLA BLA BLA BLA BLA 
BLA BLA BLA BLA BLA BLA BLA BLA BLA BLA BLA BLA BLA BLA BLA BLA BLA BLA BLA BLA 
BLA BLA BLA BLA BLA BLA BLA BLA BLA BLA BLA BLA BLA BLA BLA BLA BLA BLA BLA BLA 
BLA BLA BLA BLA BLA BLA BLA BLA BLA BLA BLA BLA BLA BLA BLA BLA BLA BLA BLA BLA 
BLA BLA BLA BLA BLA BLA BLA BLA BLA BLA BLA BLA BLA BLA BLA BLA BLA BLA BLA BLA 
BLA BLA BLA BLA BLA BLA BLA BLA BLA BLA BLA BLA BLA BLA BLA BLA BLA BLA BLA BLA 
BLA BLA BLA BLA BLA BLA BLA BLA BLA BLA BLA BLA BLA BLA BLA BLA BLA BLA BLA BLA 
BLA BLA BLA BLA BLA BLA BLA BLA BLA BLA BLA BLA BLA BLA BLA BLA BLA BLA BLA BLA 
BLA BLA BLA BLA BLA BLA BLA BLA BLA BLA BLA BLA BLA BLA BLA BLA BLA BLA BLA BLA 
BLA BLA BLA BLA BLA BLA BLA BLA BLA BLA BLA BLA BLA BLA BLA BLA BLA BLA BLA BLA 
BLA BLA BLA BLA BLA BLA BLA BLA BLA BLA BLA BLA BLA BLA BLA BLA BLA BLA BLA BLA 
BLA BLA BLA BLA BLA BLA BLA BLA BLA BLA BLA BLA BLA BLA BLA BLA BLA BLA BLA BLA 
BLA BLA BLA BLA BLA BLA BLA BLA BLA BLA BLA BLA BLA BLA BLA BLA BLA BLA BLA BLA 
BLA BLA BLA BLA BLA BLA BLA BLA BLA BLA BLA BLA BLA BLA BLA BLA BLA BLA BLA BLA 
BLA BLA BLA BLA BLA BLA BLA BLA BLA BLA BLA BLA BLA BLA BLA BLA BLA BLA BLA BLA 
BLA BLA BLA BLA BLA BLA BLA BLA BLA BLA BLA BLA BLA BLA BLA BLA BLA BLA BLA BLA 
BLA BLA BLA BLA BLA BLA BLA BLA BLA BLA BLA BLA BLA BLA BLA BLA BLA BLA BLA BLA 
BLA BLA BLA BLA BLA BLA BLA BLA BLA BLA BLA BLA BLA BLA BLA BLA BLA BLA BLA BLA 
BLA BLA BLA BLA BLA BLA BLA BLA BLA BLA BLA BLA BLA BLA BLA BLA BLA BLA BLA BLA 
BLA BLA BLA BLA BLA BLA BLA BLA BLA BLA BLA BLA BLA BLA BLA BLA BLA BLA BLA BLA 
BLA BLA BLA BLA BLA BLA BLA BLA BLA BLA BLA BLA BLA BLA BLA BLA BLA BLA BLA BLA 
BLA BLA BLA BLA BLA BLA BLA BLA BLA BLA BLA BLA BLA BLA BLA BLA BLA BLA BLA BLA 
BLA BLA BLA BLA BLA BLA BLA BLA BLA BLA BLA BLA BLA BLA BLA BLA BLA BLA BLA BLA 
BLA BLA BLA BLA BLA BLA BLA BLA BLA BLA BLA BLA BLA BLA BLA BLA BLA BLA BLA BLA 
BLA BLA BLA BLA BLA BLA BLA BLA BLA BLA BLA BLA BLA BLA BLA BLA BLA BLA BLA BLA 
BLA BLA BLA BLA BLA BLA BLA BLA BLA BLA BLA BLA BLA BLA BLA BLA BLA BLA BLA BLA 
BLA BLA BLA BLA BLA BLA BLA BLA BLA BLA BLA BLA BLA BLA BLA BLA BLA BLA BLA BLA 
BLA BLA BLA BLA BLA BLA BLA BLA BLA BLA BLA BLA BLA BLA BLA BLA BLA BLA BLA BLA 
BLA BLA BLA BLA BLA BLA BLA BLA BLA BLA BLA BLA BLA BLA BLA BLA BLA BLA BLA BLA 
BLA BLA BLA BLA BLA BLA BLA BLA BLA BLA BLA BLA BLA BLA BLA BLA BLA BLA BLA BLA 
BLA BLA BLA BLA BLA BLA BLA BLA BLA BLA BLA BLA BLA BLA BLA BLA BLA BLA BLA BLA 
BLA BLA BLA BLA BLA BLA BLA BLA BLA BLA BLA BLA BLA BLA BLA BLA BLA BLA BLA BLA 
BLA BLA BLA BLA BLA BLA BLA BLA BLA BLA BLA BLA BLA BLA BLA BLA BLA BLA BLA BLA 
BLA BLA BLA BLA BLA BLA BLA BLA BLA BLA BLA BLA BLA BLA BLA BLA BLA BLA BLA BLA 
BLA BLA BLA BLA BLA BLA BLA BLA BLA BLA BLA BLA BLA BLA BLA BLA BLA BLA BLA BLA 
BLA BLA BLA BLA BLA BLA BLA BLA BLA BLA BLA BLA BLA BLA BLA BLA BLA BLA BLA BLA 
BLA BLA BLA BLA BLA BLA BLA BLA BLA BLA BLA BLA BLA BLA BLA BLA BLA BLA BLA BLA 
BLA BLA BLA BLA BLA BLA BLA BLA BLA BLA BLA BLA BLA BLA BLA BLA BLA BLA BLA BLA 
BLA BLA BLA BLA BLA BLA BLA BLA BLA BLA BLA BLA BLA BLA BLA BLA BLA BLA BLA BLA 
BLA BLA BLA BLA BLA BLA BLA BLA BLA BLA BLA BLA BLA BLA BLA BLA BLA BLA BLA BLA 
BLA BLA BLA BLA BLA BLA BLA BLA BLA BLA BLA BLA BLA BLA BLA BLA BLA BLA BLA BLA 
BLA BLA BLA BLA BLA BLA BLA BLA BLA BLA BLA BLA BLA BLA BLA BLA BLA BLA BLA BLA 
BLA BLA BLA BLA BLA BLA BLA BLA BLA BLA BLA BLA BLA BLA BLA BLA BLA BLA BLA BLA 
BLA BLA BLA BLA BLA BLA BLA BLA BLA BLA BLA BLA BLA BLA BLA BLA BLA BLA BLA BLA 
BLA BLA BLA BLA BLA BLA BLA BLA BLA BLA BLA BLA BLA BLA BLA BLA BLA BLA BLA BLA 
BLA BLA BLA BLA BLA BLA BLA BLA BLA BLA BLA BLA BLA BLA BLA BLA BLA BLA BLA BLA 
BLA BLA BLA BLA BLA BLA BLA BLA BLA BLA BLA BLA BLA BLA BLA BLA BLA BLA BLA BLA 
BLA BLA BLA BLA BLA BLA BLA BLA BLA BLA BLA BLA BLA BLA BLA BLA BLA BLA BLA BLA 
BLA BLA BLA BLA BLA BLA BLA BLA BLA BLA BLA BLA BLA BLA BLA BLA BLA BLA BLA BLA 
BLA BLA BLA BLA BLA BLA BLA BLA BLA BLA BLA BLA BLA BLA BLA BLA BLA BLA BLA BLA 
BLA BLA BLA BLA BLA BLA BLA BLA BLA BLA BLA BLA BLA BLA BLA BLA BLA BLA BLA BLA 
BLA BLA BLA BLA BLA BLA BLA BLA BLA BLA BLA BLA BLA BLA BLA BLA BLA BLA BLA BLA 
BLA BLA BLA BLA BLA BLA BLA BLA BLA BLA BLA BLA BLA BLA BLA BLA BLA BLA BLA BLA 
BLA BLA BLA BLA BLA BLA BLA BLA BLA BLA BLA BLA BLA BLA BLA BLA BLA BLA BLA BLA 
BLA BLA BLA BLA BLA BLA BLA BLA BLA BLA BLA BLA BLA BLA BLA BLA BLA BLA BLA BLA 
BLA BLA BLA BLA BLA BLA BLA BLA BLA BLA BLA BLA BLA BLA BLA BLA BLA BLA BLA BLA 
BLA BLA BLA BLA BLA BLA BLA BLA BLA BLA BLA BLA BLA BLA BLA BLA BLA BLA BLA BLA 
BLA BLA BLA BLA BLA BLA BLA BLA BLA BLA BLA BLA BLA BLA BLA BLA BLA BLA BLA BLA 
BLA BLA BLA BLA BLA BLA BLA BLA BLA BLA BLA BLA BLA BLA BLA BLA BLA BLA BLA BLA 
BLA BLA BLA BLA BLA BLA BLA BLA BLA BLA BLA BLA BLA BLA BLA BLA BLA BLA BLA BLA 
BLA BLA BLA BLA BLA BLA BLA BLA BLA BLA BLA BLA BLA BLA BLA BLA BLA BLA BLA BLA 
BLA BLA BLA BLA BLA BLA BLA BLA BLA BLA BLA BLA BLA BLA BLA BLA BLA BLA BLA BLA 
BLA BLA BLA BLA BLA BLA BLA BLA BLA BLA BLA BLA BLA BLA BLA BLA BLA BLA BLA BLA 
BLA BLA BLA BLA BLA BLA BLA BLA BLA BLA BLA BLA BLA BLA BLA BLA BLA BLA BLA BLA 
BLA BLA BLA BLA BLA BLA BLA BLA BLA BLA BLA BLA BLA BLA BLA BLA BLA BLA BLA BLA 
BLA BLA BLA BLA BLA BLA BLA BLA BLA BLA BLA BLA BLA BLA BLA BLA BLA BLA BLA BLA 
BLA BLA BLA BLA BLA BLA BLA BLA BLA BLA BLA BLA BLA BLA BLA BLA BLA BLA BLA BLA 
BLA BLA BLA BLA BLA BLA BLA BLA BLA BLA BLA BLA BLA BLA BLA BLA BLA BLA BLA BLA 
BLA BLA BLA BLA BLA BLA BLA BLA BLA BLA BLA BLA BLA BLA BLA BLA BLA BLA BLA BLA 
BLA BLA BLA BLA BLA BLA BLA BLA BLA BLA BLA BLA BLA BLA BLA BLA BLA BLA BLA BLA 
BLA BLA BLA BLA BLA BLA BLA BLA BLA BLA BLA BLA BLA BLA BLA BLA BLA BLA BLA BLA 
BLA BLA BLA BLA BLA BLA BLA BLA BLA BLA BLA BLA BLA BLA BLA BLA BLA BLA BLA BLA 
BLA BLA BLA BLA BLA BLA BLA BLA BLA BLA BLA BLA BLA BLA BLA BLA BLA BLA BLA BLA 
BLA BLA BLA BLA BLA BLA BLA BLA BLA BLA BLA BLA BLA BLA BLA BLA BLA BLA BLA BLA 
BLA BLA BLA BLA BLA BLA BLA BLA BLA BLA BLA BLA BLA BLA BLA BLA BLA BLA BLA BLA 
BLA BLA BLA BLA BLA BLA BLA BLA BLA BLA BLA BLA BLA BLA BLA BLA BLA BLA BLA BLA 
BLA BLA BLA BLA BLA BLA BLA BLA BLA BLA BLA BLA BLA BLA BLA BLA BLA BLA BLA BLA 
BLA BLA BLA BLA BLA BLA BLA BLA BLA BLA BLA BLA BLA BLA BLA BLA BLA BLA BLA BLA 
BLA BLA BLA BLA BLA BLA BLA BLA BLA BLA BLA BLA BLA BLA BLA BLA BLA BLA BLA BLA 
BLA BLA BLA BLA BLA BLA BLA BLA BLA BLA BLA BLA BLA BLA BLA BLA BLA BLA BLA BLA 
BLA BLA BLA BLA BLA BLA BLA BLA BLA BLA BLA BLA BLA BLA BLA BLA BLA BLA BLA BLA 
BLA BLA BLA BLA BLA BLA BLA BLA BLA BLA BLA BLA BLA BLA BLA BLA BLA BLA BLA BLA 
BLA BLA BLA BLA BLA BLA BLA BLA BLA BLA BLA BLA BLA BLA BLA BLA BLA BLA BLA BLA 
BLA BLA BLA BLA BLA BLA BLA BLA BLA BLA BLA BLA BLA BLA BLA BLA BLA BLA BLA BLA 
BLA BLA BLA BLA BLA BLA BLA BLA BLA BLA BLA BLA BLA BLA BLA BLA BLA BLA BLA BLA 
BLA BLA BLA BLA BLA BLA BLA BLA BLA BLA BLA BLA BLA BLA BLA BLA BLA BLA BLA BLA 
BLA BLA BLA BLA BLA BLA BLA BLA BLA BLA BLA BLA BLA BLA BLA BLA BLA BLA BLA BLA 
BLA BLA BLA BLA BLA BLA BLA BLA BLA BLA BLA BLA BLA BLA BLA BLA BLA BLA BLA BLA 
BLA BLA BLA BLA BLA BLA BLA BLA BLA BLA BLA BLA BLA BLA BLA BLA BLA BLA BLA BLA 
BLA BLA BLA BLA BLA BLA BLA BLA BLA BLA BLA BLA BLA BLA BLA BLA BLA BLA BLA BLA 
BLA BLA BLA BLA BLA BLA BLA BLA BLA BLA BLA BLA BLA BLA BLA BLA BLA BLA BLA BLA 
BLA BLA BLA BLA BLA BLA BLA BLA BLA BLA BLA BLA BLA BLA BLA BLA BLA BLA BLA BLA 
BLA BLA BLA BLA BLA BLA BLA BLA BLA BLA BLA BLA BLA BLA BLA BLA BLA BLA BLA BLA 
BLA BLA BLA BLA BLA BLA BLA BLA BLA BLA BLA BLA BLA BLA BLA BLA BLA BLA BLA BLA 
BLA BLA BLA BLA BLA BLA BLA BLA BLA BLA BLA BLA BLA BLA BLA BLA BLA BLA BLA BLA 
BLA BLA BLA BLA BLA BLA BLA BLA BLA BLA BLA BLA BLA BLA BLA BLA BLA BLA BLA BLA 
BLA BLA BLA BLA BLA BLA BLA BLA BLA BLA BLA BLA BLA BLA BLA BLA BLA BLA BLA BLA 
BLA BLA BLA BLA BLA BLA BLA BLA BLA BLA BLA BLA BLA BLA BLA BLA BLA BLA BLA BLA 
BLA BLA BLA BLA BLA BLA BLA BLA BLA BLA BLA BLA BLA BLA BLA BLA BLA BLA BLA BLA 
BLA BLA BLA BLA BLA BLA BLA BLA BLA BLA BLA BLA BLA BLA BLA BLA BLA BLA BLA BLA 
BLA BLA BLA BLA BLA BLA BLA BLA BLA BLA BLA BLA BLA BLA BLA BLA BLA BLA BLA BLA 
BLA BLA BLA BLA BLA BLA BLA BLA BLA BLA BLA BLA BLA BLA BLA BLA BLA BLA BLA BLA 
BLA BLA BLA BLA BLA BLA BLA BLA BLA BLA BLA BLA BLA BLA BLA BLA BLA BLA BLA BLA 
BLA BLA BLA BLA BLA BLA BLA BLA BLA BLA BLA BLA BLA BLA BLA BLA BLA BLA BLA BLA 
BLA BLA BLA BLA BLA BLA BLA BLA BLA BLA BLA BLA BLA BLA BLA BLA BLA BLA BLA BLA 
BLA BLA BLA BLA BLA BLA BLA BLA BLA BLA BLA BLA BLA BLA BLA BLA BLA BLA BLA BLA 
BLA BLA BLA BLA BLA BLA BLA BLA BLA BLA BLA BLA BLA BLA BLA BLA BLA BLA BLA BLA 
BLA BLA BLA BLA BLA BLA BLA BLA BLA BLA BLA BLA BLA BLA BLA BLA BLA BLA BLA BLA 
BLA BLA BLA BLA BLA BLA BLA BLA BLA BLA BLA BLA BLA BLA BLA BLA BLA BLA BLA BLA 
BLA BLA BLA BLA BLA BLA BLA BLA BLA BLA BLA BLA BLA BLA BLA BLA BLA BLA BLA BLA 
BLA BLA BLA BLA BLA BLA BLA BLA BLA BLA BLA BLA BLA BLA BLA BLA BLA BLA BLA BLA 
BLA BLA BLA BLA BLA BLA BLA BLA BLA BLA BLA BLA BLA BLA BLA BLA BLA BLA BLA BLA 
BLA BLA BLA BLA BLA BLA BLA BLA BLA BLA BLA BLA BLA BLA BLA BLA BLA BLA BLA BLA 
BLA BLA BLA BLA BLA BLA BLA BLA BLA BLA BLA BLA BLA BLA BLA BLA BLA BLA BLA BLA 
BLA BLA BLA BLA BLA BLA BLA BLA BLA BLA BLA BLA BLA BLA BLA BLA BLA BLA BLA BLA 
BLA BLA BLA BLA BLA BLA BLA BLA BLA BLA BLA BLA BLA BLA BLA BLA BLA BLA BLA BLA 
BLA BLA BLA BLA BLA BLA BLA BLA BLA BLA BLA BLA BLA BLA BLA BLA BLA BLA BLA BLA 
BLA BLA BLA BLA BLA BLA BLA BLA BLA BLA BLA BLA BLA BLA BLA BLA BLA BLA BLA BLA 
BLA BLA BLA BLA BLA BLA BLA BLA BLA BLA BLA BLA BLA BLA BLA BLA BLA BLA BLA BLA 
BLA BLA BLA BLA BLA BLA BLA BLA BLA BLA BLA BLA BLA BLA BLA BLA BLA BLA BLA BLA 
BLA BLA BLA BLA BLA BLA BLA BLA BLA BLA BLA BLA BLA BLA BLA BLA BLA BLA BLA BLA 
BLA BLA BLA BLA BLA BLA BLA BLA BLA BLA BLA BLA BLA BLA BLA BLA BLA BLA BLA BLA 
BLA BLA BLA BLA BLA BLA BLA BLA BLA BLA BLA BLA BLA BLA BLA BLA BLA BLA BLA BLA 
BLA BLA BLA BLA BLA BLA BLA BLA BLA BLA BLA BLA BLA BLA BLA BLA BLA BLA BLA BLA 
BLA BLA BLA BLA BLA BLA BLA BLA BLA BLA BLA BLA BLA BLA BLA BLA BLA BLA BLA BLA 
BLA BLA BLA BLA BLA BLA BLA BLA BLA BLA BLA BLA BLA BLA BLA BLA BLA BLA BLA BLA 
BLA BLA BLA BLA BLA BLA BLA BLA BLA BLA BLA BLA BLA BLA BLA BLA BLA BLA BLA BLA 
BLA BLA BLA BLA BLA BLA BLA BLA BLA BLA BLA BLA BLA BLA BLA BLA BLA BLA BLA BLA 
BLA BLA BLA BLA BLA BLA BLA BLA BLA BLA BLA BLA BLA BLA BLA BLA BLA BLA BLA BLA 
BLA BLA BLA BLA BLA BLA BLA BLA BLA BLA BLA BLA BLA BLA BLA BLA BLA BLA BLA BLA 
BLA BLA BLA BLA BLA BLA BLA BLA BLA BLA BLA BLA BLA BLA BLA BLA BLA BLA BLA BLA 
BLA BLA BLA BLA BLA BLA BLA BLA BLA BLA BLA BLA BLA BLA BLA BLA BLA BLA BLA BLA 
BLA BLA BLA BLA BLA BLA BLA BLA BLA BLA BLA BLA BLA BLA BLA BLA BLA BLA BLA BLA 
BLA BLA BLA BLA BLA BLA BLA BLA BLA BLA BLA BLA BLA BLA BLA BLA BLA BLA BLA BLA 
BLA BLA BLA BLA BLA BLA BLA BLA BLA BLA BLA BLA BLA BLA BLA BLA BLA BLA BLA BLA 
BLA BLA BLA BLA BLA BLA BLA BLA BLA BLA BLA BLA BLA BLA BLA BLA BLA BLA BLA BLA 
BLA BLA BLA BLA BLA BLA BLA BLA BLA BLA BLA BLA BLA BLA BLA BLA BLA BLA BLA BLA 
BLA BLA BLA BLA BLA BLA BLA BLA BLA BLA BLA BLA BLA BLA BLA BLA BLA BLA BLA BLA 
BLA BLA BLA BLA BLA BLA BLA BLA BLA BLA BLA BLA BLA BLA BLA BLA BLA BLA BLA BLA 
BLA BLA BLA BLA BLA BLA BLA BLA BLA BLA BLA BLA BLA BLA BLA BLA BLA BLA BLA BLA 
BLA BLA BLA BLA BLA BLA BLA BLA BLA BLA BLA BLA BLA BLA BLA BLA BLA BLA BLA BLA 
BLA BLA BLA BLA BLA BLA BLA BLA BLA BLA BLA BLA BLA BLA BLA BLA BLA BLA BLA BLA 
BLA BLA BLA BLA BLA BLA BLA BLA BLA BLA BLA BLA BLA BLA BLA BLA BLA BLA BLA BLA 
BLA BLA BLA BLA BLA BLA BLA BLA BLA BLA BLA BLA BLA BLA BLA BLA BLA BLA BLA BLA 
BLA BLA BLA BLA BLA BLA BLA BLA BLA BLA BLA BLA BLA BLA BLA BLA BLA BLA BLA BLA 
BLA BLA BLA BLA BLA BLA BLA BLA BLA BLA BLA BLA BLA BLA BLA BLA BLA BLA BLA BLA 
BLA BLA BLA BLA BLA BLA BLA BLA BLA BLA BLA BLA BLA BLA BLA BLA BLA BLA BLA BLA 
BLA BLA BLA BLA BLA BLA BLA BLA BLA BLA BLA BLA BLA BLA BLA BLA BLA BLA BLA BLA 
BLA BLA BLA BLA BLA BLA BLA BLA BLA BLA BLA BLA BLA BLA BLA BLA BLA BLA BLA BLA 
BLA BLA BLA BLA BLA BLA BLA BLA BLA BLA BLA BLA BLA BLA BLA BLA BLA BLA BLA BLA 
BLA BLA BLA BLA BLA BLA BLA BLA BLA BLA BLA BLA BLA BLA BLA BLA BLA BLA BLA BLA 
BLA BLA BLA BLA BLA BLA BLA BLA BLA BLA BLA BLA BLA BLA BLA BLA BLA BLA BLA BLA 
BLA BLA BLA BLA BLA BLA BLA BLA BLA BLA BLA BLA BLA BLA BLA BLA BLA BLA BLA BLA 
BLA BLA BLA BLA BLA BLA BLA BLA BLA BLA BLA BLA BLA BLA BLA BLA BLA BLA BLA BLA 
BLA BLA BLA BLA BLA BLA BLA BLA BLA BLA BLA BLA BLA BLA BLA BLA BLA BLA BLA BLA 
BLA BLA BLA BLA BLA BLA BLA BLA BLA BLA BLA BLA BLA BLA BLA BLA BLA BLA BLA BLA 
BLA BLA BLA BLA BLA BLA BLA BLA BLA BLA BLA BLA BLA BLA BLA BLA BLA BLA BLA BLA 
BLA BLA BLA BLA BLA BLA BLA BLA BLA BLA BLA BLA BLA BLA BLA BLA BLA BLA BLA BLA 
BLA BLA BLA BLA BLA BLA BLA BLA BLA BLA BLA BLA BLA BLA BLA BLA BLA BLA BLA BLA 
BLA BLA BLA BLA BLA BLA BLA BLA BLA BLA BLA BLA BLA BLA BLA BLA BLA BLA BLA BLA 
BLA BLA BLA BLA BLA BLA BLA BLA BLA BLA BLA BLA BLA BLA BLA BLA BLA BLA BLA BLA 
BLA BLA BLA BLA BLA BLA BLA BLA BLA BLA BLA BLA BLA BLA BLA BLA BLA BLA BLA BLA 
BLA BLA BLA BLA BLA BLA BLA BLA BLA BLA BLA BLA BLA BLA BLA BLA BLA BLA BLA BLA 
BLA BLA BLA BLA BLA BLA BLA BLA BLA BLA BLA BLA BLA BLA BLA BLA BLA BLA BLA BLA 
BLA BLA BLA BLA BLA BLA BLA BLA BLA BLA BLA BLA BLA BLA BLA BLA BLA BLA BLA BLA 
BLA BLA BLA BLA BLA BLA BLA BLA BLA BLA BLA BLA BLA BLA BLA BLA BLA BLA BLA BLA 
BLA BLA BLA BLA BLA BLA BLA BLA BLA BLA BLA BLA BLA BLA BLA BLA BLA BLA BLA BLA 
BLA BLA BLA BLA BLA BLA BLA BLA BLA BLA BLA BLA BLA BLA BLA BLA BLA BLA BLA BLA 
BLA BLA BLA BLA BLA BLA BLA BLA BLA BLA BLA BLA BLA BLA BLA BLA BLA BLA BLA BLA 
BLA BLA BLA BLA BLA BLA BLA BLA BLA BLA BLA BLA BLA BLA BLA BLA BLA BLA BLA BLA 
BLA BLA BLA BLA BLA BLA BLA BLA BLA BLA BLA BLA BLA BLA BLA BLA BLA BLA BLA BLA 
BLA BLA BLA BLA BLA BLA BLA BLA BLA BLA BLA BLA BLA BLA BLA BLA BLA BLA BLA BLA 
BLA BLA BLA BLA BLA BLA BLA BLA BLA BLA BLA BLA BLA BLA BLA BLA BLA BLA BLA BLA 
BLA BLA BLA BLA BLA BLA BLA BLA BLA BLA BLA BLA BLA BLA BLA BLA BLA BLA BLA BLA 
BLA BLA BLA BLA BLA BLA BLA BLA BLA BLA BLA BLA BLA BLA BLA BLA BLA BLA BLA BLA 
BLA BLA BLA BLA BLA BLA BLA BLA BLA BLA BLA BLA BLA BLA BLA BLA BLA BLA BLA BLA 
BLA BLA BLA BLA BLA BLA BLA BLA BLA BLA BLA BLA BLA BLA BLA BLA BLA BLA BLA BLA 
BLA BLA BLA BLA BLA BLA BLA BLA BLA BLA BLA BLA BLA BLA BLA BLA BLA BLA BLA BLA 
BLA BLA BLA BLA BLA BLA BLA BLA BLA BLA BLA BLA BLA BLA BLA BLA BLA BLA BLA BLA 
BLA BLA BLA BLA BLA BLA BLA BLA BLA BLA BLA BLA BLA BLA BLA BLA BLA BLA BLA BLA 
BLA BLA BLA BLA BLA BLA BLA BLA BLA BLA BLA BLA BLA BLA BLA BLA BLA BLA BLA BLA 
BLA BLA BLA BLA BLA BLA BLA BLA BLA BLA BLA BLA BLA BLA BLA BLA BLA BLA BLA BLA 
BLA BLA BLA BLA BLA BLA BLA BLA BLA BLA BLA BLA BLA BLA BLA BLA BLA BLA BLA BLA 
BLA BLA BLA BLA BLA BLA BLA BLA BLA BLA BLA BLA BLA BLA BLA BLA BLA BLA BLA BLA 
BLA BLA BLA BLA BLA BLA BLA BLA BLA BLA BLA BLA BLA BLA BLA BLA BLA BLA BLA BLA 
BLA BLA BLA BLA BLA BLA BLA BLA BLA BLA BLA BLA BLA BLA BLA BLA BLA BLA BLA BLA 
BLA BLA BLA BLA BLA BLA BLA BLA BLA BLA BLA BLA BLA BLA BLA BLA BLA BLA BLA BLA 
BLA BLA BLA BLA BLA BLA BLA BLA BLA BLA BLA BLA BLA BLA BLA BLA BLA BLA BLA BLA 
BLA BLA BLA BLA BLA BLA BLA BLA BLA BLA BLA BLA BLA BLA BLA BLA BLA BLA BLA BLA 
BLA BLA BLA BLA BLA BLA BLA BLA BLA BLA BLA BLA BLA BLA BLA BLA BLA BLA BLA BLA 
BLA BLA BLA BLA BLA BLA BLA BLA BLA BLA BLA BLA BLA BLA BLA BLA BLA BLA BLA BLA 
BLA BLA BLA BLA BLA BLA BLA BLA BLA BLA BLA BLA BLA BLA BLA BLA BLA BLA BLA BLA 
BLA BLA BLA BLA BLA BLA BLA BLA BLA BLA BLA BLA BLA BLA BLA BLA BLA BLA BLA BLA 
BLA BLA BLA BLA BLA BLA BLA BLA BLA BLA BLA BLA BLA BLA BLA BLA BLA BLA BLA BLA 
BLA BLA BLA BLA BLA BLA BLA BLA BLA BLA BLA BLA BLA BLA BLA BLA BLA BLA BLA BLA 
BLA BLA BLA BLA BLA BLA BLA BLA BLA BLA BLA BLA BLA BLA BLA BLA BLA BLA BLA BLA 
BLA BLA BLA BLA BLA BLA BLA BLA BLA BLA BLA BLA BLA BLA BLA BLA BLA BLA BLA BLA 
BLA BLA BLA BLA BLA BLA BLA BLA BLA BLA BLA BLA BLA BLA BLA BLA BLA BLA BLA BLA 
BLA BLA BLA BLA BLA BLA BLA BLA BLA BLA BLA BLA BLA BLA BLA BLA BLA BLA BLA BLA 
BLA BLA BLA BLA BLA BLA BLA BLA BLA BLA BLA BLA BLA BLA BLA BLA BLA BLA BLA BLA 
BLA BLA BLA BLA BLA BLA BLA BLA BLA BLA BLA BLA BLA BLA BLA BLA BLA BLA BLA BLA 
BLA BLA BLA BLA BLA BLA BLA BLA BLA BLA BLA BLA BLA BLA BLA BLA BLA BLA BLA BLA 
BLA BLA BLA BLA BLA BLA BLA BLA BLA BLA BLA BLA BLA BLA BLA BLA BLA BLA BLA BLA 
BLA BLA BLA BLA BLA BLA BLA BLA BLA BLA BLA BLA BLA BLA BLA BLA BLA BLA BLA BLA 
BLA BLA BLA BLA BLA BLA BLA BLA BLA BLA BLA BLA BLA BLA BLA BLA BLA BLA BLA BLA 
BLA BLA BLA BLA BLA BLA BLA BLA BLA BLA BLA BLA BLA BLA BLA BLA BLA BLA BLA BLA 
BLA BLA BLA BLA BLA BLA BLA BLA BLA BLA BLA BLA BLA BLA BLA BLA BLA BLA BLA BLA 
BLA BLA BLA BLA BLA BLA BLA BLA BLA BLA BLA BLA BLA BLA BLA BLA BLA BLA BLA BLA 
BLA BLA BLA BLA BLA BLA BLA BLA BLA BLA BLA BLA BLA BLA BLA BLA BLA BLA BLA BLA 
BLA BLA BLA BLA BLA BLA BLA BLA BLA BLA BLA BLA BLA BLA BLA BLA BLA BLA BLA BLA 
BLA BLA BLA BLA BLA BLA BLA BLA BLA BLA BLA BLA BLA BLA BLA BLA BLA BLA BLA BLA 
BLA BLA BLA BLA BLA BLA BLA BLA BLA BLA BLA BLA BLA BLA BLA BLA BLA BLA BLA BLA 
BLA BLA BLA BLA BLA BLA BLA BLA BLA BLA BLA BLA BLA BLA BLA BLA BLA BLA BLA BLA 
BLA BLA BLA BLA BLA BLA BLA BLA BLA BLA BLA BLA BLA BLA BLA BLA BLA BLA BLA BLA 
BLA BLA BLA BLA BLA BLA BLA BLA BLA BLA BLA BLA BLA BLA BLA BLA BLA BLA BLA BLA 
BLA BLA BLA BLA BLA BLA BLA BLA BLA BLA BLA BLA BLA BLA BLA BLA BLA BLA BLA BLA 
BLA BLA BLA BLA BLA BLA BLA BLA BLA BLA BLA BLA BLA BLA BLA BLA BLA BLA BLA BLA 
BLA BLA BLA BLA BLA BLA BLA BLA BLA BLA BLA BLA BLA BLA BLA BLA BLA BLA BLA BLA 
BLA BLA BLA BLA BLA BLA BLA BLA BLA BLA BLA BLA BLA BLA BLA BLA BLA BLA BLA BLA 
BLA BLA BLA BLA BLA BLA BLA BLA BLA BLA BLA BLA BLA BLA BLA BLA BLA BLA BLA BLA 
BLA BLA BLA BLA BLA BLA BLA BLA BLA BLA BLA BLA BLA BLA BLA BLA BLA BLA BLA BLA 
BLA BLA BLA BLA BLA BLA BLA BLA BLA BLA BLA BLA BLA BLA BLA BLA BLA BLA BLA BLA 
BLA BLA BLA BLA BLA BLA BLA BLA BLA BLA BLA BLA BLA BLA BLA BLA BLA BLA BLA BLA 
BLA BLA BLA BLA BLA BLA BLA BLA BLA BLA BLA BLA BLA BLA BLA BLA BLA BLA BLA BLA 
BLA BLA BLA BLA BLA BLA BLA BLA BLA BLA BLA BLA BLA BLA BLA BLA BLA BLA BLA BLA 
BLA BLA BLA BLA BLA BLA BLA BLA BLA BLA BLA BLA BLA BLA BLA BLA BLA BLA BLA BLA 
BLA BLA BLA BLA BLA BLA BLA BLA BLA BLA BLA BLA BLA BLA BLA BLA BLA BLA BLA BLA 
BLA BLA BLA BLA BLA BLA BLA BLA BLA BLA BLA BLA BLA BLA BLA BLA BLA BLA BLA BLA 
BLA BLA BLA BLA BLA BLA BLA BLA BLA BLA BLA BLA BLA BLA BLA BLA BLA BLA BLA BLA 
BLA BLA BLA BLA BLA BLA BLA BLA BLA BLA BLA BLA BLA BLA BLA BLA BLA BLA BLA BLA 
BLA BLA BLA BLA BLA BLA BLA BLA BLA BLA BLA BLA BLA BLA BLA BLA BLA BLA BLA BLA 
BLA BLA BLA BLA BLA BLA BLA BLA BLA BLA BLA BLA BLA BLA BLA BLA BLA BLA BLA BLA 
BLA BLA BLA BLA BLA BLA BLA BLA BLA BLA BLA BLA BLA BLA BLA BLA BLA BLA BLA BLA 
BLA BLA BLA BLA BLA BLA BLA BLA BLA BLA BLA BLA BLA BLA BLA BLA BLA BLA BLA BLA 
BLA BLA BLA BLA BLA BLA BLA BLA BLA BLA BLA BLA BLA BLA BLA BLA BLA BLA BLA BLA 
BLA BLA BLA BLA BLA BLA BLA BLA BLA BLA BLA BLA BLA BLA BLA BLA BLA BLA BLA BLA 
BLA BLA BLA BLA BLA BLA BLA BLA BLA BLA BLA BLA BLA BLA BLA BLA BLA BLA BLA BLA 
BLA BLA BLA BLA BLA BLA BLA BLA BLA BLA BLA BLA BLA BLA BLA BLA BLA BLA BLA BLA 
BLA BLA BLA BLA BLA BLA BLA BLA BLA BLA BLA BLA BLA BLA BLA BLA BLA BLA BLA BLA 
BLA BLA BLA BLA BLA BLA BLA BLA BLA BLA BLA BLA BLA BLA BLA BLA BLA BLA BLA BLA 
BLA BLA BLA BLA BLA BLA BLA BLA BLA BLA BLA BLA BLA BLA BLA BLA BLA BLA BLA BLA 
BLA BLA BLA BLA BLA BLA BLA BLA BLA BLA BLA BLA BLA BLA BLA BLA BLA BLA BLA BLA 
BLA BLA BLA BLA BLA BLA BLA BLA BLA BLA BLA BLA BLA BLA BLA BLA BLA BLA BLA BLA 
BLA BLA BLA BLA BLA BLA BLA BLA BLA BLA BLA BLA BLA BLA BLA BLA BLA BLA BLA BLA 
BLA BLA BLA BLA BLA BLA BLA BLA BLA BLA BLA BLA BLA BLA BLA BLA BLA BLA BLA BLA 
BLA BLA BLA BLA BLA BLA BLA BLA BLA BLA BLA BLA BLA BLA BLA BLA BLA BLA BLA BLA 
BLA BLA BLA BLA BLA BLA BLA BLA BLA BLA BLA BLA BLA BLA BLA BLA BLA BLA BLA BLA 
BLA BLA BLA BLA BLA BLA BLA BLA BLA BLA BLA BLA BLA BLA BLA BLA BLA BLA BLA BLA 
BLA BLA BLA BLA BLA BLA BLA BLA BLA BLA BLA BLA BLA BLA BLA BLA BLA BLA BLA BLA 
BLA BLA BLA BLA BLA BLA BLA BLA BLA BLA BLA BLA BLA BLA BLA BLA BLA BLA BLA BLA 
BLA BLA BLA BLA BLA BLA BLA BLA BLA BLA BLA BLA BLA BLA BLA BLA BLA BLA BLA BLA 
BLA BLA BLA BLA BLA BLA BLA BLA BLA BLA BLA BLA BLA BLA BLA BLA BLA BLA BLA BLA 
BLA BLA BLA BLA BLA BLA BLA BLA BLA BLA BLA BLA BLA BLA BLA BLA BLA BLA BLA BLA 
BLA BLA BLA BLA BLA BLA BLA BLA BLA BLA BLA BLA BLA BLA BLA BLA BLA BLA BLA BLA 
BLA BLA BLA BLA BLA BLA BLA BLA BLA BLA BLA BLA BLA BLA BLA BLA BLA BLA BLA BLA 
BLA BLA BLA BLA BLA BLA BLA BLA BLA BLA BLA BLA BLA BLA BLA BLA BLA BLA BLA BLA 
BLA BLA BLA BLA BLA BLA BLA BLA BLA BLA BLA BLA BLA BLA BLA BLA BLA BLA BLA BLA 
BLA BLA BLA BLA BLA BLA BLA BLA BLA BLA BLA BLA BLA BLA BLA BLA BLA BLA BLA BLA 
BLA BLA BLA BLA BLA BLA BLA BLA BLA BLA BLA BLA BLA BLA BLA BLA BLA BLA BLA BLA 
BLA BLA BLA BLA BLA BLA BLA BLA BLA BLA BLA BLA BLA BLA BLA BLA BLA BLA BLA BLA 
BLA BLA BLA BLA BLA BLA BLA BLA BLA BLA BLA BLA BLA BLA BLA BLA BLA BLA BLA BLA 
BLA BLA BLA BLA BLA BLA BLA BLA BLA BLA BLA BLA BLA BLA BLA BLA BLA BLA BLA BLA 
BLA BLA BLA BLA BLA BLA BLA BLA BLA BLA BLA BLA BLA BLA BLA BLA BLA BLA BLA BLA 
BLA BLA BLA BLA BLA BLA BLA BLA BLA BLA BLA BLA BLA BLA BLA BLA BLA BLA BLA BLA 
BLA BLA BLA BLA BLA BLA BLA BLA BLA BLA BLA BLA BLA BLA BLA BLA BLA BLA BLA BLA 
BLA BLA BLA BLA BLA BLA BLA BLA BLA BLA BLA BLA BLA BLA BLA BLA BLA BLA BLA BLA 
BLA BLA BLA BLA BLA BLA BLA BLA BLA BLA BLA BLA BLA BLA BLA BLA BLA BLA BLA BLA 
BLA BLA BLA BLA BLA BLA BLA BLA BLA BLA BLA BLA BLA BLA BLA BLA BLA BLA BLA BLA 
BLA BLA BLA BLA BLA BLA BLA BLA BLA BLA BLA BLA BLA BLA BLA BLA BLA BLA BLA BLA 
BLA BLA BLA BLA BLA BLA BLA BLA BLA BLA BLA BLA BLA BLA BLA BLA BLA BLA BLA BLA 
BLA BLA BLA BLA BLA BLA BLA BLA BLA BLA BLA BLA BLA BLA BLA BLA BLA BLA BLA BLA 
BLA BLA BLA BLA BLA BLA BLA BLA BLA BLA BLA BLA BLA BLA BLA BLA BLA BLA BLA BLA 
BLA BLA BLA BLA BLA BLA BLA BLA BLA BLA BLA BLA BLA BLA BLA BLA BLA BLA BLA BLA 
BLA BLA BLA BLA BLA BLA BLA BLA BLA BLA BLA BLA BLA BLA BLA BLA BLA BLA BLA BLA 
BLA BLA BLA BLA BLA BLA BLA BLA BLA BLA BLA BLA BLA BLA BLA BLA BLA BLA BLA BLA 
BLA BLA BLA BLA BLA BLA BLA BLA BLA BLA BLA BLA BLA BLA BLA BLA BLA BLA BLA BLA 
BLA BLA BLA BLA BLA BLA BLA BLA BLA BLA BLA BLA BLA BLA BLA BLA BLA BLA BLA BLA 
BLA BLA BLA BLA BLA BLA BLA BLA BLA BLA BLA BLA BLA BLA BLA BLA BLA BLA BLA BLA 
BLA BLA BLA BLA BLA BLA BLA BLA BLA BLA BLA BLA BLA BLA BLA BLA BLA BLA BLA BLA 
BLA BLA BLA BLA BLA BLA BLA BLA BLA BLA BLA BLA BLA BLA BLA BLA BLA BLA BLA BLA 
BLA BLA BLA BLA BLA BLA BLA BLA BLA BLA BLA BLA BLA BLA BLA BLA BLA BLA BLA BLA 
BLA BLA BLA BLA BLA BLA BLA BLA BLA BLA BLA BLA BLA BLA BLA BLA BLA BLA BLA BLA 
BLA BLA BLA BLA BLA BLA BLA BLA BLA BLA BLA BLA BLA BLA BLA BLA BLA BLA BLA BLA 
BLA BLA BLA BLA BLA BLA BLA BLA BLA BLA BLA BLA BLA BLA BLA BLA BLA BLA BLA BLA 
BLA BLA BLA BLA BLA BLA BLA BLA BLA BLA BLA BLA BLA BLA BLA BLA BLA BLA BLA BLA 
BLA BLA BLA BLA BLA BLA BLA BLA BLA BLA BLA BLA BLA BLA BLA BLA BLA BLA BLA BLA 
BLA BLA BLA BLA BLA BLA BLA BLA BLA BLA BLA BLA BLA BLA BLA BLA BLA BLA BLA BLA 
BLA BLA BLA BLA BLA BLA BLA BLA BLA BLA BLA BLA BLA BLA BLA BLA BLA BLA BLA BLA 
BLA BLA BLA BLA BLA BLA BLA BLA BLA BLA BLA BLA BLA BLA BLA BLA BLA BLA BLA BLA 
BLA BLA BLA BLA BLA BLA BLA BLA BLA BLA BLA BLA BLA BLA BLA BLA BLA BLA BLA BLA 
BLA BLA BLA BLA BLA BLA BLA BLA BLA BLA BLA BLA BLA BLA BLA BLA BLA BLA BLA BLA 
BLA BLA BLA BLA BLA BLA BLA BLA BLA BLA BLA BLA BLA BLA BLA BLA BLA BLA BLA BLA 
BLA BLA BLA BLA BLA BLA BLA BLA BLA BLA BLA BLA BLA BLA BLA BLA BLA BLA BLA BLA 
BLA BLA BLA BLA BLA BLA BLA BLA BLA BLA BLA BLA BLA BLA BLA BLA BLA BLA BLA BLA 
BLA BLA BLA BLA BLA BLA BLA BLA BLA BLA BLA BLA BLA BLA BLA BLA BLA BLA BLA BLA 
BLA BLA BLA BLA BLA BLA BLA BLA BLA BLA BLA BLA BLA BLA BLA BLA BLA BLA BLA BLA 
BLA BLA BLA BLA BLA BLA BLA BLA BLA BLA BLA BLA BLA BLA BLA BLA BLA BLA BLA BLA 
BLA BLA BLA BLA BLA BLA BLA BLA BLA BLA BLA BLA BLA BLA BLA BLA BLA BLA BLA BLA 
BLA BLA BLA BLA BLA BLA BLA BLA BLA BLA BLA BLA BLA BLA BLA BLA BLA BLA BLA BLA 
BLA BLA BLA BLA BLA BLA BLA BLA BLA BLA BLA BLA BLA BLA BLA BLA BLA BLA BLA BLA 
BLA BLA BLA BLA BLA BLA BLA BLA BLA BLA BLA BLA BLA BLA BLA BLA BLA BLA BLA BLA 
BLA BLA BLA BLA BLA BLA BLA BLA BLA BLA BLA BLA BLA BLA BLA BLA BLA BLA BLA BLA 
BLA BLA BLA BLA BLA BLA BLA BLA BLA BLA BLA BLA BLA BLA BLA BLA BLA BLA BLA BLA 
BLA BLA BLA BLA BLA BLA BLA BLA BLA BLA BLA BLA BLA BLA BLA BLA BLA BLA BLA BLA 
BLA BLA BLA BLA BLA BLA BLA BLA BLA BLA BLA BLA BLA BLA BLA BLA BLA BLA BLA BLA 
BLA BLA BLA BLA BLA BLA BLA BLA BLA BLA BLA BLA BLA BLA BLA BLA BLA BLA BLA BLA 
BLA BLA BLA BLA BLA BLA BLA BLA BLA BLA BLA BLA BLA BLA BLA BLA BLA BLA BLA BLA 
BLA BLA BLA BLA BLA BLA BLA BLA BLA BLA BLA BLA BLA BLA BLA BLA BLA BLA BLA BLA 
BLA BLA BLA BLA BLA BLA BLA BLA BLA BLA BLA BLA BLA BLA BLA BLA BLA BLA BLA BLA 
BLA BLA BLA BLA BLA BLA BLA BLA BLA BLA BLA BLA BLA BLA BLA BLA BLA BLA BLA BLA 
BLA BLA BLA BLA BLA BLA BLA BLA BLA BLA BLA BLA BLA BLA BLA BLA BLA BLA BLA BLA 
BLA BLA BLA BLA BLA BLA BLA BLA BLA BLA BLA BLA BLA BLA BLA BLA BLA BLA BLA BLA 
BLA BLA BLA BLA BLA BLA BLA BLA BLA BLA BLA BLA BLA BLA BLA BLA BLA BLA BLA BLA 
BLA BLA BLA BLA BLA BLA BLA BLA BLA BLA BLA BLA BLA BLA BLA BLA BLA BLA BLA BLA 
BLA BLA BLA BLA BLA BLA BLA BLA BLA BLA BLA BLA BLA BLA BLA BLA BLA BLA BLA BLA 
BLA BLA BLA BLA BLA BLA BLA BLA BLA BLA BLA BLA BLA BLA BLA BLA BLA BLA BLA BLA 
BLA BLA BLA BLA BLA BLA BLA BLA BLA BLA BLA BLA BLA BLA BLA BLA BLA BLA BLA BLA 
BLA BLA BLA BLA BLA BLA BLA BLA BLA BLA BLA BLA BLA BLA BLA BLA BLA BLA BLA BLA 
BLA BLA BLA BLA BLA BLA BLA BLA BLA BLA BLA BLA BLA BLA BLA BLA BLA BLA BLA BLA 
BLA BLA BLA BLA BLA BLA BLA BLA BLA BLA BLA BLA BLA BLA BLA BLA BLA BLA BLA BLA 
BLA BLA BLA BLA BLA BLA BLA BLA BLA BLA BLA BLA BLA BLA BLA BLA BLA BLA BLA BLA 
BLA BLA BLA BLA BLA BLA BLA BLA BLA BLA BLA BLA BLA BLA BLA BLA BLA BLA BLA BLA 
BLA BLA BLA BLA BLA BLA BLA BLA BLA BLA BLA BLA BLA BLA BLA BLA BLA BLA BLA BLA 
BLA BLA BLA BLA BLA BLA BLA BLA BLA BLA BLA BLA BLA BLA BLA BLA BLA BLA BLA BLA 
BLA BLA BLA BLA BLA BLA BLA BLA BLA BLA BLA BLA BLA BLA BLA BLA BLA BLA BLA BLA 
BLA BLA BLA BLA BLA BLA BLA BLA BLA BLA BLA BLA BLA BLA BLA BLA BLA BLA BLA BLA 
BLA BLA BLA BLA BLA BLA BLA BLA BLA BLA BLA BLA BLA BLA BLA BLA BLA BLA BLA BLA 
BLA BLA BLA BLA BLA BLA BLA BLA BLA BLA BLA BLA BLA BLA BLA BLA BLA BLA BLA BLA 
BLA BLA BLA BLA BLA BLA BLA BLA BLA BLA BLA BLA BLA BLA BLA BLA BLA BLA BLA BLA 
BLA BLA BLA BLA BLA BLA BLA BLA BLA BLA BLA BLA BLA BLA BLA BLA BLA BLA BLA BLA 
BLA BLA BLA BLA BLA BLA BLA BLA BLA BLA BLA BLA BLA BLA BLA BLA BLA BLA BLA BLA 
BLA BLA BLA BLA BLA BLA BLA BLA BLA BLA BLA BLA BLA BLA BLA BLA BLA BLA BLA BLA 
BLA BLA BLA BLA BLA BLA BLA BLA BLA BLA BLA BLA BLA BLA BLA BLA BLA BLA BLA BLA 
BLA BLA BLA BLA BLA BLA BLA BLA BLA BLA BLA BLA BLA BLA BLA BLA BLA BLA BLA BLA 
BLA BLA BLA BLA BLA BLA BLA BLA BLA BLA BLA BLA BLA BLA BLA BLA BLA BLA BLA BLA 
BLA BLA BLA BLA BLA BLA BLA BLA BLA BLA BLA BLA BLA BLA BLA BLA BLA BLA BLA BLA 
BLA BLA BLA BLA BLA BLA BLA BLA BLA BLA BLA BLA BLA BLA BLA BLA BLA BLA BLA BLA 
BLA BLA BLA BLA BLA BLA BLA BLA BLA BLA BLA BLA BLA BLA BLA BLA BLA BLA BLA BLA 
BLA BLA BLA BLA BLA BLA BLA BLA BLA BLA BLA BLA BLA BLA BLA BLA BLA BLA BLA BLA 
BLA BLA BLA BLA BLA BLA BLA BLA BLA BLA BLA BLA BLA BLA BLA BLA BLA BLA BLA BLA 
BLA BLA BLA BLA BLA BLA BLA BLA BLA BLA BLA BLA BLA BLA BLA BLA BLA BLA BLA BLA 
BLA BLA BLA BLA BLA BLA BLA BLA BLA BLA BLA BLA BLA BLA BLA BLA BLA BLA BLA BLA 
BLA BLA BLA BLA BLA BLA BLA BLA BLA BLA BLA BLA BLA BLA BLA BLA BLA BLA BLA BLA 
BLA BLA BLA BLA BLA BLA BLA BLA BLA BLA BLA BLA BLA BLA BLA BLA BLA BLA BLA BLA 
BLA BLA BLA BLA BLA BLA BLA BLA BLA BLA BLA BLA BLA BLA BLA BLA BLA BLA BLA BLA 
BLA BLA BLA BLA BLA BLA BLA BLA BLA BLA BLA BLA BLA BLA BLA BLA BLA BLA BLA BLA 
BLA BLA BLA BLA BLA BLA BLA BLA BLA BLA BLA BLA BLA BLA BLA BLA BLA BLA BLA BLA 
BLA BLA BLA BLA BLA BLA BLA BLA BLA BLA BLA BLA BLA BLA BLA BLA BLA BLA BLA BLA 
BLA BLA BLA BLA BLA BLA BLA BLA BLA BLA BLA BLA BLA BLA BLA BLA BLA BLA BLA BLA 
BLA BLA BLA BLA BLA BLA BLA BLA BLA BLA BLA BLA BLA BLA BLA BLA BLA BLA BLA BLA 
BLA BLA BLA BLA BLA BLA BLA BLA BLA BLA BLA BLA BLA BLA BLA BLA BLA BLA BLA BLA 
BLA BLA BLA BLA BLA BLA BLA BLA BLA BLA BLA BLA BLA BLA BLA BLA BLA BLA BLA BLA 
BLA BLA BLA BLA BLA BLA BLA BLA BLA BLA BLA BLA BLA BLA BLA BLA BLA BLA BLA BLA 
BLA BLA BLA BLA BLA BLA BLA BLA BLA BLA BLA BLA BLA BLA BLA BLA BLA BLA BLA BLA 
BLA BLA BLA BLA BLA BLA BLA BLA BLA BLA BLA BLA BLA BLA BLA BLA BLA BLA BLA BLA 
BLA BLA BLA BLA BLA BLA BLA BLA BLA BLA BLA BLA BLA BLA BLA BLA BLA BLA BLA BLA 
BLA BLA BLA BLA BLA BLA BLA BLA BLA BLA BLA BLA BLA BLA BLA BLA BLA BLA BLA BLA 
BLA BLA BLA BLA BLA BLA BLA BLA BLA BLA BLA BLA BLA BLA BLA BLA BLA BLA BLA BLA 
BLA BLA BLA BLA BLA BLA BLA BLA BLA BLA BLA BLA BLA BLA BLA BLA BLA BLA BLA BLA 
BLA BLA BLA BLA BLA BLA BLA BLA BLA BLA BLA BLA BLA BLA BLA BLA BLA BLA BLA BLA 
BLA BLA BLA BLA BLA BLA BLA BLA BLA BLA BLA BLA BLA BLA BLA BLA BLA BLA BLA BLA 
BLA BLA BLA BLA BLA BLA BLA BLA BLA BLA BLA BLA BLA BLA BLA BLA BLA BLA BLA BLA 
BLA BLA BLA BLA BLA BLA BLA BLA BLA BLA BLA BLA BLA BLA BLA BLA BLA BLA BLA BLA 
BLA BLA BLA BLA BLA BLA BLA BLA BLA BLA BLA BLA BLA BLA BLA BLA BLA BLA BLA BLA 
BLA BLA BLA BLA BLA BLA BLA BLA BLA BLA BLA BLA BLA BLA BLA BLA BLA BLA BLA BLA 
BLA BLA BLA BLA BLA BLA BLA BLA BLA BLA BLA BLA BLA BLA BLA BLA BLA BLA BLA BLA 
BLA BLA BLA BLA BLA BLA BLA BLA BLA BLA BLA BLA BLA BLA BLA BLA BLA BLA BLA BLA 
BLA BLA BLA BLA BLA BLA BLA BLA BLA BLA BLA BLA BLA BLA BLA BLA BLA BLA BLA BLA 
BLA BLA BLA BLA BLA BLA BLA BLA BLA BLA BLA BLA BLA BLA BLA BLA BLA BLA BLA BLA 
BLA BLA BLA BLA BLA BLA BLA BLA BLA BLA BLA BLA BLA BLA BLA BLA BLA BLA BLA BLA 
BLA BLA BLA BLA BLA BLA BLA BLA BLA BLA BLA BLA BLA BLA BLA BLA BLA BLA BLA BLA 
BLA BLA BLA BLA BLA BLA BLA BLA BLA BLA BLA BLA BLA BLA BLA BLA BLA BLA BLA BLA 
BLA BLA BLA BLA BLA BLA BLA BLA BLA BLA BLA BLA BLA BLA BLA BLA BLA BLA BLA BLA 
BLA BLA BLA BLA BLA BLA BLA BLA BLA BLA BLA BLA BLA BLA BLA BLA BLA BLA BLA BLA 
BLA BLA BLA BLA BLA BLA BLA BLA BLA BLA BLA BLA BLA BLA BLA BLA BLA BLA BLA BLA 
BLA BLA BLA BLA BLA BLA BLA BLA BLA BLA BLA BLA BLA BLA BLA BLA BLA BLA BLA BLA 
BLA BLA BLA BLA BLA BLA BLA BLA BLA BLA BLA BLA BLA BLA BLA BLA BLA BLA BLA BLA 
BLA BLA BLA BLA BLA BLA BLA BLA BLA BLA BLA BLA BLA BLA BLA BLA BLA BLA BLA BLA 
BLA BLA BLA BLA BLA BLA BLA BLA BLA BLA BLA BLA BLA BLA BLA BLA BLA BLA BLA BLA 
BLA BLA BLA BLA BLA BLA BLA BLA BLA BLA BLA BLA BLA BLA BLA BLA BLA BLA BLA BLA 
BLA BLA BLA BLA BLA BLA BLA BLA BLA BLA BLA BLA BLA BLA BLA BLA BLA BLA BLA BLA 
BLA BLA BLA BLA BLA BLA BLA BLA BLA BLA BLA BLA BLA BLA BLA BLA BLA BLA BLA BLA 
BLA BLA BLA BLA BLA BLA BLA BLA BLA BLA BLA BLA BLA BLA BLA BLA BLA BLA BLA BLA 
BLA BLA BLA BLA BLA BLA BLA BLA BLA BLA BLA BLA BLA BLA BLA BLA BLA BLA BLA BLA 
BLA BLA BLA BLA BLA BLA BLA BLA BLA BLA BLA BLA BLA BLA BLA BLA BLA BLA BLA BLA 
BLA BLA BLA BLA BLA BLA BLA BLA BLA BLA BLA BLA BLA BLA BLA BLA BLA BLA BLA BLA 
BLA BLA BLA BLA BLA BLA BLA BLA BLA BLA BLA BLA BLA BLA BLA BLA BLA BLA BLA BLA 
BLA BLA BLA BLA BLA BLA BLA BLA BLA BLA BLA BLA BLA BLA BLA BLA BLA BLA BLA BLA 
BLA BLA BLA BLA BLA BLA BLA BLA BLA BLA BLA BLA BLA BLA BLA BLA BLA BLA BLA BLA 
BLA BLA BLA BLA BLA BLA BLA BLA BLA BLA BLA BLA BLA BLA BLA BLA BLA BLA BLA BLA 
BLA BLA BLA BLA BLA BLA BLA BLA BLA BLA BLA BLA BLA BLA BLA BLA BLA BLA BLA BLA 
BLA BLA BLA BLA BLA BLA BLA BLA BLA BLA BLA BLA BLA BLA BLA BLA BLA BLA BLA BLA 
BLA BLA BLA BLA BLA BLA BLA BLA BLA BLA BLA BLA BLA BLA BLA BLA BLA BLA BLA BLA 
BLA BLA BLA BLA BLA BLA BLA BLA BLA BLA BLA BLA BLA BLA BLA BLA BLA BLA BLA BLA 
BLA BLA BLA BLA BLA BLA BLA BLA BLA BLA BLA BLA BLA BLA BLA BLA BLA BLA BLA BLA 
BLA BLA BLA BLA BLA BLA BLA BLA BLA BLA BLA BLA BLA BLA BLA BLA BLA BLA BLA BLA 
BLA BLA BLA BLA BLA BLA BLA BLA BLA BLA BLA BLA BLA BLA BLA BLA BLA BLA BLA BLA 
BLA BLA BLA BLA BLA BLA BLA BLA BLA BLA BLA BLA BLA BLA BLA BLA BLA BLA BLA BLA 
BLA BLA BLA BLA BLA BLA BLA BLA BLA BLA BLA BLA BLA BLA BLA BLA BLA BLA BLA BLA 
BLA BLA BLA BLA BLA BLA BLA BLA BLA BLA BLA BLA BLA BLA BLA BLA BLA BLA BLA BLA 
BLA BLA BLA BLA BLA BLA BLA BLA BLA BLA BLA BLA BLA BLA BLA BLA BLA BLA BLA BLA 
BLA BLA BLA BLA BLA BLA BLA BLA BLA BLA BLA BLA BLA BLA BLA BLA BLA BLA BLA BLA 
BLA BLA BLA BLA BLA BLA BLA BLA BLA BLA BLA BLA BLA BLA BLA BLA BLA BLA BLA BLA 
BLA BLA BLA BLA BLA BLA BLA BLA BLA BLA BLA BLA BLA BLA BLA BLA BLA BLA BLA BLA 
BLA BLA BLA BLA BLA BLA BLA BLA BLA BLA BLA BLA BLA BLA BLA BLA BLA BLA BLA BLA 
BLA BLA BLA BLA BLA BLA BLA BLA BLA BLA BLA BLA BLA BLA BLA BLA BLA BLA BLA BLA 
BLA BLA BLA BLA BLA BLA BLA BLA BLA BLA BLA BLA BLA BLA BLA BLA BLA BLA BLA BLA 
BLA BLA BLA BLA BLA BLA BLA BLA BLA BLA BLA BLA BLA BLA BLA BLA BLA BLA BLA BLA 
BLA BLA BLA BLA BLA BLA BLA BLA BLA BLA BLA BLA BLA BLA BLA BLA BLA BLA BLA BLA 
BLA BLA BLA BLA BLA BLA BLA BLA BLA BLA BLA BLA BLA BLA BLA BLA BLA BLA BLA BLA 
BLA BLA BLA BLA BLA BLA BLA BLA BLA BLA BLA BLA BLA BLA BLA BLA BLA BLA BLA BLA 
BLA BLA BLA BLA BLA BLA BLA BLA BLA BLA BLA BLA BLA BLA BLA BLA BLA BLA BLA BLA 
BLA BLA BLA BLA BLA BLA BLA BLA BLA BLA BLA BLA BLA BLA BLA BLA BLA BLA BLA BLA 
BLA BLA BLA BLA BLA BLA BLA BLA BLA BLA BLA BLA BLA BLA BLA BLA BLA BLA BLA BLA 
BLA BLA BLA BLA BLA BLA BLA BLA BLA BLA BLA BLA BLA BLA BLA BLA BLA BLA BLA BLA 
BLA BLA BLA BLA BLA BLA BLA BLA BLA BLA BLA BLA BLA BLA BLA BLA BLA BLA BLA BLA 
BLA BLA BLA BLA BLA BLA BLA BLA BLA BLA BLA BLA BLA BLA BLA BLA BLA BLA BLA BLA 
BLA BLA BLA BLA BLA BLA BLA BLA BLA BLA BLA BLA BLA BLA BLA BLA BLA BLA BLA BLA 
BLA BLA BLA BLA BLA BLA BLA BLA BLA BLA BLA BLA BLA BLA BLA BLA BLA BLA BLA BLA 
BLA BLA BLA BLA BLA BLA BLA BLA BLA BLA BLA BLA BLA BLA BLA BLA BLA BLA BLA BLA 
BLA BLA BLA BLA BLA BLA BLA BLA BLA BLA BLA BLA BLA BLA BLA BLA BLA BLA BLA BLA 
BLA BLA BLA BLA BLA BLA BLA BLA BLA BLA BLA BLA BLA BLA BLA BLA BLA BLA BLA BLA 
BLA BLA BLA BLA BLA BLA BLA BLA BLA BLA BLA BLA BLA BLA BLA BLA BLA BLA BLA BLA 
BLA BLA BLA BLA BLA BLA BLA BLA BLA BLA BLA BLA BLA BLA BLA BLA BLA BLA BLA BLA 
BLA BLA BLA BLA BLA BLA BLA BLA BLA BLA BLA BLA BLA BLA BLA BLA BLA BLA BLA BLA 
BLA BLA BLA BLA BLA BLA BLA BLA BLA BLA BLA BLA BLA BLA BLA BLA BLA BLA BLA BLA 
BLA BLA BLA BLA BLA BLA BLA BLA BLA BLA BLA BLA BLA BLA BLA BLA BLA BLA BLA BLA 
BLA BLA BLA BLA BLA BLA BLA BLA BLA BLA BLA BLA BLA BLA BLA BLA BLA BLA BLA BLA 
BLA BLA BLA BLA BLA BLA BLA BLA BLA BLA BLA BLA BLA BLA BLA BLA BLA BLA BLA BLA 
BLA BLA BLA BLA BLA BLA BLA BLA BLA BLA BLA BLA BLA BLA BLA BLA BLA BLA BLA BLA 
BLA BLA BLA BLA BLA BLA BLA BLA BLA BLA BLA BLA BLA BLA BLA BLA BLA BLA BLA BLA 
BLA BLA BLA BLA BLA BLA BLA BLA BLA BLA BLA BLA BLA BLA BLA BLA BLA BLA BLA BLA 
BLA BLA BLA BLA BLA BLA BLA BLA BLA BLA BLA BLA BLA BLA BLA BLA BLA BLA BLA BLA 
BLA BLA BLA BLA BLA BLA BLA BLA BLA BLA BLA BLA BLA BLA BLA BLA BLA BLA BLA BLA 
BLA BLA BLA BLA BLA BLA BLA BLA BLA BLA BLA BLA BLA BLA BLA BLA BLA BLA BLA BLA 
BLA BLA BLA BLA BLA BLA BLA BLA BLA BLA BLA BLA BLA BLA BLA BLA BLA BLA BLA BLA 
BLA BLA BLA BLA BLA BLA BLA BLA BLA BLA BLA BLA BLA BLA BLA BLA BLA BLA BLA BLA 
BLA BLA BLA BLA BLA BLA BLA BLA BLA BLA BLA BLA BLA BLA BLA BLA BLA BLA BLA BLA 
BLA BLA BLA BLA BLA BLA BLA BLA BLA BLA BLA BLA BLA BLA BLA BLA BLA BLA BLA BLA 
BLA BLA BLA BLA BLA BLA BLA BLA BLA BLA BLA BLA BLA BLA BLA BLA BLA BLA BLA BLA 
BLA BLA BLA BLA BLA BLA BLA BLA BLA BLA BLA BLA BLA BLA BLA BLA BLA BLA BLA BLA 
BLA BLA BLA BLA BLA BLA BLA BLA BLA BLA BLA BLA BLA BLA BLA BLA BLA BLA BLA BLA 
BLA BLA BLA BLA BLA BLA BLA BLA BLA BLA BLA BLA BLA BLA BLA BLA BLA BLA BLA BLA 
BLA BLA BLA BLA BLA BLA BLA BLA BLA BLA BLA BLA BLA BLA BLA BLA BLA BLA BLA BLA 
BLA BLA BLA BLA BLA BLA BLA BLA BLA BLA BLA BLA BLA BLA BLA BLA BLA BLA BLA BLA 
BLA BLA BLA BLA BLA BLA BLA BLA BLA BLA BLA BLA BLA BLA BLA BLA BLA BLA BLA BLA 
BLA BLA BLA BLA BLA BLA BLA BLA BLA BLA BLA BLA BLA BLA BLA BLA BLA BLA BLA BLA 
BLA BLA BLA BLA BLA BLA BLA BLA BLA BLA BLA BLA BLA BLA BLA BLA BLA BLA BLA BLA 
BLA BLA BLA BLA BLA BLA BLA BLA BLA BLA BLA BLA BLA BLA BLA BLA BLA BLA BLA BLA 
BLA BLA BLA BLA BLA BLA BLA BLA BLA BLA BLA BLA BLA BLA BLA BLA BLA BLA BLA BLA 
BLA BLA BLA BLA BLA BLA BLA BLA BLA BLA BLA BLA BLA BLA BLA BLA BLA BLA BLA BLA 
BLA BLA BLA BLA BLA BLA BLA BLA BLA BLA BLA BLA BLA BLA BLA BLA BLA BLA BLA BLA 
BLA BLA BLA BLA BLA BLA BLA BLA BLA BLA BLA BLA BLA BLA BLA BLA BLA BLA BLA BLA 
BLA BLA BLA BLA BLA BLA BLA BLA BLA BLA BLA BLA BLA BLA BLA BLA BLA BLA BLA BLA 
BLA BLA BLA BLA BLA BLA BLA BLA BLA BLA BLA BLA BLA BLA BLA BLA BLA BLA BLA BLA 
BLA BLA BLA BLA BLA BLA BLA BLA BLA BLA BLA BLA BLA BLA BLA BLA BLA BLA BLA BLA 
BLA BLA BLA BLA BLA BLA BLA BLA BLA BLA BLA BLA BLA BLA BLA BLA BLA BLA BLA BLA 
BLA BLA BLA BLA BLA BLA BLA BLA BLA BLA BLA BLA BLA BLA BLA BLA BLA BLA BLA BLA 
BLA BLA BLA BLA BLA BLA BLA BLA BLA BLA BLA BLA BLA BLA BLA BLA BLA BLA BLA BLA 
BLA BLA BLA BLA BLA BLA BLA BLA BLA BLA BLA BLA BLA BLA BLA BLA BLA BLA BLA BLA 
BLA BLA BLA BLA BLA BLA BLA BLA BLA BLA BLA BLA BLA BLA BLA BLA BLA BLA BLA BLA 
BLA BLA BLA BLA BLA BLA BLA BLA BLA BLA BLA BLA BLA BLA BLA BLA BLA BLA BLA BLA 
BLA BLA BLA BLA BLA BLA BLA BLA BLA BLA BLA BLA BLA BLA BLA BLA BLA BLA BLA BLA 
BLA BLA BLA BLA BLA BLA BLA BLA BLA BLA BLA BLA BLA BLA BLA BLA BLA BLA BLA BLA 
BLA BLA BLA BLA BLA BLA BLA BLA BLA BLA BLA BLA BLA BLA BLA BLA BLA BLA BLA BLA 
BLA BLA BLA BLA BLA BLA BLA BLA BLA BLA BLA BLA BLA BLA BLA BLA BLA BLA BLA BLA 
BLA BLA BLA BLA BLA BLA BLA BLA BLA BLA BLA BLA BLA BLA BLA BLA BLA BLA BLA BLA 
BLA BLA BLA BLA BLA BLA BLA BLA BLA BLA BLA BLA BLA BLA BLA BLA BLA BLA BLA BLA 
BLA BLA BLA BLA BLA BLA BLA BLA BLA BLA BLA BLA BLA BLA BLA BLA BLA BLA BLA BLA 
BLA BLA BLA BLA BLA BLA BLA BLA BLA BLA BLA BLA BLA BLA BLA BLA BLA BLA BLA BLA 
BLA BLA BLA BLA BLA BLA BLA BLA BLA BLA BLA BLA BLA BLA BLA BLA BLA BLA BLA BLA 
BLA BLA BLA BLA BLA BLA BLA BLA BLA BLA BLA BLA BLA BLA BLA BLA BLA BLA BLA BLA 
BLA BLA BLA BLA BLA BLA BLA BLA BLA BLA BLA BLA BLA BLA BLA BLA BLA BLA BLA BLA 
BLA BLA BLA BLA BLA BLA BLA BLA BLA BLA BLA BLA BLA BLA BLA BLA BLA BLA BLA BLA 
BLA BLA BLA BLA BLA BLA BLA BLA BLA BLA BLA BLA BLA BLA BLA BLA BLA BLA BLA BLA 
BLA BLA BLA BLA BLA BLA BLA BLA BLA BLA BLA BLA BLA BLA BLA BLA BLA BLA BLA BLA 
BLA BLA BLA BLA BLA BLA BLA BLA BLA BLA BLA BLA BLA BLA BLA BLA BLA BLA BLA BLA 
BLA BLA BLA BLA BLA BLA BLA BLA BLA BLA BLA BLA BLA BLA BLA BLA BLA BLA BLA BLA 
BLA BLA BLA BLA BLA BLA BLA BLA BLA BLA BLA BLA BLA BLA BLA BLA BLA BLA BLA BLA 
BLA BLA BLA BLA BLA BLA BLA BLA BLA BLA BLA BLA BLA BLA BLA BLA BLA BLA BLA BLA 
BLA BLA BLA BLA BLA BLA BLA BLA BLA BLA BLA BLA BLA BLA BLA BLA BLA BLA BLA BLA 
BLA BLA BLA BLA BLA BLA BLA BLA BLA BLA BLA BLA BLA BLA BLA BLA BLA BLA BLA BLA 
BLA BLA BLA BLA BLA BLA BLA BLA BLA BLA BLA BLA BLA BLA BLA BLA BLA BLA BLA BLA 
BLA BLA BLA BLA BLA BLA BLA BLA BLA BLA BLA BLA BLA BLA BLA BLA BLA BLA BLA BLA 
BLA BLA BLA BLA BLA BLA BLA BLA BLA BLA BLA BLA BLA BLA BLA BLA BLA BLA BLA BLA 
BLA BLA BLA BLA BLA BLA BLA BLA BLA BLA BLA BLA BLA BLA BLA BLA BLA BLA BLA BLA 
BLA BLA BLA BLA BLA BLA BLA BLA BLA BLA BLA BLA BLA BLA BLA BLA BLA BLA BLA BLA 
BLA BLA BLA BLA BLA BLA BLA BLA BLA BLA BLA BLA BLA BLA BLA BLA BLA BLA BLA BLA 
BLA BLA BLA BLA BLA BLA BLA BLA BLA BLA BLA BLA BLA BLA BLA BLA BLA BLA BLA BLA 
BLA BLA BLA BLA BLA BLA BLA BLA BLA BLA BLA BLA BLA BLA BLA BLA BLA BLA BLA BLA 
BLA BLA BLA BLA BLA BLA BLA BLA BLA BLA BLA BLA BLA BLA BLA BLA BLA BLA BLA BLA 
BLA BLA BLA BLA BLA BLA BLA BLA BLA BLA BLA BLA BLA BLA BLA BLA BLA BLA BLA BLA 
BLA BLA BLA BLA BLA BLA BLA BLA BLA BLA BLA BLA BLA BLA BLA BLA BLA BLA BLA BLA 
BLA BLA BLA BLA BLA BLA BLA BLA BLA BLA BLA BLA BLA BLA BLA BLA BLA BLA BLA BLA 
BLA BLA BLA BLA BLA BLA BLA BLA BLA BLA BLA BLA BLA BLA BLA BLA BLA BLA BLA BLA 
BLA BLA BLA BLA BLA BLA BLA BLA BLA BLA BLA BLA BLA BLA BLA BLA BLA BLA BLA BLA 
BLA BLA BLA BLA BLA BLA BLA BLA BLA BLA BLA BLA BLA BLA BLA BLA BLA BLA BLA BLA 
BLA BLA BLA BLA BLA BLA BLA BLA BLA BLA BLA BLA BLA BLA BLA BLA BLA BLA BLA BLA 
BLA BLA BLA BLA BLA BLA BLA BLA BLA BLA BLA BLA BLA BLA BLA BLA BLA BLA BLA BLA 
BLA BLA BLA BLA BLA BLA BLA BLA BLA BLA BLA BLA BLA BLA BLA BLA BLA BLA BLA BLA 
BLA BLA BLA BLA BLA BLA BLA BLA BLA BLA BLA BLA BLA BLA BLA BLA BLA BLA BLA BLA 
BLA BLA BLA BLA BLA BLA BLA BLA BLA BLA BLA BLA BLA BLA BLA BLA BLA BLA BLA BLA 
BLA BLA BLA BLA BLA BLA BLA BLA BLA BLA BLA BLA BLA BLA BLA BLA BLA BLA BLA BLA 
BLA BLA BLA BLA BLA BLA BLA BLA BLA BLA BLA BLA BLA BLA BLA BLA BLA BLA BLA BLA 
BLA BLA BLA BLA BLA BLA BLA BLA BLA BLA BLA BLA BLA BLA BLA BLA BLA BLA BLA BLA 
BLA BLA BLA BLA BLA BLA BLA BLA BLA BLA BLA BLA BLA BLA BLA BLA BLA BLA BLA BLA 
BLA BLA BLA BLA BLA BLA BLA BLA BLA BLA BLA BLA BLA BLA BLA BLA BLA BLA BLA BLA 
BLA BLA BLA BLA BLA BLA BLA BLA BLA BLA BLA BLA BLA BLA BLA BLA BLA BLA BLA BLA 
BLA BLA BLA BLA BLA BLA BLA BLA BLA BLA BLA BLA BLA BLA BLA BLA BLA BLA BLA BLA 
BLA BLA BLA BLA BLA BLA BLA BLA BLA BLA BLA BLA BLA BLA BLA BLA BLA BLA BLA BLA 
BLA BLA BLA BLA BLA BLA BLA BLA BLA BLA BLA BLA BLA BLA BLA BLA BLA BLA BLA BLA 
BLA BLA BLA BLA BLA BLA BLA BLA BLA BLA BLA BLA BLA BLA BLA BLA BLA BLA BLA BLA 
BLA BLA BLA BLA BLA BLA BLA BLA BLA BLA BLA BLA BLA BLA BLA BLA BLA BLA BLA BLA 
BLA BLA BLA BLA BLA BLA BLA BLA BLA BLA BLA BLA BLA BLA BLA BLA BLA BLA BLA BLA 
BLA BLA BLA BLA BLA BLA BLA BLA BLA BLA BLA BLA BLA BLA BLA BLA BLA BLA BLA BLA 
BLA BLA BLA BLA BLA BLA BLA BLA BLA BLA BLA BLA BLA BLA BLA BLA BLA BLA BLA BLA 
BLA BLA BLA BLA BLA BLA BLA BLA BLA BLA BLA BLA BLA BLA BLA BLA BLA BLA BLA BLA 
BLA BLA BLA BLA BLA BLA BLA BLA BLA BLA BLA BLA BLA BLA BLA BLA BLA BLA BLA BLA 
BLA BLA BLA BLA BLA BLA BLA BLA BLA BLA BLA BLA BLA BLA BLA BLA BLA BLA BLA BLA 
BLA BLA BLA BLA BLA BLA BLA BLA BLA BLA BLA BLA BLA BLA BLA BLA BLA BLA BLA BLA 
BLA BLA BLA BLA BLA BLA BLA BLA BLA BLA BLA BLA BLA BLA BLA BLA BLA BLA BLA BLA 
BLA BLA BLA BLA BLA BLA BLA BLA BLA BLA BLA BLA BLA BLA BLA BLA BLA BLA BLA BLA 
BLA BLA BLA BLA BLA BLA BLA BLA BLA BLA BLA BLA BLA BLA BLA BLA BLA BLA BLA BLA 
BLA BLA BLA BLA BLA BLA BLA BLA BLA BLA BLA BLA BLA BLA BLA BLA BLA BLA BLA BLA 
BLA BLA BLA BLA BLA BLA BLA BLA BLA BLA BLA BLA BLA BLA BLA BLA BLA BLA BLA BLA 
BLA BLA BLA BLA BLA BLA BLA BLA BLA BLA BLA BLA BLA BLA BLA BLA BLA BLA BLA BLA 
BLA BLA BLA BLA BLA BLA BLA BLA BLA BLA BLA BLA BLA BLA BLA BLA BLA BLA BLA BLA 
BLA BLA BLA BLA BLA BLA BLA BLA BLA BLA BLA BLA BLA BLA BLA BLA BLA BLA BLA BLA 
BLA BLA BLA BLA BLA BLA BLA BLA BLA BLA BLA BLA BLA BLA BLA BLA BLA BLA BLA BLA 
BLA BLA BLA BLA BLA BLA BLA BLA BLA BLA BLA BLA BLA BLA BLA BLA BLA BLA BLA BLA 
BLA BLA BLA BLA BLA BLA BLA BLA BLA BLA BLA BLA BLA BLA BLA BLA BLA BLA BLA BLA 
BLA BLA BLA BLA BLA BLA BLA BLA BLA BLA BLA BLA BLA BLA BLA BLA BLA BLA BLA BLA 
BLA BLA BLA BLA BLA BLA BLA BLA BLA BLA BLA BLA BLA BLA BLA BLA BLA BLA BLA BLA 
BLA BLA BLA BLA BLA BLA BLA BLA BLA BLA BLA BLA BLA BLA BLA BLA BLA BLA BLA BLA 
BLA BLA BLA BLA BLA BLA BLA BLA BLA BLA BLA BLA BLA BLA BLA BLA BLA BLA BLA BLA 
BLA BLA BLA BLA BLA BLA BLA BLA BLA BLA BLA BLA BLA BLA BLA BLA BLA BLA BLA BLA 
BLA BLA BLA BLA BLA BLA BLA BLA BLA BLA BLA BLA BLA BLA BLA BLA BLA BLA BLA BLA 
BLA BLA BLA BLA BLA BLA BLA BLA BLA BLA BLA BLA BLA BLA BLA BLA BLA BLA BLA BLA 
BLA BLA BLA BLA BLA BLA BLA BLA BLA BLA BLA BLA BLA BLA BLA BLA BLA BLA BLA BLA 
BLA BLA BLA BLA BLA BLA BLA BLA BLA BLA BLA BLA BLA BLA BLA BLA BLA BLA BLA BLA 
BLA BLA BLA BLA BLA BLA BLA BLA BLA BLA BLA BLA BLA BLA BLA BLA BLA BLA BLA BLA 
BLA BLA BLA BLA BLA BLA BLA BLA BLA BLA BLA BLA BLA BLA BLA BLA BLA BLA BLA BLA 
BLA BLA BLA BLA BLA BLA BLA BLA BLA BLA BLA BLA BLA BLA BLA BLA BLA BLA BLA BLA 
BLA BLA BLA BLA BLA BLA BLA BLA BLA BLA BLA BLA BLA BLA BLA BLA BLA BLA BLA BLA 
BLA BLA BLA BLA BLA BLA BLA BLA BLA BLA BLA BLA BLA BLA BLA BLA BLA BLA BLA BLA 
BLA BLA BLA BLA BLA BLA BLA BLA BLA BLA BLA BLA BLA BLA BLA BLA BLA BLA BLA BLA 
BLA BLA BLA BLA BLA BLA BLA BLA BLA BLA BLA BLA BLA BLA BLA BLA BLA BLA BLA BLA 
BLA BLA BLA BLA BLA BLA BLA BLA BLA BLA BLA BLA BLA BLA BLA BLA BLA BLA BLA BLA 
BLA BLA BLA BLA BLA BLA BLA BLA BLA BLA BLA BLA BLA BLA BLA BLA BLA BLA BLA BLA 
BLA BLA BLA BLA BLA BLA BLA BLA BLA BLA BLA BLA BLA BLA BLA BLA BLA BLA BLA BLA 
BLA BLA BLA BLA BLA BLA BLA BLA BLA BLA BLA BLA BLA BLA BLA BLA BLA BLA BLA BLA 
BLA BLA BLA BLA BLA BLA BLA BLA BLA BLA BLA BLA BLA BLA BLA BLA BLA BLA BLA BLA 
BLA BLA BLA BLA BLA BLA BLA BLA BLA BLA BLA BLA BLA BLA BLA BLA BLA BLA BLA BLA 
BLA BLA BLA BLA BLA BLA BLA BLA BLA BLA BLA BLA BLA BLA BLA BLA BLA BLA BLA BLA 
BLA BLA BLA BLA BLA BLA BLA BLA BLA BLA BLA BLA BLA BLA BLA BLA BLA BLA BLA BLA 
BLA BLA BLA BLA BLA BLA BLA BLA BLA BLA BLA BLA BLA BLA BLA BLA BLA BLA BLA BLA 
BLA BLA BLA BLA BLA BLA BLA BLA BLA BLA BLA BLA BLA BLA BLA BLA BLA BLA BLA BLA 
BLA BLA BLA BLA BLA BLA BLA BLA BLA BLA BLA BLA BLA BLA BLA BLA BLA BLA BLA BLA 
BLA BLA BLA BLA BLA BLA BLA BLA BLA BLA BLA BLA BLA BLA BLA BLA BLA BLA BLA BLA 
BLA BLA BLA BLA BLA BLA BLA BLA BLA BLA BLA BLA BLA BLA BLA BLA BLA BLA BLA BLA 
BLA BLA BLA BLA BLA BLA BLA BLA BLA BLA BLA BLA BLA BLA BLA BLA BLA BLA BLA BLA 
BLA BLA BLA BLA BLA BLA BLA BLA BLA BLA BLA BLA BLA BLA BLA BLA BLA BLA BLA BLA 
BLA BLA BLA BLA BLA BLA BLA BLA BLA BLA BLA BLA BLA BLA BLA BLA BLA BLA BLA BLA 
BLA BLA BLA BLA BLA BLA BLA BLA BLA BLA BLA BLA BLA BLA BLA BLA BLA BLA BLA BLA 
BLA BLA BLA BLA BLA BLA BLA BLA BLA BLA BLA BLA BLA BLA BLA BLA BLA BLA BLA BLA 
BLA BLA BLA BLA BLA BLA BLA BLA BLA BLA BLA BLA BLA BLA BLA BLA BLA BLA BLA BLA 
BLA BLA BLA BLA BLA BLA BLA BLA BLA BLA BLA BLA BLA BLA BLA BLA BLA BLA BLA BLA 
BLA BLA BLA BLA BLA BLA BLA BLA BLA BLA BLA BLA BLA BLA BLA BLA BLA BLA BLA BLA 
BLA BLA BLA BLA BLA BLA BLA BLA BLA BLA BLA BLA BLA BLA BLA BLA BLA BLA BLA BLA 
BLA BLA BLA BLA BLA BLA BLA BLA BLA BLA BLA BLA BLA BLA BLA BLA BLA BLA BLA BLA 
BLA BLA BLA BLA BLA BLA BLA BLA BLA BLA BLA BLA BLA BLA BLA BLA BLA BLA BLA BLA 
BLA BLA BLA BLA BLA BLA BLA BLA BLA BLA BLA BLA BLA BLA BLA BLA BLA BLA BLA BLA 
BLA BLA BLA BLA BLA BLA BLA BLA BLA BLA BLA BLA BLA BLA BLA BLA BLA BLA BLA BLA 
BLA BLA BLA BLA BLA BLA BLA BLA BLA BLA BLA BLA BLA BLA BLA BLA BLA BLA BLA BLA 
BLA BLA BLA BLA BLA BLA BLA BLA BLA BLA BLA BLA BLA BLA BLA BLA BLA BLA BLA BLA 
BLA BLA BLA BLA BLA BLA BLA BLA BLA BLA BLA BLA BLA BLA BLA BLA BLA BLA BLA BLA 
BLA BLA BLA BLA BLA BLA BLA BLA BLA BLA BLA BLA BLA BLA BLA BLA BLA BLA BLA BLA 
BLA BLA BLA BLA BLA BLA BLA BLA BLA BLA BLA BLA BLA BLA BLA BLA BLA BLA BLA BLA 
BLA BLA BLA BLA BLA BLA BLA BLA BLA BLA BLA BLA BLA BLA BLA BLA BLA BLA BLA BLA 
BLA BLA BLA BLA BLA BLA BLA BLA BLA BLA BLA BLA BLA BLA BLA BLA BLA BLA BLA BLA 
BLA BLA BLA BLA BLA BLA BLA BLA BLA BLA BLA BLA BLA BLA BLA BLA BLA BLA BLA BLA 
BLA BLA BLA BLA BLA BLA BLA BLA BLA BLA BLA BLA BLA BLA BLA BLA BLA BLA BLA BLA 
BLA BLA BLA BLA BLA BLA BLA BLA BLA BLA BLA BLA BLA BLA BLA BLA BLA BLA BLA BLA 
BLA BLA BLA BLA BLA BLA BLA BLA BLA BLA BLA BLA BLA BLA BLA BLA BLA BLA BLA BLA 
BLA BLA BLA BLA BLA BLA BLA BLA BLA BLA BLA BLA BLA BLA BLA BLA BLA BLA BLA BLA 
BLA BLA BLA BLA BLA BLA BLA BLA BLA BLA BLA BLA BLA BLA BLA BLA BLA BLA BLA BLA 
BLA BLA BLA BLA BLA BLA BLA BLA BLA BLA BLA BLA BLA BLA BLA BLA BLA BLA BLA BLA 
BLA BLA BLA BLA BLA BLA BLA BLA BLA BLA BLA BLA BLA BLA BLA BLA BLA BLA BLA BLA 
BLA BLA BLA BLA BLA BLA BLA BLA BLA BLA BLA BLA BLA BLA BLA BLA BLA BLA BLA BLA 
BLA BLA BLA BLA BLA BLA BLA BLA BLA BLA BLA BLA BLA BLA BLA BLA BLA BLA BLA BLA 
BLA BLA BLA BLA BLA BLA BLA BLA BLA BLA BLA BLA BLA BLA BLA BLA BLA BLA BLA BLA 
BLA BLA BLA BLA BLA BLA BLA BLA BLA BLA BLA BLA BLA BLA BLA BLA BLA BLA BLA BLA 
BLA BLA BLA BLA BLA BLA BLA BLA BLA BLA BLA BLA BLA BLA BLA BLA BLA BLA BLA BLA 
BLA BLA BLA BLA BLA BLA BLA BLA BLA BLA BLA BLA BLA BLA BLA BLA BLA BLA BLA BLA 
BLA BLA BLA BLA BLA BLA BLA BLA BLA BLA BLA BLA BLA BLA BLA BLA BLA BLA BLA BLA 
BLA BLA BLA BLA BLA BLA BLA BLA BLA BLA BLA BLA BLA BLA BLA BLA BLA BLA BLA BLA 
BLA BLA BLA BLA BLA BLA BLA BLA BLA BLA BLA BLA BLA BLA BLA BLA BLA BLA BLA BLA 
BLA BLA BLA BLA BLA BLA BLA BLA BLA BLA BLA BLA BLA BLA BLA BLA BLA BLA BLA BLA 
BLA BLA BLA BLA BLA BLA BLA BLA BLA BLA BLA BLA BLA BLA BLA BLA BLA BLA BLA BLA 
BLA BLA BLA BLA BLA BLA BLA BLA BLA BLA BLA BLA BLA BLA BLA BLA BLA BLA BLA BLA 
BLA BLA BLA BLA BLA BLA BLA BLA BLA BLA BLA BLA BLA BLA BLA BLA BLA BLA BLA BLA 
BLA BLA BLA BLA BLA BLA BLA BLA BLA BLA BLA BLA BLA BLA BLA BLA BLA BLA BLA BLA 
BLA BLA BLA BLA BLA BLA BLA BLA BLA BLA BLA BLA BLA BLA BLA BLA BLA BLA BLA BLA 
BLA BLA BLA BLA BLA BLA BLA BLA BLA BLA BLA BLA BLA BLA BLA BLA BLA BLA BLA BLA 
BLA BLA BLA BLA BLA BLA BLA BLA BLA BLA BLA BLA BLA BLA BLA BLA BLA BLA BLA BLA 
BLA BLA BLA BLA BLA BLA BLA BLA BLA BLA BLA BLA BLA BLA BLA BLA BLA BLA BLA BLA 
BLA BLA BLA BLA BLA BLA BLA BLA BLA BLA BLA BLA BLA BLA BLA BLA BLA BLA BLA BLA 
BLA BLA BLA BLA BLA BLA BLA BLA BLA BLA BLA BLA BLA BLA BLA BLA BLA BLA BLA BLA 
BLA BLA BLA BLA BLA BLA BLA BLA BLA BLA BLA BLA BLA BLA BLA BLA BLA BLA BLA BLA 
BLA BLA BLA BLA BLA BLA BLA BLA BLA BLA BLA BLA BLA BLA BLA BLA BLA BLA BLA BLA 
BLA BLA BLA BLA BLA BLA BLA BLA BLA BLA BLA BLA BLA BLA BLA BLA BLA BLA BLA BLA 
BLA BLA BLA BLA BLA BLA BLA BLA BLA BLA BLA BLA BLA BLA BLA BLA BLA BLA BLA BLA 
BLA BLA BLA BLA BLA BLA BLA BLA BLA BLA BLA BLA BLA BLA BLA BLA BLA BLA BLA BLA 
BLA BLA BLA BLA BLA BLA BLA BLA BLA BLA BLA BLA BLA BLA BLA BLA BLA BLA BLA BLA 
BLA BLA BLA BLA BLA BLA BLA BLA BLA BLA BLA BLA BLA BLA BLA BLA BLA BLA BLA BLA 
BLA BLA BLA BLA BLA BLA BLA BLA BLA BLA BLA BLA BLA BLA BLA BLA BLA BLA BLA BLA 
BLA BLA BLA BLA BLA BLA BLA BLA BLA BLA BLA BLA BLA BLA BLA BLA BLA BLA BLA BLA 
BLA BLA BLA BLA BLA BLA BLA BLA BLA BLA BLA BLA BLA BLA BLA BLA BLA BLA BLA BLA 
BLA BLA BLA BLA BLA BLA BLA BLA BLA BLA BLA BLA BLA BLA BLA BLA BLA BLA BLA BLA 
BLA BLA BLA BLA BLA BLA BLA BLA BLA BLA BLA BLA BLA BLA BLA BLA BLA BLA BLA BLA 
BLA BLA BLA BLA BLA BLA BLA BLA BLA BLA BLA BLA BLA BLA BLA BLA BLA BLA BLA BLA 
BLA BLA BLA BLA BLA BLA BLA BLA BLA BLA BLA BLA BLA BLA BLA BLA BLA BLA BLA BLA 
BLA BLA BLA BLA BLA BLA BLA BLA BLA BLA BLA BLA BLA BLA BLA BLA BLA BLA BLA BLA 
BLA BLA BLA BLA BLA BLA BLA BLA BLA BLA BLA BLA BLA BLA BLA BLA BLA BLA BLA BLA 
BLA BLA BLA BLA BLA BLA BLA BLA BLA BLA BLA BLA BLA BLA BLA BLA BLA BLA BLA BLA 
BLA BLA BLA BLA BLA BLA BLA BLA BLA BLA BLA BLA BLA BLA BLA BLA BLA BLA BLA BLA 
BLA BLA BLA BLA BLA BLA BLA BLA BLA BLA BLA BLA BLA BLA BLA BLA BLA BLA BLA BLA 
BLA BLA BLA BLA BLA BLA BLA BLA BLA BLA BLA BLA BLA BLA BLA BLA BLA BLA BLA BLA 
BLA BLA BLA BLA BLA BLA BLA BLA BLA BLA BLA BLA BLA BLA BLA BLA BLA BLA BLA BLA 
BLA BLA BLA BLA BLA BLA BLA BLA BLA BLA BLA BLA BLA BLA BLA BLA BLA BLA BLA BLA 
BLA BLA BLA BLA BLA BLA BLA BLA BLA BLA BLA BLA BLA BLA BLA BLA BLA BLA BLA BLA 
BLA BLA BLA BLA BLA BLA BLA BLA BLA BLA BLA BLA BLA BLA BLA BLA BLA BLA BLA BLA 
BLA BLA BLA BLA BLA BLA BLA BLA BLA BLA BLA BLA BLA BLA BLA BLA BLA BLA BLA BLA 
BLA BLA BLA BLA BLA BLA BLA BLA BLA BLA BLA BLA BLA BLA BLA BLA BLA BLA BLA BLA 
BLA BLA BLA BLA BLA BLA BLA BLA BLA BLA BLA BLA BLA BLA BLA BLA BLA BLA BLA BLA 
BLA BLA BLA BLA BLA BLA BLA BLA BLA BLA BLA BLA BLA BLA BLA BLA BLA BLA BLA BLA 
BLA BLA BLA BLA BLA BLA BLA BLA BLA BLA BLA BLA BLA BLA BLA BLA BLA BLA BLA BLA 
BLA BLA BLA BLA BLA BLA BLA BLA BLA BLA BLA BLA BLA BLA BLA BLA BLA BLA BLA BLA 
BLA BLA BLA BLA BLA BLA BLA BLA BLA BLA BLA BLA BLA BLA BLA BLA BLA BLA BLA BLA 
BLA BLA BLA BLA BLA BLA BLA BLA BLA BLA BLA BLA BLA BLA BLA BLA BLA BLA BLA BLA 
BLA BLA BLA BLA BLA BLA BLA BLA BLA BLA BLA BLA BLA BLA BLA BLA BLA BLA BLA BLA 
BLA BLA BLA BLA BLA BLA BLA BLA BLA BLA BLA BLA BLA BLA BLA BLA BLA BLA BLA BLA 
BLA BLA BLA BLA BLA BLA BLA BLA BLA BLA BLA BLA BLA BLA BLA BLA BLA BLA BLA BLA 
BLA BLA BLA BLA BLA BLA BLA BLA BLA BLA BLA BLA BLA BLA BLA BLA BLA BLA BLA BLA 
BLA BLA BLA BLA BLA BLA BLA BLA BLA BLA BLA BLA BLA BLA BLA BLA BLA BLA BLA BLA 
BLA BLA BLA BLA BLA BLA BLA BLA BLA BLA BLA BLA BLA BLA BLA BLA BLA BLA BLA BLA 
BLA BLA BLA BLA BLA BLA BLA BLA BLA BLA BLA BLA BLA BLA BLA BLA BLA BLA BLA BLA 
BLA BLA BLA BLA BLA BLA BLA BLA BLA BLA BLA BLA BLA BLA BLA BLA BLA BLA BLA BLA 
BLA BLA BLA BLA BLA BLA BLA BLA BLA BLA BLA BLA BLA BLA BLA BLA BLA BLA BLA BLA 
BLA BLA BLA BLA BLA BLA BLA BLA BLA BLA BLA BLA BLA BLA BLA BLA BLA BLA BLA BLA 
BLA BLA BLA BLA BLA BLA BLA BLA BLA BLA BLA BLA BLA BLA BLA BLA BLA BLA BLA BLA 
BLA BLA BLA BLA BLA BLA BLA BLA BLA BLA BLA BLA BLA BLA BLA BLA BLA BLA BLA BLA 
BLA BLA BLA BLA BLA BLA BLA BLA BLA BLA BLA BLA BLA BLA BLA BLA BLA BLA BLA BLA 
BLA BLA BLA BLA BLA BLA BLA BLA BLA BLA BLA BLA BLA BLA BLA BLA BLA BLA BLA BLA 
BLA BLA BLA BLA BLA BLA BLA BLA BLA BLA BLA BLA BLA BLA BLA BLA BLA BLA BLA BLA 
BLA BLA BLA BLA BLA BLA BLA BLA BLA BLA BLA BLA BLA BLA BLA BLA BLA BLA BLA BLA 
BLA BLA BLA BLA BLA BLA BLA BLA BLA BLA BLA BLA BLA BLA BLA BLA BLA BLA BLA BLA 
BLA BLA BLA BLA BLA BLA BLA BLA BLA BLA BLA BLA BLA BLA BLA BLA BLA BLA BLA BLA 
BLA BLA BLA BLA BLA BLA BLA BLA BLA BLA BLA BLA BLA BLA BLA BLA BLA BLA BLA BLA 
BLA BLA BLA BLA BLA BLA BLA BLA BLA BLA BLA BLA BLA BLA BLA BLA BLA BLA BLA BLA 
BLA BLA BLA BLA BLA BLA BLA BLA BLA BLA BLA BLA BLA BLA BLA BLA BLA BLA BLA BLA 
BLA BLA BLA BLA BLA BLA BLA BLA BLA BLA BLA BLA BLA BLA BLA BLA BLA BLA BLA BLA 
BLA BLA BLA BLA BLA BLA BLA BLA BLA BLA BLA BLA BLA BLA BLA BLA BLA BLA BLA BLA 
BLA BLA BLA BLA BLA BLA BLA BLA BLA BLA BLA BLA BLA BLA BLA BLA BLA BLA BLA BLA 
BLA BLA BLA BLA BLA BLA BLA BLA BLA BLA BLA BLA BLA BLA BLA BLA BLA BLA BLA BLA 
BLA BLA BLA BLA BLA BLA BLA BLA BLA BLA BLA BLA BLA BLA BLA BLA BLA BLA BLA BLA 
BLA BLA BLA BLA BLA BLA BLA BLA BLA BLA BLA BLA BLA BLA BLA BLA BLA BLA BLA BLA 
BLA BLA BLA BLA BLA BLA BLA BLA BLA BLA BLA BLA BLA BLA BLA BLA BLA BLA BLA BLA 
BLA BLA BLA BLA BLA BLA BLA BLA BLA BLA BLA BLA BLA BLA BLA BLA BLA BLA BLA BLA 
BLA BLA BLA BLA BLA BLA BLA BLA BLA BLA BLA BLA BLA BLA BLA BLA BLA BLA BLA BLA 
BLA BLA BLA BLA BLA BLA BLA BLA BLA BLA BLA BLA BLA BLA BLA BLA BLA BLA BLA BLA 
BLA BLA BLA BLA BLA BLA BLA BLA BLA BLA BLA BLA BLA BLA BLA BLA BLA BLA BLA BLA 
BLA BLA BLA BLA BLA BLA BLA BLA BLA BLA BLA BLA BLA BLA BLA BLA BLA BLA BLA BLA 
BLA BLA BLA BLA BLA BLA BLA BLA BLA BLA BLA BLA BLA BLA BLA BLA BLA BLA BLA BLA 
BLA BLA BLA BLA BLA BLA BLA BLA BLA BLA BLA BLA BLA BLA BLA BLA BLA BLA BLA BLA 
BLA BLA BLA BLA BLA BLA BLA BLA BLA BLA BLA BLA BLA BLA BLA BLA BLA BLA BLA BLA 
BLA BLA BLA BLA BLA BLA BLA BLA BLA BLA BLA BLA BLA BLA BLA BLA BLA BLA BLA BLA 
BLA BLA BLA BLA BLA BLA BLA BLA BLA BLA BLA BLA BLA BLA BLA BLA BLA BLA BLA BLA 
BLA BLA BLA BLA BLA BLA BLA BLA BLA BLA BLA BLA BLA BLA BLA BLA BLA BLA BLA BLA 
BLA BLA BLA BLA BLA BLA BLA BLA BLA BLA BLA BLA BLA BLA BLA BLA BLA BLA BLA BLA 
BLA BLA BLA BLA BLA BLA BLA BLA BLA BLA BLA BLA BLA BLA BLA BLA BLA BLA BLA BLA 
BLA BLA BLA BLA BLA BLA BLA BLA BLA BLA BLA BLA BLA BLA BLA BLA BLA BLA BLA BLA 
BLA BLA BLA BLA BLA BLA BLA BLA BLA BLA BLA BLA BLA BLA BLA BLA BLA BLA BLA BLA 
BLA BLA BLA BLA BLA BLA BLA BLA BLA BLA BLA BLA BLA BLA BLA BLA BLA BLA BLA BLA 
BLA BLA BLA BLA BLA BLA BLA BLA BLA BLA BLA BLA BLA BLA BLA BLA BLA BLA BLA BLA 
BLA BLA BLA BLA BLA BLA BLA BLA BLA BLA BLA BLA BLA BLA BLA BLA BLA BLA BLA BLA 
BLA BLA BLA BLA BLA BLA BLA BLA BLA BLA BLA BLA BLA BLA BLA BLA BLA BLA BLA BLA 
BLA BLA BLA BLA BLA BLA BLA BLA BLA BLA BLA BLA BLA BLA BLA BLA BLA BLA BLA BLA 
BLA BLA BLA BLA BLA BLA BLA BLA BLA BLA BLA BLA BLA BLA BLA BLA BLA BLA BLA BLA 
BLA BLA BLA BLA BLA BLA BLA BLA BLA BLA BLA BLA BLA BLA BLA BLA BLA BLA BLA BLA 
BLA BLA BLA BLA BLA BLA BLA BLA BLA BLA BLA BLA BLA BLA BLA BLA BLA BLA BLA BLA 
BLA BLA BLA BLA BLA BLA BLA BLA BLA BLA BLA BLA BLA BLA BLA BLA BLA BLA BLA BLA 
BLA BLA BLA BLA BLA BLA BLA BLA BLA BLA BLA BLA BLA BLA BLA BLA BLA BLA BLA BLA 
BLA BLA BLA BLA BLA BLA BLA BLA BLA BLA BLA BLA BLA BLA BLA BLA BLA BLA BLA BLA 
BLA BLA BLA BLA BLA BLA BLA BLA BLA BLA BLA BLA BLA BLA BLA BLA BLA BLA BLA BLA 
BLA BLA BLA BLA BLA BLA BLA BLA BLA BLA BLA BLA BLA BLA BLA BLA BLA BLA BLA BLA 
BLA BLA BLA BLA BLA BLA BLA BLA BLA BLA BLA BLA BLA BLA BLA BLA BLA BLA BLA BLA 
BLA BLA BLA BLA BLA BLA BLA BLA BLA BLA BLA BLA BLA BLA BLA BLA BLA BLA BLA BLA 
BLA BLA BLA BLA BLA BLA BLA BLA BLA BLA BLA BLA BLA BLA BLA BLA BLA BLA BLA BLA 
BLA BLA BLA BLA BLA BLA BLA BLA BLA BLA BLA BLA BLA BLA BLA BLA BLA BLA BLA BLA 
BLA BLA BLA BLA BLA BLA BLA BLA BLA BLA BLA BLA BLA BLA BLA BLA BLA BLA BLA BLA 
BLA BLA BLA BLA BLA BLA BLA BLA BLA BLA BLA BLA BLA BLA BLA BLA BLA BLA BLA BLA 
BLA BLA BLA BLA BLA BLA BLA BLA BLA BLA BLA BLA BLA BLA BLA BLA BLA BLA BLA BLA 
BLA BLA BLA BLA BLA BLA BLA BLA BLA BLA BLA BLA BLA BLA BLA BLA BLA BLA BLA BLA 
BLA BLA BLA BLA BLA BLA BLA BLA BLA BLA BLA BLA BLA BLA BLA BLA BLA BLA BLA BLA 
BLA BLA BLA BLA BLA BLA BLA BLA BLA BLA BLA BLA BLA BLA BLA BLA BLA BLA BLA BLA 
BLA BLA BLA BLA BLA BLA BLA BLA BLA BLA BLA BLA BLA BLA BLA BLA BLA BLA BLA BLA 
BLA BLA BLA BLA BLA BLA BLA BLA BLA BLA BLA BLA BLA BLA BLA BLA BLA BLA BLA BLA 
BLA BLA BLA BLA BLA BLA BLA BLA BLA BLA BLA BLA BLA BLA BLA BLA BLA BLA BLA BLA 
BLA BLA BLA BLA BLA BLA BLA BLA BLA BLA BLA BLA BLA BLA BLA BLA BLA BLA BLA BLA 
BLA BLA BLA BLA BLA BLA BLA BLA BLA BLA BLA BLA BLA BLA BLA BLA BLA BLA BLA BLA 
BLA BLA BLA BLA BLA BLA BLA BLA BLA BLA BLA BLA BLA BLA BLA BLA BLA BLA BLA BLA 
BLA BLA BLA BLA BLA BLA BLA BLA BLA BLA BLA BLA BLA BLA BLA BLA BLA BLA BLA BLA 
BLA BLA BLA BLA BLA BLA BLA BLA BLA BLA BLA BLA BLA BLA BLA BLA BLA BLA BLA BLA 
BLA BLA BLA BLA BLA BLA BLA BLA BLA BLA BLA BLA BLA BLA BLA BLA BLA BLA BLA BLA 
BLA BLA BLA BLA BLA BLA BLA BLA BLA BLA BLA BLA BLA BLA BLA BLA BLA BLA BLA BLA 
BLA BLA BLA BLA BLA BLA BLA BLA BLA BLA BLA BLA BLA BLA BLA BLA BLA BLA BLA BLA 
BLA BLA BLA BLA BLA BLA BLA BLA BLA BLA BLA BLA BLA BLA BLA BLA BLA BLA BLA BLA 
BLA BLA BLA BLA BLA BLA BLA BLA BLA BLA BLA BLA BLA BLA BLA BLA BLA BLA BLA BLA 
BLA BLA BLA BLA BLA BLA BLA BLA BLA BLA BLA BLA BLA BLA BLA BLA BLA BLA BLA BLA 
BLA BLA BLA BLA BLA BLA BLA BLA BLA BLA BLA BLA BLA BLA BLA BLA BLA BLA BLA BLA 
BLA BLA BLA BLA BLA BLA BLA BLA BLA BLA BLA BLA BLA BLA BLA BLA BLA BLA BLA BLA 
BLA BLA BLA BLA BLA BLA BLA BLA BLA BLA BLA BLA BLA BLA BLA BLA BLA BLA BLA BLA 
BLA BLA BLA BLA BLA BLA BLA BLA BLA BLA BLA BLA BLA BLA BLA BLA BLA BLA BLA BLA 
BLA BLA BLA BLA BLA BLA BLA BLA BLA BLA BLA BLA BLA BLA BLA BLA BLA BLA BLA BLA 
BLA BLA BLA BLA BLA BLA BLA BLA BLA BLA BLA BLA BLA BLA BLA BLA BLA BLA BLA BLA 
BLA BLA BLA BLA BLA BLA BLA BLA BLA BLA BLA BLA BLA BLA BLA BLA BLA BLA BLA BLA 
BLA BLA BLA BLA BLA BLA BLA BLA BLA BLA BLA BLA BLA BLA BLA BLA BLA BLA BLA BLA 
BLA BLA BLA BLA BLA BLA BLA BLA BLA BLA BLA BLA BLA BLA BLA BLA BLA BLA BLA BLA 
BLA BLA BLA BLA BLA BLA BLA BLA BLA BLA BLA BLA BLA BLA BLA BLA BLA BLA BLA BLA 
BLA BLA BLA BLA BLA BLA BLA BLA BLA BLA BLA BLA BLA BLA BLA BLA BLA BLA BLA BLA 
BLA BLA BLA BLA BLA BLA BLA BLA BLA BLA BLA BLA BLA BLA BLA BLA BLA BLA BLA BLA 
BLA BLA BLA BLA BLA BLA BLA BLA BLA BLA BLA BLA BLA BLA BLA BLA BLA BLA BLA BLA 
BLA BLA BLA BLA BLA BLA BLA BLA BLA BLA BLA BLA BLA BLA BLA BLA BLA BLA BLA BLA 
BLA BLA BLA BLA BLA BLA BLA BLA BLA BLA BLA BLA BLA BLA BLA BLA BLA BLA BLA BLA 
BLA BLA BLA BLA BLA BLA BLA BLA BLA BLA BLA BLA BLA BLA BLA BLA BLA BLA BLA BLA 
BLA BLA BLA BLA BLA BLA BLA BLA BLA BLA BLA BLA BLA BLA BLA BLA BLA BLA BLA BLA 
BLA BLA BLA BLA BLA BLA BLA BLA BLA BLA BLA BLA BLA BLA BLA BLA BLA BLA BLA BLA 
BLA BLA BLA BLA BLA BLA BLA BLA BLA BLA BLA BLA BLA BLA BLA BLA BLA BLA BLA BLA 
BLA BLA BLA BLA BLA BLA BLA BLA BLA BLA BLA BLA BLA BLA BLA BLA BLA BLA BLA BLA 
BLA BLA BLA BLA BLA BLA BLA BLA BLA BLA BLA BLA BLA BLA BLA BLA BLA BLA BLA BLA 
BLA BLA BLA BLA BLA BLA BLA BLA BLA BLA BLA BLA BLA BLA BLA BLA BLA BLA BLA BLA 
BLA BLA BLA BLA BLA BLA BLA BLA BLA BLA BLA BLA BLA BLA BLA BLA BLA BLA BLA BLA 
BLA BLA BLA BLA BLA BLA BLA BLA BLA BLA BLA BLA BLA BLA BLA BLA BLA BLA BLA BLA 
BLA BLA BLA BLA BLA BLA BLA BLA BLA BLA BLA BLA BLA BLA BLA BLA BLA BLA BLA BLA 
BLA BLA BLA BLA BLA BLA BLA BLA BLA BLA BLA BLA BLA BLA BLA BLA BLA BLA BLA BLA 
BLA BLA BLA BLA BLA BLA BLA BLA BLA BLA BLA BLA BLA BLA BLA BLA BLA BLA BLA BLA 
BLA BLA BLA BLA BLA BLA BLA BLA BLA BLA BLA BLA BLA BLA BLA BLA BLA BLA BLA BLA 
BLA BLA BLA BLA BLA BLA BLA BLA BLA BLA BLA BLA BLA BLA BLA BLA BLA BLA BLA BLA 
BLA BLA BLA BLA BLA BLA BLA BLA BLA BLA BLA BLA BLA BLA BLA BLA BLA BLA BLA BLA 
BLA BLA BLA BLA BLA BLA BLA BLA BLA BLA BLA BLA BLA BLA BLA BLA BLA BLA BLA BLA 
BLA BLA BLA BLA BLA BLA BLA BLA BLA BLA BLA BLA BLA BLA BLA BLA BLA BLA BLA BLA 
BLA BLA BLA BLA BLA BLA BLA BLA BLA BLA BLA BLA BLA BLA BLA BLA BLA BLA BLA BLA 
BLA BLA BLA BLA BLA BLA BLA BLA BLA BLA BLA BLA BLA BLA BLA BLA BLA BLA BLA BLA 
BLA BLA BLA BLA BLA BLA BLA BLA BLA BLA BLA BLA BLA BLA BLA BLA BLA BLA BLA BLA 
BLA BLA BLA BLA BLA BLA BLA BLA BLA BLA BLA BLA BLA BLA BLA BLA BLA BLA BLA BLA 
BLA BLA BLA BLA BLA BLA BLA BLA BLA BLA BLA BLA BLA BLA BLA BLA BLA BLA BLA BLA 
BLA BLA BLA BLA BLA BLA BLA BLA BLA BLA BLA BLA BLA BLA BLA BLA BLA BLA BLA BLA 
BLA BLA BLA BLA BLA BLA BLA BLA BLA BLA BLA BLA BLA BLA BLA BLA BLA BLA BLA BLA 
BLA BLA BLA BLA BLA BLA BLA BLA BLA BLA BLA BLA BLA BLA BLA BLA BLA BLA BLA BLA 
BLA BLA BLA BLA BLA BLA BLA BLA BLA BLA BLA BLA BLA BLA BLA BLA BLA BLA BLA BLA 
BLA BLA BLA BLA BLA BLA BLA BLA BLA BLA BLA BLA BLA BLA BLA BLA BLA BLA BLA BLA 
BLA BLA BLA BLA BLA BLA BLA BLA BLA BLA BLA BLA BLA BLA BLA BLA BLA BLA BLA BLA 
BLA BLA BLA BLA BLA BLA BLA BLA BLA BLA BLA BLA BLA BLA BLA BLA BLA BLA BLA BLA 
BLA BLA BLA BLA BLA BLA BLA BLA BLA BLA BLA BLA BLA BLA BLA BLA BLA BLA BLA BLA 
BLA BLA BLA BLA BLA BLA BLA BLA BLA BLA BLA BLA BLA BLA BLA BLA BLA BLA BLA BLA 
BLA BLA BLA BLA BLA BLA BLA BLA BLA BLA BLA BLA BLA BLA BLA BLA BLA BLA BLA BLA 
BLA BLA BLA BLA BLA BLA BLA BLA BLA BLA BLA BLA BLA BLA BLA BLA BLA BLA BLA BLA 
BLA BLA BLA BLA BLA BLA BLA BLA BLA BLA BLA BLA BLA BLA BLA BLA BLA BLA BLA BLA 
BLA BLA BLA BLA BLA BLA BLA BLA BLA BLA BLA BLA BLA BLA BLA BLA BLA BLA BLA BLA 
BLA BLA BLA BLA BLA BLA BLA BLA BLA BLA BLA BLA BLA BLA BLA BLA BLA BLA BLA BLA 
BLA BLA BLA BLA BLA BLA BLA BLA BLA BLA BLA BLA BLA BLA BLA BLA BLA BLA BLA BLA 
BLA BLA BLA BLA BLA BLA BLA BLA BLA BLA BLA BLA BLA BLA BLA BLA BLA BLA BLA BLA 
BLA BLA BLA BLA BLA BLA BLA BLA BLA BLA BLA BLA BLA BLA BLA BLA BLA BLA BLA BLA 
BLA BLA BLA BLA BLA BLA BLA BLA BLA BLA BLA BLA BLA BLA BLA BLA BLA BLA BLA BLA 
BLA BLA BLA BLA BLA BLA BLA BLA BLA BLA BLA BLA BLA BLA BLA BLA BLA BLA BLA BLA 
BLA BLA BLA BLA BLA BLA BLA BLA BLA BLA BLA BLA BLA BLA BLA BLA BLA BLA BLA BLA 
BLA BLA BLA BLA BLA BLA BLA BLA BLA BLA BLA BLA BLA BLA BLA BLA BLA BLA BLA BLA 
BLA BLA BLA BLA BLA BLA BLA BLA BLA BLA BLA BLA BLA BLA BLA BLA BLA BLA BLA BLA 
BLA BLA BLA BLA BLA BLA BLA BLA BLA BLA BLA BLA BLA BLA BLA BLA BLA BLA BLA BLA 
BLA BLA BLA BLA BLA BLA BLA BLA BLA BLA BLA BLA BLA BLA BLA BLA BLA BLA BLA BLA 
BLA BLA BLA BLA BLA BLA BLA BLA BLA BLA BLA BLA BLA BLA BLA BLA BLA BLA BLA BLA 
BLA BLA BLA BLA BLA BLA BLA BLA BLA BLA BLA BLA BLA BLA BLA BLA BLA BLA BLA BLA 
BLA BLA BLA BLA BLA BLA BLA BLA BLA BLA BLA BLA BLA BLA BLA BLA BLA BLA BLA BLA 
BLA BLA BLA BLA BLA BLA BLA BLA BLA BLA BLA BLA BLA BLA BLA BLA BLA BLA BLA BLA 
BLA BLA BLA BLA BLA BLA BLA BLA BLA BLA BLA BLA BLA BLA BLA BLA BLA BLA BLA BLA 
BLA BLA BLA BLA BLA BLA BLA BLA BLA BLA BLA BLA BLA BLA BLA BLA BLA BLA BLA BLA 
BLA BLA BLA BLA BLA BLA BLA BLA BLA BLA BLA BLA BLA BLA BLA BLA BLA BLA BLA BLA 
BLA BLA BLA BLA BLA BLA BLA BLA BLA BLA BLA BLA BLA BLA BLA BLA BLA BLA BLA BLA 
BLA BLA BLA BLA BLA BLA BLA BLA BLA BLA BLA BLA BLA BLA BLA BLA BLA BLA BLA BLA 
BLA BLA BLA BLA BLA BLA BLA BLA BLA BLA BLA BLA BLA BLA BLA BLA BLA BLA BLA BLA 
BLA BLA BLA BLA BLA BLA BLA BLA BLA BLA BLA BLA BLA BLA BLA BLA BLA BLA BLA BLA 
BLA BLA BLA BLA BLA BLA BLA BLA BLA BLA BLA BLA BLA BLA BLA BLA BLA BLA BLA BLA 
BLA BLA BLA BLA BLA BLA BLA BLA BLA BLA BLA BLA BLA BLA BLA BLA BLA BLA BLA BLA 
BLA BLA BLA BLA BLA BLA BLA BLA BLA BLA BLA BLA BLA BLA BLA BLA BLA BLA BLA BLA 
BLA BLA BLA BLA BLA BLA BLA BLA BLA BLA BLA BLA BLA BLA BLA BLA BLA BLA BLA BLA 
BLA BLA BLA BLA BLA BLA BLA BLA BLA BLA BLA BLA BLA BLA BLA BLA BLA BLA BLA BLA 
BLA BLA BLA BLA BLA BLA BLA BLA BLA BLA BLA BLA BLA BLA BLA BLA BLA BLA BLA BLA 
BLA BLA BLA BLA BLA BLA BLA BLA BLA BLA BLA BLA BLA BLA BLA BLA BLA BLA BLA BLA 
BLA BLA BLA BLA BLA BLA BLA BLA BLA BLA BLA BLA BLA BLA BLA BLA BLA BLA BLA BLA 
BLA BLA BLA BLA BLA BLA BLA BLA BLA BLA BLA BLA BLA BLA BLA BLA BLA BLA BLA BLA 
BLA BLA BLA BLA BLA BLA BLA BLA BLA BLA BLA BLA BLA BLA BLA BLA BLA BLA BLA BLA 
BLA BLA BLA BLA BLA BLA BLA BLA BLA BLA BLA BLA BLA BLA BLA BLA BLA BLA BLA BLA 
BLA BLA BLA BLA BLA BLA BLA BLA BLA BLA BLA BLA BLA BLA BLA BLA BLA BLA BLA BLA 
BLA BLA BLA BLA BLA BLA BLA BLA BLA BLA BLA BLA BLA BLA BLA BLA BLA BLA BLA BLA 
BLA BLA BLA BLA BLA BLA BLA BLA BLA BLA BLA BLA BLA BLA BLA BLA BLA BLA BLA BLA 
BLA BLA BLA BLA BLA BLA BLA BLA BLA BLA BLA BLA BLA BLA BLA BLA BLA BLA BLA BLA 
BLA BLA BLA BLA BLA BLA BLA BLA BLA BLA BLA BLA BLA BLA BLA BLA BLA BLA BLA BLA 
BLA BLA BLA BLA BLA BLA BLA BLA BLA BLA BLA BLA BLA BLA BLA BLA BLA BLA BLA BLA 
BLA BLA BLA BLA BLA BLA BLA BLA BLA BLA BLA BLA BLA BLA BLA BLA BLA BLA BLA BLA 
BLA BLA BLA BLA BLA BLA BLA BLA BLA BLA BLA BLA BLA BLA BLA BLA BLA BLA BLA BLA 
BLA BLA BLA BLA BLA BLA BLA BLA BLA BLA BLA BLA BLA BLA BLA BLA BLA BLA BLA BLA 
BLA BLA BLA BLA BLA BLA BLA BLA BLA BLA BLA BLA BLA BLA BLA BLA BLA BLA BLA BLA 
BLA BLA BLA BLA BLA BLA BLA BLA BLA BLA BLA BLA BLA BLA BLA BLA BLA BLA BLA BLA 
BLA BLA BLA BLA BLA BLA BLA BLA BLA BLA BLA BLA BLA BLA BLA BLA BLA BLA BLA BLA 
BLA BLA BLA BLA BLA BLA BLA BLA BLA BLA BLA BLA BLA BLA BLA BLA BLA BLA BLA BLA 
BLA BLA BLA BLA BLA BLA BLA BLA BLA BLA BLA BLA BLA BLA BLA BLA BLA BLA BLA BLA 
BLA BLA BLA BLA BLA BLA BLA BLA BLA BLA BLA BLA BLA BLA BLA BLA BLA BLA BLA BLA 
BLA BLA BLA BLA BLA BLA BLA BLA BLA BLA BLA BLA BLA BLA BLA BLA BLA BLA BLA BLA 
BLA BLA BLA BLA BLA BLA BLA BLA BLA BLA BLA BLA BLA BLA BLA BLA BLA BLA BLA BLA 
BLA BLA BLA BLA BLA BLA BLA BLA BLA BLA BLA BLA BLA BLA BLA BLA BLA BLA BLA BLA 
BLA BLA BLA BLA BLA BLA BLA BLA BLA BLA BLA BLA BLA BLA BLA BLA BLA BLA BLA BLA 
BLA BLA BLA BLA BLA BLA BLA BLA BLA BLA BLA BLA BLA BLA BLA BLA BLA BLA BLA BLA 
BLA BLA BLA BLA BLA BLA BLA BLA BLA BLA BLA BLA BLA BLA BLA BLA BLA BLA BLA BLA 
BLA BLA BLA BLA BLA BLA BLA BLA BLA BLA BLA BLA BLA BLA BLA BLA BLA BLA BLA BLA 
BLA BLA BLA BLA BLA BLA BLA BLA BLA BLA BLA BLA BLA BLA BLA BLA BLA BLA BLA BLA 
BLA BLA BLA BLA BLA BLA BLA BLA BLA BLA BLA BLA BLA BLA BLA BLA BLA BLA BLA BLA 
BLA BLA BLA BLA BLA BLA BLA BLA BLA BLA BLA BLA BLA BLA BLA BLA BLA BLA BLA BLA 
BLA BLA BLA BLA BLA BLA BLA BLA BLA BLA BLA BLA BLA BLA BLA BLA BLA BLA BLA BLA 
BLA BLA BLA BLA BLA BLA BLA BLA BLA BLA BLA BLA BLA BLA BLA BLA BLA BLA BLA BLA 
BLA BLA BLA BLA BLA BLA BLA BLA BLA BLA BLA BLA BLA BLA BLA BLA BLA BLA BLA BLA 
BLA BLA BLA BLA BLA BLA BLA BLA BLA BLA BLA BLA BLA BLA BLA BLA BLA BLA BLA BLA 
BLA BLA BLA BLA BLA BLA BLA BLA BLA BLA BLA BLA BLA BLA BLA BLA BLA BLA BLA BLA 
BLA BLA BLA BLA BLA BLA BLA BLA BLA BLA BLA BLA BLA BLA BLA BLA BLA BLA BLA BLA 
BLA BLA BLA BLA BLA BLA BLA BLA BLA BLA BLA BLA BLA BLA BLA BLA BLA BLA BLA BLA 
BLA BLA BLA BLA BLA BLA BLA BLA BLA BLA BLA BLA BLA BLA BLA BLA BLA BLA BLA BLA 
BLA BLA BLA BLA BLA BLA BLA BLA BLA BLA BLA BLA BLA BLA BLA BLA BLA BLA BLA BLA 
BLA BLA BLA BLA BLA BLA BLA BLA BLA BLA BLA BLA BLA BLA BLA BLA BLA BLA BLA BLA 
BLA BLA BLA BLA BLA BLA BLA BLA BLA BLA BLA BLA BLA BLA BLA BLA BLA BLA BLA BLA 
BLA BLA BLA BLA BLA BLA BLA BLA BLA BLA BLA BLA BLA BLA BLA BLA BLA BLA BLA BLA 
BLA BLA BLA BLA BLA BLA BLA BLA BLA BLA BLA BLA BLA BLA BLA BLA BLA BLA BLA BLA 
BLA BLA BLA BLA BLA BLA BLA BLA BLA BLA BLA BLA BLA BLA BLA BLA BLA BLA BLA BLA 
BLA BLA BLA BLA BLA BLA BLA BLA BLA BLA BLA BLA BLA BLA BLA BLA BLA BLA BLA BLA 
BLA BLA BLA BLA BLA BLA BLA BLA BLA BLA BLA BLA BLA BLA BLA BLA BLA BLA BLA BLA 
BLA BLA BLA BLA BLA BLA BLA BLA BLA BLA BLA BLA BLA BLA BLA BLA BLA BLA BLA BLA 
BLA BLA BLA BLA BLA BLA BLA BLA BLA BLA BLA BLA BLA BLA BLA BLA BLA BLA BLA BLA 
BLA BLA BLA BLA BLA BLA BLA BLA BLA BLA BLA BLA BLA BLA BLA BLA BLA BLA BLA BLA 
BLA BLA BLA BLA BLA BLA BLA BLA BLA BLA BLA BLA BLA BLA BLA BLA BLA BLA BLA BLA 
BLA BLA BLA BLA BLA BLA BLA BLA BLA BLA BLA BLA BLA BLA BLA BLA BLA BLA BLA BLA 
BLA BLA BLA BLA BLA BLA BLA BLA BLA BLA BLA BLA BLA BLA BLA BLA BLA BLA BLA BLA 
BLA BLA BLA BLA BLA BLA BLA BLA BLA BLA BLA BLA BLA BLA BLA BLA BLA BLA BLA BLA 
BLA BLA BLA BLA BLA BLA BLA BLA BLA BLA BLA BLA BLA BLA BLA BLA BLA BLA BLA BLA 
BLA BLA BLA BLA BLA BLA BLA BLA BLA BLA BLA BLA BLA BLA BLA BLA BLA BLA BLA BLA 
BLA BLA BLA BLA BLA BLA BLA BLA BLA BLA BLA BLA BLA BLA BLA BLA BLA BLA BLA BLA 
BLA BLA BLA BLA BLA BLA BLA BLA BLA BLA BLA BLA BLA BLA BLA BLA BLA BLA BLA BLA 
BLA BLA BLA BLA BLA BLA BLA BLA BLA BLA BLA BLA BLA BLA BLA BLA BLA BLA BLA BLA 
BLA BLA BLA BLA BLA BLA BLA BLA BLA BLA BLA BLA BLA BLA BLA BLA BLA BLA BLA BLA 
BLA BLA BLA BLA BLA BLA BLA BLA BLA BLA BLA BLA BLA BLA BLA BLA BLA BLA BLA BLA 
BLA BLA BLA BLA BLA BLA BLA BLA BLA BLA BLA BLA BLA BLA BLA BLA BLA BLA BLA BLA 
BLA BLA BLA BLA BLA BLA BLA BLA BLA BLA BLA BLA BLA BLA BLA BLA BLA BLA BLA BLA 
BLA BLA BLA BLA BLA BLA BLA BLA BLA BLA BLA BLA BLA BLA BLA BLA BLA BLA BLA BLA 
BLA BLA BLA BLA BLA BLA BLA BLA BLA BLA BLA BLA BLA BLA BLA BLA BLA BLA BLA BLA 
BLA BLA BLA BLA BLA BLA BLA BLA BLA BLA BLA BLA BLA BLA BLA BLA BLA BLA BLA BLA 
BLA BLA BLA BLA BLA BLA BLA BLA BLA BLA BLA BLA BLA BLA BLA BLA BLA BLA BLA BLA 
BLA BLA BLA BLA BLA BLA BLA BLA BLA BLA BLA BLA BLA BLA BLA BLA BLA BLA BLA BLA 
BLA BLA BLA BLA BLA BLA BLA BLA BLA BLA BLA BLA BLA BLA BLA BLA BLA BLA BLA BLA 
BLA BLA BLA BLA BLA BLA BLA BLA BLA BLA BLA BLA BLA BLA BLA BLA BLA BLA BLA BLA 
BLA BLA BLA BLA BLA BLA BLA BLA BLA BLA BLA BLA BLA BLA BLA BLA BLA BLA BLA BLA 
BLA BLA BLA BLA BLA BLA BLA BLA BLA BLA BLA BLA BLA BLA BLA BLA BLA BLA BLA BLA 
BLA BLA BLA BLA BLA BLA BLA BLA BLA BLA BLA BLA BLA BLA BLA BLA BLA BLA BLA BLA 
BLA BLA BLA BLA BLA BLA BLA BLA BLA BLA BLA BLA BLA BLA BLA BLA BLA BLA BLA BLA 
BLA BLA BLA BLA BLA BLA BLA BLA BLA BLA BLA BLA BLA BLA BLA BLA BLA BLA BLA BLA 
BLA BLA BLA BLA BLA BLA BLA BLA BLA BLA BLA BLA BLA BLA BLA BLA BLA BLA BLA BLA 
BLA BLA BLA BLA BLA BLA BLA BLA BLA BLA BLA BLA BLA BLA BLA BLA BLA BLA BLA BLA 
BLA BLA BLA BLA BLA BLA BLA BLA BLA BLA BLA BLA BLA BLA BLA BLA BLA BLA BLA BLA 
BLA BLA BLA BLA BLA BLA BLA BLA BLA BLA BLA BLA BLA BLA BLA BLA BLA BLA BLA BLA 
BLA BLA BLA BLA BLA BLA BLA BLA BLA BLA BLA BLA BLA BLA BLA BLA BLA BLA BLA BLA 
BLA BLA BLA BLA BLA BLA BLA BLA BLA BLA BLA BLA BLA BLA BLA BLA BLA BLA BLA BLA 
BLA BLA BLA BLA BLA BLA BLA BLA BLA BLA BLA BLA BLA BLA BLA BLA BLA BLA BLA BLA 
BLA BLA BLA BLA BLA BLA BLA BLA BLA BLA BLA BLA BLA BLA BLA BLA BLA BLA BLA BLA 
BLA BLA BLA BLA BLA BLA BLA BLA BLA BLA BLA BLA BLA BLA BLA BLA BLA BLA BLA BLA 
BLA BLA BLA BLA BLA BLA BLA BLA BLA BLA BLA BLA BLA BLA BLA BLA BLA BLA BLA BLA 
BLA BLA BLA BLA BLA BLA BLA BLA BLA BLA BLA BLA BLA BLA BLA BLA BLA BLA BLA BLA 
BLA BLA BLA BLA BLA BLA BLA BLA BLA BLA BLA BLA BLA BLA BLA BLA BLA BLA BLA BLA 
BLA BLA BLA BLA BLA BLA BLA BLA BLA BLA BLA BLA BLA BLA BLA BLA BLA BLA BLA BLA 
BLA BLA BLA BLA BLA BLA BLA BLA BLA BLA BLA BLA BLA BLA BLA BLA BLA BLA BLA BLA 
BLA BLA BLA BLA BLA BLA BLA BLA BLA BLA BLA BLA BLA BLA BLA BLA BLA BLA BLA BLA 
BLA BLA BLA BLA BLA BLA BLA BLA BLA BLA BLA BLA BLA BLA BLA BLA BLA BLA BLA BLA 
BLA BLA BLA BLA BLA BLA BLA BLA BLA BLA BLA BLA BLA BLA BLA BLA BLA BLA BLA BLA 
BLA BLA BLA BLA BLA BLA BLA BLA BLA BLA BLA BLA BLA BLA BLA BLA BLA BLA BLA BLA 
BLA BLA BLA BLA BLA BLA BLA BLA BLA BLA BLA BLA BLA BLA BLA BLA BLA BLA BLA BLA 
BLA BLA BLA BLA BLA BLA BLA BLA BLA BLA BLA BLA BLA BLA BLA BLA BLA BLA BLA BLA 
BLA BLA BLA BLA BLA BLA BLA BLA BLA BLA BLA BLA BLA BLA BLA BLA BLA BLA BLA BLA 
BLA BLA BLA BLA BLA BLA BLA BLA BLA BLA BLA BLA BLA BLA BLA BLA BLA BLA BLA BLA 
BLA BLA BLA BLA BLA BLA BLA BLA BLA BLA BLA BLA BLA BLA BLA BLA BLA BLA BLA BLA 
BLA BLA BLA BLA BLA BLA BLA BLA BLA BLA BLA BLA BLA BLA BLA BLA BLA BLA BLA BLA 
BLA BLA BLA BLA BLA BLA BLA BLA BLA BLA BLA BLA BLA BLA BLA BLA BLA BLA BLA BLA 
BLA BLA BLA BLA BLA BLA BLA BLA BLA BLA BLA BLA BLA BLA BLA BLA BLA BLA BLA BLA 
BLA BLA BLA BLA BLA BLA BLA BLA BLA BLA BLA BLA BLA BLA BLA BLA BLA BLA BLA BLA 
BLA BLA BLA BLA BLA BLA BLA BLA BLA BLA BLA BLA BLA BLA BLA BLA BLA BLA BLA BLA 
BLA BLA BLA BLA BLA BLA BLA BLA BLA BLA BLA BLA BLA BLA BLA BLA BLA BLA BLA BLA 
BLA BLA BLA BLA BLA BLA BLA BLA BLA BLA BLA BLA BLA BLA BLA BLA BLA BLA BLA BLA 
BLA BLA BLA BLA BLA BLA BLA BLA BLA BLA BLA BLA BLA BLA BLA BLA BLA BLA BLA BLA 
BLA BLA BLA BLA BLA BLA BLA BLA BLA BLA BLA BLA BLA BLA BLA BLA BLA BLA BLA BLA 
BLA BLA BLA BLA BLA BLA BLA BLA BLA BLA BLA BLA BLA BLA BLA BLA BLA BLA BLA BLA 
BLA BLA BLA BLA BLA BLA BLA BLA BLA BLA BLA BLA BLA BLA BLA BLA BLA BLA BLA BLA 
BLA BLA BLA BLA BLA BLA BLA BLA BLA BLA BLA BLA BLA BLA BLA BLA BLA BLA BLA BLA 
BLA BLA BLA BLA BLA BLA BLA BLA BLA BLA BLA BLA BLA BLA BLA BLA BLA BLA BLA BLA 
BLA BLA BLA BLA BLA BLA BLA BLA BLA BLA BLA BLA BLA BLA BLA BLA BLA BLA BLA BLA 
BLA BLA BLA BLA BLA BLA BLA BLA BLA BLA BLA BLA BLA BLA BLA BLA BLA BLA BLA BLA 
BLA BLA BLA BLA BLA BLA BLA BLA BLA BLA BLA BLA BLA BLA BLA BLA BLA BLA BLA BLA 
BLA BLA BLA BLA BLA BLA BLA BLA BLA BLA BLA BLA BLA BLA BLA BLA BLA BLA BLA BLA 
BLA BLA BLA BLA BLA BLA BLA BLA BLA BLA BLA BLA BLA BLA BLA BLA BLA BLA BLA BLA 
BLA BLA BLA BLA BLA BLA BLA BLA BLA BLA BLA BLA BLA BLA BLA BLA BLA BLA BLA BLA 
BLA BLA BLA BLA BLA BLA BLA BLA BLA BLA BLA BLA BLA BLA BLA BLA BLA BLA BLA BLA 
BLA BLA BLA BLA BLA BLA BLA BLA BLA BLA BLA BLA BLA BLA BLA BLA BLA BLA BLA BLA 
BLA BLA BLA BLA BLA BLA BLA BLA BLA BLA BLA BLA BLA BLA BLA BLA BLA BLA BLA BLA 
BLA BLA BLA BLA BLA BLA BLA BLA BLA BLA BLA BLA BLA BLA BLA BLA BLA BLA BLA BLA 
BLA BLA BLA BLA BLA BLA BLA BLA BLA BLA BLA BLA BLA BLA BLA BLA BLA BLA BLA BLA 
BLA BLA BLA BLA BLA BLA BLA BLA BLA BLA BLA BLA BLA BLA BLA BLA BLA BLA BLA BLA 
BLA BLA BLA BLA BLA BLA BLA BLA BLA BLA BLA BLA BLA BLA BLA BLA BLA BLA BLA BLA 
BLA BLA BLA BLA BLA BLA BLA BLA BLA BLA BLA BLA BLA BLA BLA BLA BLA BLA BLA BLA 
BLA BLA BLA BLA BLA BLA BLA BLA BLA BLA BLA BLA BLA BLA BLA BLA BLA BLA BLA BLA 
BLA BLA BLA BLA BLA BLA BLA BLA BLA BLA BLA BLA BLA BLA BLA BLA BLA BLA BLA BLA 
BLA BLA BLA BLA BLA BLA BLA BLA BLA BLA BLA BLA BLA BLA BLA BLA BLA BLA BLA BLA 
BLA BLA BLA BLA BLA BLA BLA BLA BLA BLA BLA BLA BLA BLA BLA BLA BLA BLA BLA BLA 
BLA BLA BLA BLA BLA BLA BLA BLA BLA BLA BLA BLA BLA BLA BLA BLA BLA BLA BLA BLA 
BLA BLA BLA BLA BLA BLA BLA BLA BLA BLA BLA BLA BLA BLA BLA BLA BLA BLA BLA BLA 
BLA BLA BLA BLA BLA BLA BLA BLA BLA BLA BLA BLA BLA BLA BLA BLA BLA BLA BLA BLA 
BLA BLA BLA BLA BLA BLA BLA BLA BLA BLA BLA BLA BLA BLA BLA BLA BLA BLA BLA BLA 
BLA BLA BLA BLA BLA BLA BLA BLA BLA BLA BLA BLA BLA BLA BLA BLA BLA BLA BLA BLA 
BLA BLA BLA BLA BLA BLA BLA BLA BLA BLA BLA BLA BLA BLA BLA BLA BLA BLA BLA BLA 
BLA BLA BLA BLA BLA BLA BLA BLA BLA BLA BLA BLA BLA BLA BLA BLA BLA BLA BLA BLA 
BLA BLA BLA BLA BLA BLA BLA BLA BLA BLA BLA BLA BLA BLA BLA BLA BLA BLA BLA BLA 
BLA BLA BLA BLA BLA BLA BLA BLA BLA BLA BLA BLA BLA BLA BLA BLA BLA BLA BLA BLA 
BLA BLA BLA BLA BLA BLA BLA BLA BLA BLA BLA BLA BLA BLA BLA BLA BLA BLA BLA BLA 
BLA BLA BLA BLA BLA BLA BLA BLA BLA BLA BLA BLA BLA BLA BLA BLA BLA BLA BLA BLA 
BLA BLA BLA BLA BLA BLA BLA BLA BLA BLA BLA BLA BLA BLA BLA BLA BLA BLA BLA BLA 
BLA BLA BLA BLA BLA BLA BLA BLA BLA BLA BLA BLA BLA BLA BLA BLA BLA BLA BLA BLA 
BLA BLA BLA BLA BLA BLA BLA BLA BLA BLA BLA BLA BLA BLA BLA BLA BLA BLA BLA BLA 
BLA BLA BLA BLA BLA BLA BLA BLA BLA BLA BLA BLA BLA BLA BLA BLA BLA BLA BLA BLA 
BLA BLA BLA BLA BLA BLA BLA BLA BLA BLA BLA BLA BLA BLA BLA BLA BLA BLA BLA BLA 
BLA BLA BLA BLA BLA BLA BLA BLA BLA BLA BLA BLA BLA BLA BLA BLA BLA BLA BLA BLA 
BLA BLA BLA BLA BLA BLA BLA BLA BLA BLA BLA BLA BLA BLA BLA BLA BLA BLA BLA BLA 
BLA BLA BLA BLA BLA BLA BLA BLA BLA BLA BLA BLA BLA BLA BLA BLA BLA BLA BLA BLA 
BLA BLA BLA BLA BLA BLA BLA BLA BLA BLA BLA BLA BLA BLA BLA BLA BLA BLA BLA BLA 
BLA BLA BLA BLA BLA BLA BLA BLA BLA BLA BLA BLA BLA BLA BLA BLA BLA BLA BLA BLA 
BLA BLA BLA BLA BLA BLA BLA BLA BLA BLA BLA BLA BLA BLA BLA BLA BLA BLA BLA BLA 
BLA BLA BLA BLA BLA BLA BLA BLA BLA BLA BLA BLA BLA BLA BLA BLA BLA BLA BLA BLA 
BLA BLA BLA BLA BLA BLA BLA BLA BLA BLA BLA BLA BLA BLA BLA BLA BLA BLA BLA BLA 
BLA BLA BLA BLA BLA BLA BLA BLA BLA BLA BLA BLA BLA BLA BLA BLA BLA BLA BLA BLA 
BLA BLA BLA BLA BLA BLA BLA BLA BLA BLA BLA BLA BLA BLA BLA BLA BLA BLA BLA BLA 
BLA BLA BLA BLA BLA BLA BLA BLA BLA BLA BLA BLA BLA BLA BLA BLA BLA BLA BLA BLA 
BLA BLA BLA BLA BLA BLA BLA BLA BLA BLA BLA BLA BLA BLA BLA BLA BLA BLA BLA BLA 
BLA BLA BLA BLA BLA BLA BLA BLA BLA BLA BLA BLA BLA BLA BLA BLA BLA BLA BLA BLA 
BLA BLA BLA BLA BLA BLA BLA BLA BLA BLA BLA BLA BLA BLA BLA BLA BLA BLA BLA BLA 
BLA BLA BLA BLA BLA BLA BLA BLA BLA BLA BLA BLA BLA BLA BLA BLA BLA BLA BLA BLA 
BLA BLA BLA BLA BLA BLA BLA BLA BLA BLA BLA BLA BLA BLA BLA BLA BLA BLA BLA BLA 
BLA BLA BLA BLA BLA BLA BLA BLA BLA BLA BLA BLA BLA BLA BLA BLA BLA BLA BLA BLA 
BLA BLA BLA BLA BLA BLA BLA BLA BLA BLA BLA BLA BLA BLA BLA BLA BLA BLA BLA BLA 
BLA BLA BLA BLA BLA BLA BLA BLA BLA BLA BLA BLA BLA BLA BLA BLA BLA BLA BLA BLA 
BLA BLA BLA BLA BLA BLA BLA BLA BLA BLA BLA BLA BLA BLA BLA BLA BLA BLA BLA BLA 
BLA BLA BLA BLA BLA BLA BLA BLA BLA BLA BLA BLA BLA BLA BLA BLA BLA BLA BLA BLA 
BLA BLA BLA BLA BLA BLA BLA BLA BLA BLA BLA BLA BLA BLA BLA BLA BLA BLA BLA BLA 
BLA BLA BLA BLA BLA BLA BLA BLA BLA BLA BLA BLA BLA BLA BLA BLA BLA BLA BLA BLA 
BLA BLA BLA BLA BLA BLA BLA BLA BLA BLA BLA BLA BLA BLA BLA BLA BLA BLA BLA BLA 
BLA BLA BLA BLA BLA BLA BLA BLA BLA BLA BLA BLA BLA BLA BLA BLA BLA BLA BLA BLA 
BLA BLA BLA BLA BLA BLA BLA BLA BLA BLA BLA BLA BLA BLA BLA BLA BLA BLA BLA BLA 
BLA BLA BLA BLA BLA BLA BLA BLA BLA BLA BLA BLA BLA BLA BLA BLA BLA BLA BLA BLA 
BLA BLA BLA BLA BLA BLA BLA BLA BLA BLA BLA BLA BLA BLA BLA BLA BLA BLA BLA BLA 
BLA BLA BLA BLA BLA BLA BLA BLA BLA BLA BLA BLA BLA BLA BLA BLA BLA BLA BLA BLA 
BLA BLA BLA BLA BLA BLA BLA BLA BLA BLA BLA BLA BLA BLA BLA BLA BLA BLA BLA BLA 
BLA BLA BLA BLA BLA BLA BLA BLA BLA BLA BLA BLA BLA BLA BLA BLA BLA BLA BLA BLA 
BLA BLA BLA BLA BLA BLA BLA BLA BLA BLA BLA BLA BLA BLA BLA BLA BLA BLA BLA BLA 
BLA BLA BLA BLA BLA BLA BLA BLA BLA BLA BLA BLA BLA BLA BLA BLA BLA BLA BLA BLA 
BLA BLA BLA BLA BLA BLA BLA BLA BLA BLA BLA BLA BLA BLA BLA BLA BLA BLA BLA BLA 
BLA BLA BLA BLA BLA BLA BLA BLA BLA BLA BLA BLA BLA BLA BLA BLA BLA BLA BLA BLA 
BLA BLA BLA BLA BLA BLA BLA BLA BLA BLA BLA BLA BLA BLA BLA BLA BLA BLA BLA BLA 
BLA BLA BLA BLA BLA BLA BLA BLA BLA BLA BLA BLA BLA BLA BLA BLA BLA BLA BLA BLA 
BLA BLA BLA BLA BLA BLA BLA BLA BLA BLA BLA BLA BLA BLA BLA BLA BLA BLA BLA BLA 
BLA BLA BLA BLA BLA BLA BLA BLA BLA BLA BLA BLA BLA BLA BLA BLA BLA BLA BLA BLA 
BLA BLA BLA BLA BLA BLA BLA BLA BLA BLA BLA BLA BLA BLA BLA BLA BLA BLA BLA BLA 
BLA BLA BLA BLA BLA BLA BLA BLA BLA BLA BLA BLA BLA BLA BLA BLA BLA BLA BLA BLA 
BLA BLA BLA BLA BLA BLA BLA BLA BLA BLA BLA BLA BLA BLA BLA BLA BLA BLA BLA BLA 
BLA BLA BLA BLA BLA BLA BLA BLA BLA BLA BLA BLA BLA BLA BLA BLA BLA BLA BLA BLA 
BLA BLA BLA BLA BLA BLA BLA BLA BLA BLA BLA BLA BLA BLA BLA BLA BLA BLA BLA BLA 
BLA BLA BLA BLA BLA BLA BLA BLA BLA BLA BLA BLA BLA BLA BLA BLA BLA BLA BLA BLA 
BLA BLA BLA BLA BLA BLA BLA BLA BLA BLA BLA BLA BLA BLA BLA BLA BLA BLA BLA BLA 
BLA BLA BLA BLA BLA BLA BLA BLA BLA BLA BLA BLA BLA BLA BLA BLA BLA BLA BLA BLA 
BLA BLA BLA BLA BLA BLA BLA BLA BLA BLA BLA BLA BLA BLA BLA BLA BLA BLA BLA BLA 
BLA BLA BLA BLA BLA BLA BLA BLA BLA BLA BLA BLA BLA BLA BLA BLA BLA BLA BLA BLA 
BLA BLA BLA BLA BLA BLA BLA BLA BLA BLA BLA BLA BLA BLA BLA BLA BLA BLA BLA BLA 
BLA BLA BLA BLA BLA BLA BLA BLA BLA BLA BLA BLA BLA BLA BLA BLA BLA BLA BLA BLA 
BLA BLA BLA BLA BLA BLA BLA BLA BLA BLA BLA BLA BLA BLA BLA BLA BLA BLA BLA BLA 
BLA BLA BLA BLA BLA BLA BLA BLA BLA BLA BLA BLA BLA BLA BLA BLA BLA BLA BLA BLA 
BLA BLA BLA BLA BLA BLA BLA BLA BLA BLA BLA BLA BLA BLA BLA BLA BLA BLA BLA BLA 
BLA BLA BLA BLA BLA BLA BLA BLA BLA BLA BLA BLA BLA BLA BLA BLA BLA BLA BLA BLA 
BLA BLA BLA BLA BLA BLA BLA BLA BLA BLA BLA BLA BLA BLA BLA BLA BLA BLA BLA BLA 
BLA BLA BLA BLA BLA BLA BLA BLA BLA BLA BLA BLA BLA BLA BLA BLA BLA BLA BLA BLA 
BLA BLA BLA BLA BLA BLA BLA BLA BLA BLA BLA BLA BLA BLA BLA BLA BLA BLA BLA BLA 
BLA BLA BLA BLA BLA BLA BLA BLA BLA BLA BLA BLA BLA BLA BLA BLA BLA BLA BLA BLA 
BLA BLA BLA BLA BLA BLA BLA BLA BLA BLA BLA BLA BLA BLA BLA BLA BLA BLA BLA BLA 
BLA BLA BLA BLA BLA BLA BLA BLA BLA BLA BLA BLA BLA BLA BLA BLA BLA BLA BLA BLA 
BLA BLA BLA BLA BLA BLA BLA BLA BLA BLA BLA BLA BLA BLA BLA BLA BLA BLA BLA BLA 
BLA BLA BLA BLA BLA BLA BLA BLA BLA BLA BLA BLA BLA BLA BLA BLA BLA BLA BLA BLA 
BLA BLA BLA BLA BLA BLA BLA BLA BLA BLA BLA BLA BLA BLA BLA BLA BLA BLA BLA BLA 
BLA BLA BLA BLA BLA BLA BLA BLA BLA BLA BLA BLA BLA BLA BLA BLA BLA BLA BLA BLA 
BLA BLA BLA BLA BLA BLA BLA BLA BLA BLA BLA BLA BLA BLA BLA BLA BLA BLA BLA BLA 
BLA BLA BLA BLA BLA BLA BLA BLA BLA BLA BLA BLA BLA BLA BLA BLA BLA BLA BLA BLA 
BLA BLA BLA BLA BLA BLA BLA BLA BLA BLA BLA BLA BLA BLA BLA BLA BLA BLA BLA BLA 
BLA BLA BLA BLA BLA BLA BLA BLA BLA BLA BLA BLA BLA BLA BLA BLA BLA BLA BLA BLA 
BLA BLA BLA BLA BLA BLA BLA BLA BLA BLA BLA BLA BLA BLA BLA BLA BLA BLA BLA BLA 
BLA BLA BLA BLA BLA BLA BLA BLA BLA BLA BLA BLA BLA BLA BLA BLA BLA BLA BLA BLA 
BLA BLA BLA BLA BLA BLA BLA BLA BLA BLA BLA BLA BLA BLA BLA BLA BLA BLA BLA BLA 
BLA BLA BLA BLA BLA BLA BLA BLA BLA BLA BLA BLA BLA BLA BLA BLA BLA BLA BLA BLA 
BLA BLA BLA BLA BLA BLA BLA BLA BLA BLA BLA BLA BLA BLA BLA BLA BLA BLA BLA BLA 
BLA BLA BLA BLA BLA BLA BLA BLA BLA BLA BLA BLA BLA BLA BLA BLA BLA BLA BLA BLA 
BLA BLA BLA BLA BLA BLA BLA BLA BLA BLA BLA BLA BLA BLA BLA BLA BLA BLA BLA BLA 
BLA BLA BLA BLA BLA BLA BLA BLA BLA BLA BLA BLA BLA BLA BLA BLA BLA BLA BLA BLA 
BLA BLA BLA BLA BLA BLA BLA BLA BLA BLA BLA BLA BLA BLA BLA BLA BLA BLA BLA BLA 
BLA BLA BLA BLA BLA BLA BLA BLA BLA BLA BLA BLA BLA BLA BLA BLA BLA BLA BLA BLA 
BLA BLA BLA BLA BLA BLA BLA BLA BLA BLA BLA BLA BLA BLA BLA BLA BLA BLA BLA BLA 
BLA BLA BLA BLA BLA BLA BLA BLA BLA BLA BLA BLA BLA BLA BLA BLA BLA BLA BLA BLA 
BLA BLA BLA BLA BLA BLA BLA BLA BLA BLA BLA BLA BLA BLA BLA BLA BLA BLA BLA BLA 
BLA BLA BLA BLA BLA BLA BLA BLA BLA BLA BLA BLA BLA BLA BLA BLA BLA BLA BLA BLA 
BLA BLA BLA BLA BLA BLA BLA BLA BLA BLA BLA BLA BLA BLA BLA BLA BLA BLA BLA BLA 
BLA BLA BLA BLA BLA BLA BLA BLA BLA BLA BLA BLA BLA BLA BLA BLA BLA BLA BLA BLA 
BLA BLA BLA BLA BLA BLA BLA BLA BLA BLA BLA BLA BLA BLA BLA BLA BLA BLA BLA BLA 
BLA BLA BLA BLA BLA BLA BLA BLA BLA BLA BLA BLA BLA BLA BLA BLA BLA BLA BLA BLA 
BLA BLA BLA BLA BLA BLA BLA BLA BLA BLA BLA BLA BLA BLA BLA BLA BLA BLA BLA BLA 
BLA BLA BLA BLA BLA BLA BLA BLA BLA BLA BLA BLA BLA BLA BLA BLA BLA BLA BLA BLA 
BLA BLA BLA BLA BLA BLA BLA BLA BLA BLA BLA BLA BLA BLA BLA BLA BLA BLA BLA BLA 
BLA BLA BLA BLA BLA BLA BLA BLA BLA BLA BLA BLA BLA BLA BLA BLA BLA BLA BLA BLA 
BLA BLA BLA BLA BLA BLA BLA BLA BLA BLA BLA BLA BLA BLA BLA BLA BLA BLA BLA BLA 
BLA BLA BLA BLA BLA BLA BLA BLA BLA BLA BLA BLA BLA BLA BLA BLA BLA BLA BLA BLA 
BLA BLA BLA BLA BLA BLA BLA BLA BLA BLA BLA BLA BLA BLA BLA BLA BLA BLA BLA BLA 
BLA BLA BLA BLA BLA BLA BLA BLA BLA BLA BLA BLA BLA BLA BLA BLA BLA BLA BLA BLA 
BLA BLA BLA BLA BLA BLA BLA BLA BLA BLA BLA BLA BLA BLA BLA BLA BLA BLA BLA BLA 
BLA BLA BLA BLA BLA BLA BLA BLA BLA BLA BLA BLA BLA BLA BLA BLA BLA BLA BLA BLA 
BLA BLA BLA BLA BLA BLA BLA BLA BLA BLA BLA BLA BLA BLA BLA BLA BLA BLA BLA BLA 
BLA BLA BLA BLA BLA BLA BLA BLA BLA BLA BLA BLA BLA BLA BLA BLA BLA BLA BLA BLA 
BLA BLA BLA BLA BLA BLA BLA BLA BLA BLA BLA BLA BLA BLA BLA BLA BLA BLA BLA BLA 
BLA BLA BLA BLA BLA BLA BLA BLA BLA BLA BLA BLA BLA BLA BLA BLA BLA BLA BLA BLA 
BLA BLA BLA BLA BLA BLA BLA BLA BLA BLA BLA BLA BLA BLA BLA BLA BLA BLA BLA BLA 
BLA BLA BLA BLA BLA BLA BLA BLA BLA BLA BLA BLA BLA BLA BLA BLA BLA BLA BLA BLA 
BLA BLA BLA BLA BLA BLA BLA BLA BLA BLA BLA BLA BLA BLA BLA BLA BLA BLA BLA BLA 
BLA BLA BLA BLA BLA BLA BLA BLA BLA BLA BLA BLA BLA BLA BLA BLA BLA BLA BLA BLA 
BLA BLA BLA BLA BLA BLA BLA BLA BLA BLA BLA BLA BLA BLA BLA BLA BLA BLA BLA BLA 
BLA BLA BLA BLA BLA BLA BLA BLA BLA BLA BLA BLA BLA BLA BLA BLA BLA BLA BLA BLA 
BLA BLA BLA BLA BLA BLA BLA BLA BLA BLA BLA BLA BLA BLA BLA BLA BLA BLA BLA BLA 
BLA BLA BLA BLA BLA BLA BLA BLA BLA BLA BLA BLA BLA BLA BLA BLA BLA BLA BLA BLA 
BLA BLA BLA BLA BLA BLA BLA BLA BLA BLA BLA BLA BLA BLA BLA BLA BLA BLA BLA BLA 
BLA BLA BLA BLA BLA BLA BLA BLA BLA BLA BLA BLA BLA BLA BLA BLA BLA BLA BLA BLA 
BLA BLA BLA BLA BLA BLA BLA BLA BLA BLA BLA BLA BLA BLA BLA BLA BLA BLA BLA BLA 
BLA BLA BLA BLA BLA BLA BLA BLA BLA BLA BLA BLA BLA BLA BLA BLA BLA BLA BLA BLA 
BLA BLA BLA BLA BLA BLA BLA BLA BLA BLA BLA BLA BLA BLA BLA BLA BLA BLA BLA BLA 
BLA BLA BLA BLA BLA BLA BLA BLA BLA BLA BLA BLA BLA BLA BLA BLA BLA BLA BLA BLA 
BLA BLA BLA BLA BLA BLA BLA BLA BLA BLA BLA BLA BLA BLA BLA BLA BLA BLA BLA BLA 
BLA BLA BLA BLA BLA BLA BLA BLA BLA BLA BLA BLA BLA BLA BLA BLA BLA BLA BLA BLA 
BLA BLA BLA BLA BLA BLA BLA BLA BLA BLA BLA BLA BLA BLA BLA BLA BLA BLA BLA BLA 
BLA BLA BLA BLA BLA BLA BLA BLA BLA BLA BLA BLA BLA BLA BLA BLA BLA BLA BLA BLA 
BLA BLA BLA BLA BLA BLA BLA BLA BLA BLA BLA BLA BLA BLA BLA BLA BLA BLA BLA BLA 
BLA BLA BLA BLA BLA BLA BLA BLA BLA BLA BLA BLA BLA BLA BLA BLA BLA BLA BLA BLA 
BLA BLA BLA BLA BLA BLA BLA BLA BLA BLA BLA BLA BLA BLA BLA BLA BLA BLA BLA BLA 
BLA BLA BLA BLA BLA BLA BLA BLA BLA BLA BLA BLA BLA BLA BLA BLA BLA BLA BLA BLA 
BLA BLA BLA BLA BLA BLA BLA BLA BLA BLA BLA BLA BLA BLA BLA BLA BLA BLA BLA BLA 
BLA BLA BLA BLA BLA BLA BLA BLA BLA BLA BLA BLA BLA BLA BLA BLA BLA BLA BLA BLA 
BLA BLA BLA BLA BLA BLA BLA BLA BLA BLA BLA BLA BLA BLA BLA BLA BLA BLA BLA BLA 
BLA BLA BLA BLA BLA BLA BLA BLA BLA BLA BLA BLA BLA BLA BLA BLA BLA BLA BLA BLA 
BLA BLA BLA BLA BLA BLA BLA BLA BLA BLA BLA BLA BLA BLA BLA BLA BLA BLA BLA BLA 
BLA BLA BLA BLA BLA BLA BLA BLA BLA BLA BLA BLA BLA BLA BLA BLA BLA BLA BLA BLA 
BLA BLA BLA BLA BLA BLA BLA BLA BLA BLA BLA BLA BLA BLA BLA BLA BLA BLA BLA BLA 
BLA BLA BLA BLA BLA BLA BLA BLA BLA BLA BLA BLA BLA BLA BLA BLA BLA BLA BLA BLA 
BLA BLA BLA BLA BLA BLA BLA BLA BLA BLA BLA BLA BLA BLA BLA BLA BLA BLA BLA BLA 
BLA BLA BLA BLA BLA BLA BLA BLA BLA BLA BLA BLA BLA BLA BLA BLA BLA BLA BLA BLA 
BLA BLA BLA BLA BLA BLA BLA BLA BLA BLA BLA BLA BLA BLA BLA BLA BLA BLA BLA BLA 
BLA BLA BLA BLA BLA BLA BLA BLA BLA BLA BLA BLA BLA BLA BLA BLA BLA BLA BLA BLA 
BLA BLA BLA BLA BLA BLA BLA BLA BLA BLA BLA BLA BLA BLA BLA BLA BLA BLA BLA BLA 
BLA BLA BLA BLA BLA BLA BLA BLA BLA BLA BLA BLA BLA BLA BLA BLA BLA BLA BLA BLA 
BLA BLA BLA BLA BLA BLA BLA BLA BLA BLA BLA BLA BLA BLA BLA BLA BLA BLA BLA BLA 
BLA BLA BLA BLA BLA BLA BLA BLA BLA BLA BLA BLA BLA BLA BLA BLA BLA BLA BLA BLA 
BLA BLA BLA BLA BLA BLA BLA BLA BLA BLA BLA BLA BLA BLA BLA BLA BLA BLA BLA BLA 
BLA BLA BLA BLA BLA BLA BLA BLA BLA BLA BLA BLA BLA BLA BLA BLA BLA BLA BLA BLA 
BLA BLA BLA BLA BLA BLA BLA BLA BLA BLA BLA BLA BLA BLA BLA BLA BLA BLA BLA BLA 
BLA BLA BLA BLA BLA BLA BLA BLA BLA BLA BLA BLA BLA BLA BLA BLA BLA BLA BLA BLA 
BLA BLA BLA BLA BLA BLA BLA BLA BLA BLA BLA BLA BLA BLA BLA BLA BLA BLA BLA BLA 
BLA BLA BLA BLA BLA BLA BLA BLA BLA BLA BLA BLA BLA BLA BLA BLA BLA BLA BLA BLA 
BLA BLA BLA BLA BLA BLA BLA BLA BLA BLA BLA BLA BLA BLA BLA BLA BLA BLA BLA BLA 
BLA BLA BLA BLA BLA BLA BLA BLA BLA BLA BLA BLA BLA BLA BLA BLA BLA BLA BLA BLA 
BLA BLA BLA BLA BLA BLA BLA BLA BLA BLA BLA BLA BLA BLA BLA BLA BLA BLA BLA BLA 
BLA BLA BLA BLA BLA BLA BLA BLA BLA BLA BLA BLA BLA BLA BLA BLA BLA BLA BLA BLA 
BLA BLA BLA BLA BLA BLA BLA BLA BLA BLA BLA BLA BLA BLA BLA BLA BLA BLA BLA BLA 
BLA BLA BLA BLA BLA BLA BLA BLA BLA BLA BLA BLA BLA BLA BLA BLA BLA BLA BLA BLA 
BLA BLA BLA BLA BLA BLA BLA BLA BLA BLA BLA BLA BLA BLA BLA BLA BLA BLA BLA BLA 
BLA BLA BLA BLA BLA BLA BLA BLA BLA BLA BLA BLA BLA BLA BLA BLA BLA BLA BLA BLA 
BLA BLA BLA BLA BLA BLA BLA BLA BLA BLA BLA BLA BLA BLA BLA BLA BLA BLA BLA BLA 
BLA BLA BLA BLA BLA BLA BLA BLA BLA BLA BLA BLA BLA BLA BLA BLA BLA BLA BLA BLA 
BLA BLA BLA BLA BLA BLA BLA BLA BLA BLA BLA BLA BLA BLA BLA BLA BLA BLA BLA BLA 
BLA BLA BLA BLA BLA BLA BLA BLA BLA BLA BLA BLA BLA BLA BLA BLA BLA BLA BLA BLA 
BLA BLA BLA BLA BLA BLA BLA BLA BLA BLA BLA BLA BLA BLA BLA BLA BLA BLA BLA BLA 
BLA BLA BLA BLA BLA BLA BLA BLA BLA BLA BLA BLA BLA BLA BLA BLA BLA BLA BLA BLA 
BLA BLA BLA BLA BLA BLA BLA BLA BLA BLA BLA BLA BLA BLA BLA BLA BLA BLA BLA BLA 
BLA BLA BLA BLA BLA BLA BLA BLA BLA BLA BLA BLA BLA BLA BLA BLA BLA BLA BLA BLA 
BLA BLA BLA BLA BLA BLA BLA BLA BLA BLA BLA BLA BLA BLA BLA BLA BLA BLA BLA BLA 
BLA BLA BLA BLA BLA BLA BLA BLA BLA BLA BLA BLA BLA BLA BLA BLA BLA BLA BLA BLA 
BLA BLA BLA BLA BLA BLA BLA BLA BLA BLA BLA BLA BLA BLA BLA BLA BLA BLA BLA BLA 
BLA BLA BLA BLA BLA BLA BLA BLA BLA BLA BLA BLA BLA BLA BLA BLA BLA BLA BLA BLA 
BLA BLA BLA BLA BLA BLA BLA BLA BLA BLA BLA BLA BLA BLA BLA BLA BLA BLA BLA BLA 
BLA BLA BLA BLA BLA BLA BLA BLA BLA BLA BLA BLA BLA BLA BLA BLA BLA BLA BLA BLA 
BLA BLA BLA BLA BLA BLA BLA BLA BLA BLA BLA BLA BLA BLA BLA BLA BLA BLA BLA BLA 
BLA BLA BLA BLA BLA BLA BLA BLA BLA BLA BLA BLA BLA BLA BLA BLA BLA BLA BLA BLA 
BLA BLA BLA BLA BLA BLA BLA BLA BLA BLA BLA BLA BLA BLA BLA BLA BLA BLA BLA BLA 
BLA BLA BLA BLA BLA BLA BLA BLA BLA BLA BLA BLA BLA BLA BLA BLA BLA BLA BLA BLA 
BLA BLA BLA BLA BLA BLA BLA BLA BLA BLA BLA BLA BLA BLA BLA BLA BLA BLA BLA BLA 
BLA BLA BLA BLA BLA BLA BLA BLA BLA BLA BLA BLA BLA BLA BLA BLA BLA BLA BLA BLA 
BLA BLA BLA BLA BLA BLA BLA BLA BLA BLA BLA BLA BLA BLA BLA BLA BLA BLA BLA BLA 
BLA BLA BLA BLA BLA BLA BLA BLA BLA BLA BLA BLA BLA BLA BLA BLA BLA BLA BLA BLA 
BLA BLA BLA BLA BLA BLA BLA BLA BLA BLA BLA BLA BLA BLA BLA BLA BLA BLA BLA BLA 
BLA BLA BLA BLA BLA BLA BLA BLA BLA BLA BLA BLA BLA BLA BLA BLA BLA BLA BLA BLA 
BLA BLA BLA BLA BLA BLA BLA BLA BLA BLA BLA BLA BLA BLA BLA BLA BLA BLA BLA BLA 
BLA BLA BLA BLA BLA BLA BLA BLA BLA BLA BLA BLA BLA BLA BLA BLA BLA BLA BLA BLA 
BLA BLA BLA BLA BLA BLA BLA BLA BLA BLA BLA BLA BLA BLA BLA BLA BLA BLA BLA BLA 
BLA BLA BLA BLA BLA BLA BLA BLA BLA BLA BLA BLA BLA BLA BLA BLA BLA BLA BLA BLA 
BLA BLA BLA BLA BLA BLA BLA BLA BLA BLA BLA BLA BLA BLA BLA BLA BLA BLA BLA BLA 
BLA BLA BLA BLA BLA BLA BLA BLA BLA BLA BLA BLA BLA BLA BLA BLA BLA BLA BLA BLA 
BLA BLA BLA BLA BLA BLA BLA BLA BLA BLA BLA BLA BLA BLA BLA BLA BLA BLA BLA BLA 
BLA BLA BLA BLA BLA BLA BLA BLA BLA BLA BLA BLA BLA BLA BLA BLA BLA BLA BLA BLA 
BLA BLA BLA BLA BLA BLA BLA BLA BLA BLA BLA BLA BLA BLA BLA BLA BLA BLA BLA BLA 
BLA BLA BLA BLA BLA BLA BLA BLA BLA BLA BLA BLA BLA BLA BLA BLA BLA BLA BLA BLA 
BLA BLA BLA BLA BLA BLA BLA BLA BLA BLA BLA BLA BLA BLA BLA BLA BLA BLA BLA BLA 
BLA BLA BLA BLA BLA BLA BLA BLA BLA BLA BLA BLA BLA BLA BLA BLA BLA BLA BLA BLA 
BLA BLA BLA BLA BLA BLA BLA BLA BLA BLA BLA BLA BLA BLA BLA BLA BLA BLA BLA BLA 
BLA BLA BLA BLA BLA BLA BLA BLA BLA BLA BLA BLA BLA BLA BLA BLA BLA BLA BLA BLA 
BLA BLA BLA BLA BLA BLA BLA BLA BLA BLA BLA BLA BLA BLA BLA BLA BLA BLA BLA BLA 
BLA BLA BLA BLA BLA BLA BLA BLA BLA BLA BLA BLA BLA BLA BLA BLA BLA BLA BLA BLA 
BLA BLA BLA BLA BLA BLA BLA BLA BLA BLA BLA BLA BLA BLA BLA BLA BLA BLA BLA BLA 
BLA BLA BLA BLA BLA BLA BLA BLA BLA BLA BLA BLA BLA BLA BLA BLA BLA BLA BLA BLA 
BLA BLA BLA BLA BLA BLA BLA BLA BLA BLA BLA BLA BLA BLA BLA BLA BLA BLA BLA BLA 
BLA BLA BLA BLA BLA BLA BLA BLA BLA BLA BLA BLA BLA BLA BLA BLA BLA BLA BLA BLA 
BLA BLA BLA BLA BLA BLA BLA BLA BLA BLA BLA BLA BLA BLA BLA BLA BLA BLA BLA BLA 
BLA BLA BLA BLA BLA BLA BLA BLA BLA BLA BLA BLA BLA BLA BLA BLA BLA BLA BLA BLA 
BLA BLA BLA BLA BLA BLA BLA BLA BLA BLA BLA BLA BLA BLA BLA BLA BLA BLA BLA BLA 
BLA BLA BLA BLA BLA BLA BLA BLA BLA BLA BLA BLA BLA BLA BLA BLA BLA BLA BLA BLA 
BLA BLA BLA BLA BLA BLA BLA BLA BLA BLA BLA BLA BLA BLA BLA BLA BLA BLA BLA BLA 
BLA BLA BLA BLA BLA BLA BLA BLA BLA BLA BLA BLA BLA BLA BLA BLA BLA BLA BLA BLA 
BLA BLA BLA BLA BLA BLA BLA BLA BLA BLA BLA BLA BLA BLA BLA BLA BLA BLA BLA BLA 
BLA BLA BLA BLA BLA BLA BLA BLA BLA BLA BLA BLA BLA BLA BLA BLA BLA BLA BLA BLA 
BLA BLA BLA BLA BLA BLA BLA BLA BLA BLA BLA BLA BLA BLA BLA BLA BLA BLA BLA BLA 
BLA BLA BLA BLA BLA BLA BLA BLA BLA BLA BLA BLA BLA BLA BLA BLA BLA BLA BLA BLA 
BLA BLA BLA BLA BLA BLA BLA BLA BLA BLA BLA BLA BLA BLA BLA BLA BLA BLA BLA BLA 
BLA BLA BLA BLA BLA BLA BLA BLA BLA BLA BLA BLA BLA BLA BLA BLA BLA BLA BLA BLA 
BLA BLA BLA BLA BLA BLA BLA BLA BLA BLA BLA BLA BLA BLA BLA BLA BLA BLA BLA BLA 
BLA BLA BLA BLA BLA BLA BLA BLA BLA BLA BLA BLA BLA BLA BLA BLA BLA BLA BLA BLA 
BLA BLA BLA BLA BLA BLA BLA BLA BLA BLA BLA BLA BLA BLA BLA BLA BLA BLA BLA BLA 
BLA BLA BLA BLA BLA BLA BLA BLA BLA BLA BLA BLA BLA BLA BLA BLA BLA BLA BLA BLA 
BLA BLA BLA BLA BLA BLA BLA BLA BLA BLA BLA BLA BLA BLA BLA BLA BLA BLA BLA BLA 
BLA BLA BLA BLA BLA BLA BLA BLA BLA BLA BLA BLA BLA BLA BLA BLA BLA BLA BLA BLA 
BLA BLA BLA BLA BLA BLA BLA BLA BLA BLA BLA BLA BLA BLA BLA BLA BLA BLA BLA BLA 
BLA BLA BLA BLA BLA BLA BLA BLA BLA BLA BLA BLA BLA BLA BLA BLA BLA BLA BLA BLA 
BLA BLA BLA BLA BLA BLA BLA BLA BLA BLA BLA BLA BLA BLA BLA BLA BLA BLA BLA BLA 
BLA BLA BLA BLA BLA BLA BLA BLA BLA BLA BLA BLA BLA BLA BLA BLA BLA BLA BLA BLA 
BLA BLA BLA BLA BLA BLA BLA BLA BLA BLA BLA BLA BLA BLA BLA BLA BLA BLA BLA BLA 
BLA BLA BLA BLA BLA BLA BLA BLA BLA BLA BLA BLA BLA BLA BLA BLA BLA BLA BLA BLA 
BLA BLA BLA BLA BLA BLA BLA BLA BLA BLA BLA BLA BLA BLA BLA BLA BLA BLA BLA BLA 
BLA BLA BLA BLA BLA BLA BLA BLA BLA BLA BLA BLA BLA BLA BLA BLA BLA BLA BLA BLA 
BLA BLA BLA BLA BLA BLA BLA BLA BLA BLA BLA BLA BLA BLA BLA BLA BLA BLA BLA BLA 
BLA BLA BLA BLA BLA BLA BLA BLA BLA BLA BLA BLA BLA BLA BLA BLA BLA BLA BLA BLA 
BLA BLA BLA BLA BLA BLA BLA BLA BLA BLA BLA BLA BLA BLA BLA BLA BLA BLA BLA BLA 
BLA BLA BLA BLA BLA BLA BLA BLA BLA BLA BLA BLA BLA BLA BLA BLA BLA BLA BLA BLA 
BLA BLA BLA BLA BLA BLA BLA BLA BLA BLA BLA BLA BLA BLA BLA BLA BLA BLA BLA BLA 
BLA BLA BLA BLA BLA BLA BLA BLA BLA BLA BLA BLA BLA BLA BLA BLA BLA BLA BLA BLA 
BLA BLA BLA BLA BLA BLA BLA BLA BLA BLA BLA BLA BLA BLA BLA BLA BLA BLA BLA BLA 
BLA BLA BLA BLA BLA BLA BLA BLA BLA BLA BLA BLA BLA BLA BLA BLA BLA BLA BLA BLA 
BLA BLA BLA BLA BLA BLA BLA BLA BLA BLA BLA BLA BLA BLA BLA BLA BLA BLA BLA BLA 
BLA BLA BLA BLA BLA BLA BLA BLA BLA BLA BLA BLA BLA BLA BLA BLA BLA BLA BLA BLA 
BLA BLA BLA BLA BLA BLA BLA BLA BLA BLA BLA BLA BLA BLA BLA BLA BLA BLA BLA BLA 
BLA BLA BLA BLA BLA BLA BLA BLA BLA BLA BLA BLA BLA BLA BLA BLA BLA BLA BLA BLA 
BLA BLA BLA BLA BLA BLA BLA BLA BLA BLA BLA BLA BLA BLA BLA BLA BLA BLA BLA BLA 
BLA BLA BLA BLA BLA BLA BLA BLA BLA BLA BLA BLA BLA BLA BLA BLA BLA BLA BLA BLA 
BLA BLA BLA BLA BLA BLA BLA BLA BLA BLA BLA BLA BLA BLA BLA BLA BLA BLA BLA BLA 
BLA BLA BLA BLA BLA BLA BLA BLA BLA BLA BLA BLA BLA BLA BLA BLA BLA BLA BLA BLA 
BLA BLA BLA BLA BLA BLA BLA BLA BLA BLA BLA BLA BLA BLA BLA BLA BLA BLA BLA BLA 
BLA BLA BLA BLA BLA BLA BLA BLA BLA BLA BLA BLA BLA BLA BLA BLA BLA BLA BLA BLA 
BLA BLA BLA BLA BLA BLA BLA BLA BLA BLA BLA BLA BLA BLA BLA BLA BLA BLA BLA BLA 
BLA BLA BLA BLA BLA BLA BLA BLA BLA BLA BLA BLA BLA BLA BLA BLA BLA BLA BLA BLA 
BLA BLA BLA BLA BLA BLA BLA BLA BLA BLA BLA BLA BLA BLA BLA BLA BLA BLA BLA BLA 
BLA BLA BLA BLA BLA BLA BLA BLA BLA BLA BLA BLA BLA BLA BLA BLA BLA BLA BLA BLA 
BLA BLA BLA BLA BLA BLA BLA BLA BLA BLA BLA BLA BLA BLA BLA BLA BLA BLA BLA BLA 
BLA BLA BLA BLA BLA BLA BLA BLA BLA BLA BLA BLA BLA BLA BLA BLA BLA BLA BLA BLA 
BLA BLA BLA BLA BLA BLA BLA BLA BLA BLA BLA BLA BLA BLA BLA BLA BLA BLA BLA BLA 
BLA BLA BLA BLA BLA BLA BLA BLA BLA BLA BLA BLA BLA BLA BLA BLA BLA BLA BLA BLA 
BLA BLA BLA BLA BLA BLA BLA BLA BLA BLA BLA BLA BLA BLA BLA BLA BLA BLA BLA BLA 
BLA BLA BLA BLA BLA BLA BLA BLA BLA BLA BLA BLA BLA BLA BLA BLA BLA BLA BLA BLA 
BLA BLA BLA BLA BLA BLA BLA BLA BLA BLA BLA BLA BLA BLA BLA BLA BLA BLA BLA BLA 
BLA BLA BLA BLA BLA BLA BLA BLA BLA BLA BLA BLA BLA BLA BLA BLA BLA BLA BLA BLA 
BLA BLA BLA BLA BLA BLA BLA BLA BLA BLA BLA BLA BLA BLA BLA BLA BLA BLA BLA BLA 
BLA BLA BLA BLA BLA BLA BLA BLA BLA BLA BLA BLA BLA BLA BLA BLA BLA BLA BLA BLA 
BLA BLA BLA BLA BLA BLA BLA BLA BLA BLA BLA BLA BLA BLA BLA BLA BLA BLA BLA BLA 
BLA BLA BLA BLA BLA BLA BLA BLA BLA BLA BLA BLA BLA BLA BLA BLA BLA BLA BLA BLA 
BLA BLA BLA BLA BLA BLA BLA BLA BLA BLA BLA BLA BLA BLA BLA BLA BLA BLA BLA BLA 
BLA BLA BLA BLA BLA BLA BLA BLA BLA BLA BLA BLA BLA BLA BLA BLA BLA BLA BLA BLA 
BLA BLA BLA BLA BLA BLA BLA BLA BLA BLA BLA BLA BLA BLA BLA BLA BLA BLA BLA BLA 
BLA BLA BLA BLA BLA BLA BLA BLA BLA BLA BLA BLA BLA BLA BLA BLA BLA BLA BLA BLA 
BLA BLA BLA BLA BLA BLA BLA BLA BLA BLA BLA BLA BLA BLA BLA BLA BLA BLA BLA BLA 
BLA BLA BLA BLA BLA BLA BLA BLA BLA BLA BLA BLA BLA BLA BLA BLA BLA BLA BLA BLA 
BLA BLA BLA BLA BLA BLA BLA BLA BLA BLA BLA BLA BLA BLA BLA BLA BLA BLA BLA BLA 
BLA BLA BLA BLA BLA BLA BLA BLA BLA BLA BLA BLA BLA BLA BLA BLA BLA BLA BLA BLA 
BLA BLA BLA BLA BLA BLA BLA BLA BLA BLA BLA BLA BLA BLA BLA BLA BLA BLA BLA BLA 
BLA BLA BLA BLA BLA BLA BLA BLA BLA BLA BLA BLA BLA BLA BLA BLA BLA BLA BLA BLA 
BLA BLA BLA BLA BLA BLA BLA BLA BLA BLA BLA BLA BLA BLA BLA BLA BLA BLA BLA BLA 
BLA BLA BLA BLA BLA BLA BLA BLA BLA BLA BLA BLA BLA BLA BLA BLA BLA BLA BLA BLA 
BLA BLA BLA BLA BLA BLA BLA BLA BLA BLA BLA BLA BLA BLA BLA BLA BLA BLA BLA BLA 
BLA BLA BLA BLA BLA BLA BLA BLA BLA BLA BLA BLA BLA BLA BLA BLA BLA BLA BLA BLA 
BLA BLA BLA BLA BLA BLA BLA BLA BLA BLA BLA BLA BLA BLA BLA BLA BLA BLA BLA BLA 
BLA BLA BLA BLA BLA BLA BLA BLA BLA BLA BLA BLA BLA BLA BLA BLA BLA BLA BLA BLA 
BLA BLA BLA BLA BLA BLA BLA BLA BLA BLA BLA BLA BLA BLA BLA BLA BLA BLA BLA BLA 
BLA BLA BLA BLA BLA BLA BLA BLA BLA BLA BLA BLA BLA BLA BLA BLA BLA BLA BLA BLA 
BLA BLA BLA BLA BLA BLA BLA BLA BLA BLA BLA BLA BLA BLA BLA BLA BLA BLA BLA BLA 
BLA BLA BLA BLA BLA BLA BLA BLA BLA BLA BLA BLA BLA BLA BLA BLA BLA BLA BLA BLA 
BLA BLA BLA BLA BLA BLA BLA BLA BLA BLA BLA BLA BLA BLA BLA BLA BLA BLA BLA BLA 
BLA BLA BLA BLA BLA BLA BLA BLA BLA BLA BLA BLA BLA BLA BLA BLA BLA BLA BLA BLA 
BLA BLA BLA BLA BLA BLA BLA BLA BLA BLA BLA BLA BLA BLA BLA BLA BLA BLA BLA BLA 
BLA BLA BLA BLA BLA BLA BLA BLA BLA BLA BLA BLA BLA BLA BLA BLA BLA BLA BLA BLA 
BLA BLA BLA BLA BLA BLA BLA BLA BLA BLA BLA BLA BLA BLA BLA BLA BLA BLA BLA BLA 
BLA BLA BLA BLA BLA BLA BLA BLA BLA BLA BLA BLA BLA BLA BLA BLA BLA BLA BLA BLA 
BLA BLA BLA BLA BLA BLA BLA BLA BLA BLA BLA BLA BLA BLA BLA BLA BLA BLA BLA BLA 
BLA BLA BLA BLA BLA BLA BLA BLA BLA BLA BLA BLA BLA BLA BLA BLA BLA BLA BLA BLA 
BLA BLA BLA BLA BLA BLA BLA BLA BLA BLA BLA BLA BLA BLA BLA BLA BLA BLA BLA BLA 
BLA BLA BLA BLA BLA BLA BLA BLA BLA BLA BLA BLA BLA BLA BLA BLA BLA BLA BLA BLA 
BLA BLA BLA BLA BLA BLA BLA BLA BLA BLA BLA BLA BLA BLA BLA BLA BLA BLA BLA BLA 
BLA BLA BLA BLA BLA BLA BLA BLA BLA BLA BLA BLA BLA BLA BLA BLA BLA BLA BLA BLA 
BLA BLA BLA BLA BLA BLA BLA BLA BLA BLA BLA BLA BLA BLA BLA BLA BLA BLA BLA BLA 
BLA BLA BLA BLA BLA BLA BLA BLA BLA BLA BLA BLA BLA BLA BLA BLA BLA BLA BLA BLA 
BLA BLA BLA BLA BLA BLA BLA BLA BLA BLA BLA BLA BLA BLA BLA BLA BLA BLA BLA BLA 
BLA BLA BLA BLA BLA BLA BLA BLA BLA BLA BLA BLA BLA BLA BLA BLA BLA BLA BLA BLA 
BLA BLA BLA BLA BLA BLA BLA BLA BLA BLA BLA BLA BLA BLA BLA BLA BLA BLA BLA BLA 
BLA BLA BLA BLA BLA BLA BLA BLA BLA BLA BLA BLA BLA BLA BLA BLA BLA BLA BLA BLA 
BLA BLA BLA BLA BLA BLA BLA BLA BLA BLA BLA BLA BLA BLA BLA BLA BLA BLA BLA BLA 
BLA BLA BLA BLA BLA BLA BLA BLA BLA BLA BLA BLA BLA BLA BLA BLA BLA BLA BLA BLA 
BLA BLA BLA BLA BLA BLA BLA BLA BLA BLA BLA BLA BLA BLA BLA BLA BLA BLA BLA BLA 
BLA BLA BLA BLA BLA BLA BLA BLA BLA BLA BLA BLA BLA BLA BLA BLA BLA BLA BLA BLA 
BLA BLA BLA BLA BLA BLA BLA BLA BLA BLA BLA BLA BLA BLA BLA BLA BLA BLA BLA BLA 
BLA BLA BLA BLA BLA BLA BLA BLA BLA BLA BLA BLA BLA BLA BLA BLA BLA BLA BLA BLA 
BLA BLA BLA BLA BLA BLA BLA BLA BLA BLA BLA BLA BLA BLA BLA BLA BLA BLA BLA BLA 
BLA BLA BLA BLA BLA BLA BLA BLA BLA BLA BLA BLA BLA BLA BLA BLA BLA BLA BLA BLA 
BLA BLA BLA BLA BLA BLA BLA BLA BLA BLA BLA BLA BLA BLA BLA BLA BLA BLA BLA BLA 
BLA BLA BLA BLA BLA BLA BLA BLA BLA BLA BLA BLA BLA BLA BLA BLA BLA BLA BLA BLA 
BLA BLA BLA BLA BLA BLA BLA BLA BLA BLA BLA BLA BLA BLA BLA BLA BLA BLA BLA BLA 
BLA BLA BLA BLA BLA BLA BLA BLA BLA BLA BLA BLA BLA BLA BLA BLA BLA BLA BLA BLA 
BLA BLA BLA BLA BLA BLA BLA BLA BLA BLA BLA BLA BLA BLA BLA BLA BLA BLA BLA BLA 
BLA BLA BLA BLA BLA BLA BLA BLA BLA BLA BLA BLA BLA BLA BLA BLA BLA BLA BLA BLA 
BLA BLA BLA BLA BLA BLA BLA BLA BLA BLA BLA BLA BLA BLA BLA BLA BLA BLA BLA BLA 
BLA BLA BLA BLA BLA BLA BLA BLA BLA BLA BLA BLA BLA BLA BLA BLA BLA BLA BLA BLA 
BLA BLA BLA BLA BLA BLA BLA BLA BLA BLA BLA BLA BLA BLA BLA BLA BLA BLA BLA BLA 
BLA BLA BLA BLA BLA BLA BLA BLA BLA BLA BLA BLA BLA BLA BLA BLA BLA BLA BLA BLA 
BLA BLA BLA BLA BLA BLA BLA BLA BLA BLA BLA BLA BLA BLA BLA BLA BLA BLA BLA BLA 
BLA BLA BLA BLA BLA BLA BLA BLA BLA BLA BLA BLA BLA BLA BLA BLA BLA BLA BLA BLA 
BLA BLA BLA BLA BLA BLA BLA BLA BLA BLA BLA BLA BLA BLA BLA BLA BLA BLA BLA BLA 
BLA BLA BLA BLA BLA BLA BLA BLA BLA BLA BLA BLA BLA BLA BLA BLA BLA BLA BLA BLA 
BLA BLA BLA BLA BLA BLA BLA BLA BLA BLA BLA BLA BLA BLA BLA BLA BLA BLA BLA BLA 
BLA BLA BLA BLA BLA BLA BLA BLA BLA BLA BLA BLA BLA BLA BLA BLA BLA BLA BLA BLA 
BLA BLA BLA BLA BLA BLA BLA BLA BLA BLA BLA BLA BLA BLA BLA BLA BLA BLA BLA BLA 
BLA BLA BLA BLA BLA BLA BLA BLA BLA BLA BLA BLA BLA BLA BLA BLA BLA BLA BLA BLA 
BLA BLA BLA BLA BLA BLA BLA BLA BLA BLA BLA BLA BLA BLA BLA BLA BLA BLA BLA BLA 
BLA BLA BLA BLA BLA BLA BLA BLA BLA BLA BLA BLA BLA BLA BLA BLA BLA BLA BLA BLA 
BLA BLA BLA BLA BLA BLA BLA BLA BLA BLA BLA BLA BLA BLA BLA BLA BLA BLA BLA BLA 
BLA BLA BLA BLA BLA BLA BLA BLA BLA BLA BLA BLA BLA BLA BLA BLA BLA BLA BLA BLA 
BLA BLA BLA BLA BLA BLA BLA BLA BLA BLA BLA BLA BLA BLA BLA BLA BLA BLA BLA BLA 
BLA BLA BLA BLA BLA BLA BLA BLA BLA BLA BLA BLA BLA BLA BLA BLA BLA BLA BLA BLA 
BLA BLA BLA BLA BLA BLA BLA BLA BLA BLA BLA BLA BLA BLA BLA BLA BLA BLA BLA BLA 
BLA BLA BLA BLA BLA BLA BLA BLA BLA BLA BLA BLA BLA BLA BLA BLA BLA BLA BLA BLA 
BLA BLA BLA BLA BLA BLA BLA BLA BLA BLA BLA BLA BLA BLA BLA BLA BLA BLA BLA BLA 
BLA BLA BLA BLA BLA BLA BLA BLA BLA BLA BLA BLA BLA BLA BLA BLA BLA BLA BLA BLA 
BLA BLA BLA BLA BLA BLA BLA BLA BLA BLA BLA BLA BLA BLA BLA BLA BLA BLA BLA BLA 
BLA BLA BLA BLA BLA BLA BLA BLA BLA BLA BLA BLA BLA BLA BLA BLA BLA BLA BLA BLA 
BLA BLA BLA BLA BLA BLA BLA BLA BLA BLA BLA BLA BLA BLA BLA BLA BLA BLA BLA BLA 
BLA BLA BLA BLA BLA BLA BLA BLA BLA BLA BLA BLA BLA BLA BLA BLA BLA BLA BLA BLA 
BLA BLA BLA BLA BLA BLA BLA BLA BLA BLA BLA BLA BLA BLA BLA BLA BLA BLA BLA BLA 
BLA BLA BLA BLA BLA BLA BLA BLA BLA BLA BLA BLA BLA BLA BLA BLA BLA BLA BLA BLA 
BLA BLA BLA BLA BLA BLA BLA BLA BLA BLA BLA BLA BLA BLA BLA BLA BLA BLA BLA BLA 
BLA BLA BLA BLA BLA BLA BLA BLA BLA BLA BLA BLA BLA BLA BLA BLA BLA BLA BLA BLA 
BLA BLA BLA BLA BLA BLA BLA BLA BLA BLA BLA BLA BLA BLA BLA BLA BLA BLA BLA BLA 
BLA BLA BLA BLA BLA BLA BLA BLA BLA BLA BLA BLA BLA BLA BLA BLA BLA BLA BLA BLA 
BLA BLA BLA BLA BLA BLA BLA BLA BLA BLA BLA BLA BLA BLA BLA BLA BLA BLA BLA BLA 
BLA BLA BLA BLA BLA BLA BLA BLA BLA BLA BLA BLA BLA BLA BLA BLA BLA BLA BLA BLA 
BLA BLA BLA BLA BLA BLA BLA BLA BLA BLA BLA BLA BLA BLA BLA BLA BLA BLA BLA BLA 
BLA BLA BLA BLA BLA BLA BLA BLA BLA BLA BLA BLA BLA BLA BLA BLA BLA BLA BLA BLA 
BLA BLA BLA BLA BLA BLA BLA BLA BLA BLA BLA BLA BLA BLA BLA BLA BLA BLA BLA BLA 
BLA BLA BLA BLA BLA BLA BLA BLA BLA BLA BLA BLA BLA BLA BLA BLA BLA BLA BLA BLA 
BLA BLA BLA BLA BLA BLA BLA BLA BLA BLA BLA BLA BLA BLA BLA BLA BLA BLA BLA BLA 
BLA BLA BLA BLA BLA BLA BLA BLA BLA BLA BLA BLA BLA BLA BLA BLA BLA BLA BLA BLA 
BLA BLA BLA BLA BLA BLA BLA BLA BLA BLA BLA BLA BLA BLA BLA BLA BLA BLA BLA BLA 
BLA BLA BLA BLA BLA BLA BLA BLA BLA BLA BLA BLA BLA BLA BLA BLA BLA BLA BLA BLA 
BLA BLA BLA BLA BLA BLA BLA BLA BLA BLA BLA BLA BLA BLA BLA BLA BLA BLA BLA BLA 
BLA BLA BLA BLA BLA BLA BLA BLA BLA BLA BLA BLA BLA BLA BLA BLA BLA BLA BLA BLA 
BLA BLA BLA BLA BLA BLA BLA BLA BLA BLA BLA BLA BLA BLA BLA BLA BLA BLA BLA BLA 
BLA BLA BLA BLA BLA BLA BLA BLA BLA BLA BLA BLA BLA BLA BLA BLA BLA BLA BLA BLA 
BLA BLA BLA BLA BLA BLA BLA BLA BLA BLA BLA BLA BLA BLA BLA BLA BLA BLA BLA BLA 
BLA BLA BLA BLA BLA BLA BLA BLA BLA BLA BLA BLA BLA BLA BLA BLA BLA BLA BLA BLA 
BLA BLA BLA BLA BLA BLA BLA BLA BLA BLA BLA BLA BLA BLA BLA BLA BLA BLA BLA BLA 
BLA BLA BLA BLA BLA BLA BLA BLA BLA BLA BLA BLA BLA BLA BLA BLA BLA BLA BLA BLA 
BLA BLA BLA BLA BLA BLA BLA BLA BLA BLA BLA BLA BLA BLA BLA BLA BLA BLA BLA BLA 
BLA BLA BLA BLA BLA BLA BLA BLA BLA BLA BLA BLA BLA BLA BLA BLA BLA BLA BLA BLA 
BLA BLA BLA BLA BLA BLA BLA BLA BLA BLA BLA BLA BLA BLA BLA BLA BLA BLA BLA BLA 
BLA BLA BLA BLA BLA BLA BLA BLA BLA BLA BLA BLA BLA BLA BLA BLA BLA BLA BLA BLA 
BLA BLA BLA BLA BLA BLA BLA BLA BLA BLA BLA BLA BLA BLA BLA BLA BLA BLA BLA BLA 
BLA BLA BLA BLA BLA BLA BLA BLA BLA BLA BLA BLA BLA BLA BLA BLA BLA BLA BLA BLA 
BLA BLA BLA BLA BLA BLA BLA BLA BLA BLA BLA BLA BLA BLA BLA BLA BLA BLA BLA BLA 
BLA BLA BLA BLA BLA BLA BLA BLA BLA BLA BLA BLA BLA BLA BLA BLA BLA BLA BLA BLA 
BLA BLA BLA BLA BLA BLA BLA BLA BLA BLA BLA BLA BLA BLA BLA BLA BLA BLA BLA BLA 
BLA BLA BLA BLA BLA BLA BLA BLA BLA BLA BLA BLA BLA BLA BLA BLA BLA BLA BLA BLA 
BLA BLA BLA BLA BLA BLA BLA BLA BLA BLA BLA BLA BLA BLA BLA BLA BLA BLA BLA BLA 
BLA BLA BLA BLA BLA BLA BLA BLA BLA BLA BLA BLA BLA BLA BLA BLA BLA BLA BLA BLA 
BLA BLA BLA BLA BLA BLA BLA BLA BLA BLA BLA BLA BLA BLA BLA BLA BLA BLA BLA BLA 
BLA BLA BLA BLA BLA BLA BLA BLA BLA BLA BLA BLA BLA BLA BLA BLA BLA BLA BLA BLA 
BLA BLA BLA BLA BLA BLA BLA BLA BLA BLA BLA BLA BLA BLA BLA BLA BLA BLA BLA BLA 
BLA BLA BLA BLA BLA BLA BLA BLA BLA BLA BLA BLA BLA BLA BLA BLA BLA BLA BLA BLA 
BLA BLA BLA BLA BLA BLA BLA BLA BLA BLA BLA BLA BLA BLA BLA BLA BLA BLA BLA BLA 
BLA BLA BLA BLA BLA BLA BLA BLA BLA BLA BLA BLA BLA BLA BLA BLA BLA BLA BLA BLA 
BLA BLA BLA BLA BLA BLA BLA BLA BLA BLA BLA BLA BLA BLA BLA BLA BLA BLA BLA BLA 
BLA BLA BLA BLA BLA BLA BLA BLA BLA BLA BLA BLA BLA BLA BLA BLA BLA BLA BLA BLA 
BLA BLA BLA BLA BLA BLA BLA BLA BLA BLA BLA BLA BLA BLA BLA BLA BLA BLA BLA BLA 
BLA BLA BLA BLA BLA BLA BLA BLA BLA BLA BLA BLA BLA BLA BLA BLA BLA BLA BLA BLA 
BLA BLA BLA BLA BLA BLA BLA BLA BLA BLA BLA BLA BLA BLA BLA BLA BLA BLA BLA BLA 
BLA BLA BLA BLA BLA BLA BLA BLA BLA BLA BLA BLA BLA BLA BLA BLA BLA BLA BLA BLA 
BLA BLA BLA BLA BLA BLA BLA BLA BLA BLA BLA BLA BLA BLA BLA BLA BLA BLA BLA BLA 
BLA BLA BLA BLA BLA BLA BLA BLA BLA BLA BLA BLA BLA BLA BLA BLA BLA BLA BLA BLA 
BLA BLA BLA BLA BLA BLA BLA BLA BLA BLA BLA BLA BLA BLA BLA BLA BLA BLA BLA BLA 
BLA BLA BLA BLA BLA BLA BLA BLA BLA BLA BLA BLA BLA BLA BLA BLA BLA BLA BLA BLA 
BLA BLA BLA BLA BLA BLA BLA BLA BLA BLA BLA BLA BLA BLA BLA BLA BLA BLA BLA BLA 
BLA BLA BLA BLA BLA BLA BLA BLA BLA BLA BLA BLA BLA BLA BLA BLA BLA BLA BLA BLA 
BLA BLA BLA BLA BLA BLA BLA BLA BLA BLA BLA BLA BLA BLA BLA BLA BLA BLA BLA BLA 
BLA BLA BLA BLA BLA BLA BLA BLA BLA BLA BLA BLA BLA BLA BLA BLA BLA BLA BLA BLA 
BLA BLA BLA BLA BLA BLA BLA BLA BLA BLA BLA BLA BLA BLA BLA BLA BLA BLA BLA BLA 
BLA BLA BLA BLA BLA BLA BLA BLA BLA BLA BLA BLA BLA BLA BLA BLA BLA BLA BLA BLA 
BLA BLA BLA BLA BLA BLA BLA BLA BLA BLA BLA BLA BLA BLA BLA BLA BLA BLA BLA BLA 
BLA BLA BLA BLA BLA BLA BLA BLA BLA BLA BLA BLA BLA BLA BLA BLA BLA BLA BLA BLA 
BLA BLA BLA BLA BLA BLA BLA BLA BLA BLA BLA BLA BLA BLA BLA BLA BLA BLA BLA BLA 
BLA BLA BLA BLA BLA BLA BLA BLA BLA BLA BLA BLA BLA BLA BLA BLA BLA BLA BLA BLA 
BLA BLA BLA BLA BLA BLA BLA BLA BLA BLA BLA BLA BLA BLA BLA BLA BLA BLA BLA BLA 
BLA BLA BLA BLA BLA BLA BLA BLA BLA BLA BLA BLA BLA BLA BLA BLA BLA BLA BLA BLA 
BLA BLA BLA BLA BLA BLA BLA BLA BLA BLA BLA BLA BLA BLA BLA BLA BLA BLA BLA BLA 
BLA BLA BLA BLA BLA BLA BLA BLA BLA BLA BLA BLA BLA BLA BLA BLA BLA BLA BLA BLA 
BLA BLA BLA BLA BLA BLA BLA BLA BLA BLA BLA BLA BLA BLA BLA BLA BLA BLA BLA BLA 
BLA BLA BLA BLA BLA BLA BLA BLA BLA BLA BLA BLA BLA BLA BLA BLA BLA BLA BLA BLA 
BLA BLA BLA BLA BLA BLA BLA BLA BLA BLA BLA BLA BLA BLA BLA BLA BLA BLA BLA BLA 
BLA BLA BLA BLA BLA BLA BLA BLA BLA BLA BLA BLA BLA BLA BLA BLA BLA BLA BLA BLA 
BLA BLA BLA BLA BLA BLA BLA BLA BLA BLA BLA BLA BLA BLA BLA BLA BLA BLA BLA BLA 
BLA BLA BLA BLA BLA BLA BLA BLA BLA BLA BLA BLA BLA BLA BLA BLA BLA BLA BLA BLA 
BLA BLA BLA BLA BLA BLA BLA BLA BLA BLA BLA BLA BLA BLA BLA BLA BLA BLA BLA BLA 
BLA BLA BLA BLA BLA BLA BLA BLA BLA BLA BLA BLA BLA BLA BLA BLA BLA BLA BLA BLA 
BLA BLA BLA BLA BLA BLA BLA BLA BLA BLA BLA BLA BLA BLA BLA BLA BLA BLA BLA BLA 
BLA BLA BLA BLA BLA BLA BLA BLA BLA BLA BLA BLA BLA BLA BLA BLA BLA BLA BLA BLA 
BLA BLA BLA BLA BLA BLA BLA BLA BLA BLA BLA BLA BLA BLA BLA BLA BLA BLA BLA BLA 
BLA BLA BLA BLA BLA BLA BLA BLA BLA BLA BLA BLA BLA BLA BLA BLA BLA BLA BLA BLA 
BLA BLA BLA BLA BLA BLA BLA BLA BLA BLA BLA BLA BLA BLA BLA BLA BLA BLA BLA BLA 
BLA BLA BLA BLA BLA BLA BLA BLA BLA BLA BLA BLA BLA BLA BLA BLA BLA BLA BLA BLA 
BLA BLA BLA BLA BLA BLA BLA BLA BLA BLA BLA BLA BLA BLA BLA BLA BLA BLA BLA BLA 
BLA BLA BLA BLA BLA BLA BLA BLA BLA BLA BLA BLA BLA BLA BLA BLA BLA BLA BLA BLA 
BLA BLA BLA BLA BLA BLA BLA BLA BLA BLA BLA BLA BLA BLA BLA BLA BLA BLA BLA BLA 
BLA BLA BLA BLA BLA BLA BLA BLA BLA BLA BLA BLA BLA BLA BLA BLA BLA BLA BLA BLA 
BLA BLA BLA BLA BLA BLA BLA BLA BLA BLA BLA BLA BLA BLA BLA BLA BLA BLA BLA BLA 
BLA BLA BLA BLA BLA BLA BLA BLA BLA BLA BLA BLA BLA BLA BLA BLA BLA BLA BLA BLA 
BLA BLA BLA BLA BLA BLA BLA BLA BLA BLA BLA BLA BLA BLA BLA BLA BLA BLA BLA BLA 
BLA BLA BLA BLA BLA BLA BLA BLA BLA BLA BLA BLA BLA BLA BLA BLA BLA BLA BLA BLA 
BLA BLA BLA BLA BLA BLA BLA BLA BLA BLA BLA BLA BLA BLA BLA BLA BLA BLA BLA BLA 
BLA BLA BLA BLA BLA BLA BLA BLA BLA BLA BLA BLA BLA BLA BLA BLA BLA BLA BLA BLA 
BLA BLA BLA BLA BLA BLA BLA BLA BLA BLA BLA BLA BLA BLA BLA BLA BLA BLA BLA BLA 
BLA BLA BLA BLA BLA BLA BLA BLA BLA BLA BLA BLA BLA BLA BLA BLA BLA BLA BLA BLA 
BLA BLA BLA BLA BLA BLA BLA BLA BLA BLA BLA BLA BLA BLA BLA BLA BLA BLA BLA BLA 
BLA BLA BLA BLA BLA BLA BLA BLA BLA BLA BLA BLA BLA BLA BLA BLA BLA BLA BLA BLA 
BLA BLA BLA BLA BLA BLA BLA BLA BLA BLA BLA BLA BLA BLA BLA BLA BLA BLA BLA BLA 
BLA BLA BLA BLA BLA BLA BLA BLA BLA BLA BLA BLA BLA BLA BLA BLA BLA BLA BLA BLA 
BLA BLA BLA BLA BLA BLA BLA BLA BLA BLA BLA BLA BLA BLA BLA BLA BLA BLA BLA BLA 
BLA BLA BLA BLA BLA BLA BLA BLA BLA BLA BLA BLA BLA BLA BLA BLA BLA BLA BLA BLA 
BLA BLA BLA BLA BLA BLA BLA BLA BLA BLA BLA BLA BLA BLA BLA BLA BLA BLA BLA BLA 
BLA BLA BLA BLA BLA BLA BLA BLA BLA BLA BLA BLA BLA BLA BLA BLA BLA BLA BLA BLA 
BLA BLA BLA BLA BLA BLA BLA BLA BLA BLA BLA BLA BLA BLA BLA BLA BLA BLA BLA BLA 
BLA BLA BLA BLA BLA BLA BLA BLA BLA BLA BLA BLA BLA BLA BLA BLA BLA BLA BLA BLA 
BLA BLA BLA BLA BLA BLA BLA BLA BLA BLA BLA BLA BLA BLA BLA BLA BLA BLA BLA BLA 
BLA BLA BLA BLA BLA BLA BLA BLA BLA BLA BLA BLA BLA BLA BLA BLA BLA BLA BLA BLA 
BLA BLA BLA BLA BLA BLA BLA BLA BLA BLA BLA BLA BLA BLA BLA BLA BLA BLA BLA BLA 
BLA BLA BLA BLA BLA BLA BLA BLA BLA BLA BLA BLA BLA BLA BLA BLA BLA BLA BLA BLA 
BLA BLA BLA BLA BLA BLA BLA BLA BLA BLA BLA BLA BLA BLA BLA BLA BLA BLA BLA BLA 
BLA BLA BLA BLA BLA BLA BLA BLA BLA BLA BLA BLA BLA BLA BLA BLA BLA BLA BLA BLA 
BLA BLA BLA BLA BLA BLA BLA BLA BLA BLA BLA BLA BLA BLA BLA BLA BLA BLA BLA BLA 
BLA BLA BLA BLA BLA BLA BLA BLA BLA BLA BLA BLA BLA BLA BLA BLA BLA BLA BLA BLA 
BLA BLA BLA BLA BLA BLA BLA BLA BLA BLA BLA BLA BLA BLA BLA BLA BLA BLA BLA BLA 
BLA BLA BLA BLA BLA BLA BLA BLA BLA BLA BLA BLA BLA BLA BLA BLA BLA BLA BLA BLA 
BLA BLA BLA BLA BLA BLA BLA BLA BLA BLA BLA BLA BLA BLA BLA BLA BLA BLA BLA BLA 
BLA BLA BLA BLA BLA BLA BLA BLA BLA BLA BLA BLA BLA BLA BLA BLA BLA BLA BLA BLA 
BLA BLA BLA BLA BLA BLA BLA BLA BLA BLA BLA BLA BLA BLA BLA BLA BLA BLA BLA BLA 
BLA BLA BLA BLA BLA BLA BLA BLA BLA BLA BLA BLA BLA BLA BLA BLA BLA BLA BLA BLA 
BLA BLA BLA BLA BLA BLA BLA BLA BLA BLA BLA BLA BLA BLA BLA BLA BLA BLA BLA BLA 
BLA BLA BLA BLA BLA BLA BLA BLA BLA BLA BLA BLA BLA BLA BLA BLA BLA BLA BLA BLA 
BLA BLA BLA BLA BLA BLA BLA BLA BLA BLA BLA BLA BLA BLA BLA BLA BLA BLA BLA BLA 
BLA BLA BLA BLA BLA BLA BLA BLA BLA BLA BLA BLA BLA BLA BLA BLA BLA BLA BLA BLA 
BLA BLA BLA BLA BLA BLA BLA BLA BLA BLA BLA BLA BLA BLA BLA BLA BLA BLA BLA BLA 
BLA BLA BLA BLA BLA BLA BLA BLA BLA BLA BLA BLA BLA BLA BLA BLA BLA BLA BLA BLA 
BLA BLA BLA BLA BLA BLA BLA BLA BLA BLA BLA BLA BLA BLA BLA BLA BLA BLA BLA BLA 
BLA BLA BLA BLA BLA BLA BLA BLA BLA BLA BLA BLA BLA BLA BLA BLA BLA BLA BLA BLA 
BLA BLA BLA BLA BLA BLA BLA BLA BLA BLA BLA BLA BLA BLA BLA BLA BLA BLA BLA BLA 
BLA BLA BLA BLA BLA BLA BLA BLA BLA BLA BLA BLA BLA BLA BLA BLA BLA BLA BLA BLA 
BLA BLA BLA BLA BLA BLA BLA BLA BLA BLA BLA BLA BLA BLA BLA BLA BLA BLA BLA BLA 
BLA BLA BLA BLA BLA BLA BLA BLA BLA BLA BLA BLA BLA BLA BLA BLA BLA BLA BLA BLA 
BLA BLA BLA BLA BLA BLA BLA BLA BLA BLA BLA BLA BLA BLA BLA BLA BLA BLA BLA BLA 
BLA BLA BLA BLA BLA BLA BLA BLA BLA BLA BLA BLA BLA BLA BLA BLA BLA BLA BLA BLA 
BLA BLA BLA BLA BLA BLA BLA BLA BLA BLA BLA BLA BLA BLA BLA BLA BLA BLA BLA BLA 
BLA BLA BLA BLA BLA BLA BLA BLA BLA BLA BLA BLA BLA BLA BLA BLA BLA BLA BLA BLA 
BLA BLA BLA BLA BLA BLA BLA BLA BLA BLA BLA BLA BLA BLA BLA BLA BLA BLA BLA BLA 
BLA BLA BLA BLA BLA BLA BLA BLA BLA BLA BLA BLA BLA BLA BLA BLA BLA BLA BLA BLA 
BLA BLA BLA BLA BLA BLA BLA BLA BLA BLA BLA BLA BLA BLA BLA BLA BLA BLA BLA BLA 
BLA BLA BLA BLA BLA BLA BLA BLA BLA BLA BLA BLA BLA BLA BLA BLA BLA BLA BLA BLA 
BLA BLA BLA BLA BLA BLA BLA BLA BLA BLA BLA BLA BLA BLA BLA BLA BLA BLA BLA BLA 
BLA BLA BLA BLA BLA BLA BLA BLA BLA BLA BLA BLA BLA BLA BLA BLA BLA BLA BLA BLA 
BLA BLA BLA BLA BLA BLA BLA BLA BLA BLA BLA BLA BLA BLA BLA BLA BLA BLA BLA BLA 
BLA BLA BLA BLA BLA BLA BLA BLA BLA BLA BLA BLA BLA BLA BLA BLA BLA BLA BLA BLA 
BLA BLA BLA BLA BLA BLA BLA BLA BLA BLA BLA BLA BLA BLA BLA BLA BLA BLA BLA BLA 
BLA BLA BLA BLA BLA BLA BLA BLA BLA BLA BLA BLA BLA BLA BLA BLA BLA BLA BLA BLA 
BLA BLA BLA BLA BLA BLA BLA BLA BLA BLA BLA BLA BLA BLA BLA BLA BLA BLA BLA BLA 
BLA BLA BLA BLA BLA BLA BLA BLA BLA BLA BLA BLA BLA BLA BLA BLA BLA BLA BLA BLA 
BLA BLA BLA BLA BLA BLA BLA BLA BLA BLA BLA BLA BLA BLA BLA BLA BLA BLA BLA BLA 
BLA BLA BLA BLA BLA BLA BLA BLA BLA BLA BLA BLA BLA BLA BLA BLA BLA BLA BLA BLA 
BLA BLA BLA BLA BLA BLA BLA BLA BLA BLA BLA BLA BLA BLA BLA BLA BLA BLA BLA BLA 
BLA BLA BLA BLA BLA BLA BLA BLA BLA BLA BLA BLA BLA BLA BLA BLA BLA BLA BLA BLA 
BLA BLA BLA BLA BLA BLA BLA BLA BLA BLA BLA BLA BLA BLA BLA BLA BLA BLA BLA BLA 
BLA BLA BLA BLA BLA BLA BLA BLA BLA BLA BLA BLA BLA BLA BLA BLA BLA BLA BLA BLA 
BLA BLA BLA BLA BLA BLA BLA BLA BLA BLA BLA BLA BLA BLA BLA BLA BLA BLA BLA BLA 
BLA BLA BLA BLA BLA BLA BLA BLA BLA BLA BLA BLA BLA BLA BLA BLA BLA BLA BLA BLA 
BLA BLA BLA BLA BLA BLA BLA BLA BLA BLA BLA BLA BLA BLA BLA BLA BLA BLA BLA BLA 
BLA BLA BLA BLA BLA BLA BLA BLA BLA BLA BLA BLA BLA BLA BLA BLA BLA BLA BLA BLA 
BLA BLA BLA BLA BLA BLA BLA BLA BLA BLA BLA BLA BLA BLA BLA BLA BLA BLA BLA BLA 
BLA BLA BLA BLA BLA BLA BLA BLA BLA BLA BLA BLA BLA BLA BLA BLA BLA BLA BLA BLA 
BLA BLA BLA BLA BLA BLA BLA BLA BLA BLA BLA BLA BLA BLA BLA BLA BLA BLA BLA BLA 
BLA BLA BLA BLA BLA BLA BLA BLA BLA BLA BLA BLA BLA BLA BLA BLA BLA BLA BLA BLA 
BLA BLA BLA BLA BLA BLA BLA BLA BLA BLA BLA BLA BLA BLA BLA BLA BLA BLA BLA BLA 
BLA BLA BLA BLA BLA BLA BLA BLA BLA BLA BLA BLA BLA BLA BLA BLA BLA BLA BLA BLA 
BLA BLA BLA BLA BLA BLA BLA BLA BLA BLA BLA BLA BLA BLA BLA BLA BLA BLA BLA BLA 
BLA BLA BLA BLA BLA BLA BLA BLA BLA BLA BLA BLA BLA BLA BLA BLA BLA BLA BLA BLA 
BLA BLA BLA BLA BLA BLA BLA BLA BLA BLA BLA BLA BLA BLA BLA BLA BLA BLA BLA BLA 
BLA BLA BLA BLA BLA BLA BLA BLA BLA BLA BLA BLA BLA BLA BLA BLA BLA BLA BLA BLA 
BLA BLA BLA BLA BLA BLA BLA BLA BLA BLA BLA BLA BLA BLA BLA BLA BLA BLA BLA BLA 
BLA BLA BLA BLA BLA BLA BLA BLA BLA BLA BLA BLA BLA BLA BLA BLA BLA BLA BLA BLA 
BLA BLA BLA BLA BLA BLA BLA BLA BLA BLA BLA BLA BLA BLA BLA BLA BLA BLA BLA BLA 
BLA BLA BLA BLA BLA BLA BLA BLA BLA BLA BLA BLA BLA BLA BLA BLA BLA BLA BLA BLA 
BLA BLA BLA BLA BLA BLA BLA BLA BLA BLA BLA BLA BLA BLA BLA BLA BLA BLA BLA BLA 
BLA BLA BLA BLA BLA BLA BLA BLA BLA BLA BLA BLA BLA BLA BLA BLA BLA BLA BLA BLA 
BLA BLA BLA BLA BLA BLA BLA BLA BLA BLA BLA BLA BLA BLA BLA BLA BLA BLA BLA BLA 
BLA BLA BLA BLA BLA BLA BLA BLA BLA BLA BLA BLA BLA BLA BLA BLA BLA BLA BLA BLA 
BLA BLA BLA BLA BLA BLA BLA BLA BLA BLA BLA BLA BLA BLA BLA BLA BLA BLA BLA BLA 
BLA BLA BLA BLA BLA BLA BLA BLA BLA BLA BLA BLA BLA BLA BLA BLA BLA BLA BLA BLA 
BLA BLA BLA BLA BLA BLA BLA BLA BLA BLA BLA BLA BLA BLA BLA BLA BLA BLA BLA BLA 
BLA BLA BLA BLA BLA BLA BLA BLA BLA BLA BLA BLA BLA BLA BLA BLA BLA BLA BLA BLA 
BLA BLA BLA BLA BLA BLA BLA BLA BLA BLA BLA BLA BLA BLA BLA BLA BLA BLA BLA BLA 
BLA BLA BLA BLA BLA BLA BLA BLA BLA BLA BLA BLA BLA BLA BLA BLA BLA BLA BLA BLA 
BLA BLA BLA BLA BLA BLA BLA BLA BLA BLA BLA BLA BLA BLA BLA BLA BLA BLA BLA BLA 
BLA BLA BLA BLA BLA BLA BLA BLA BLA BLA BLA BLA BLA BLA BLA BLA BLA BLA BLA BLA 
BLA BLA BLA BLA BLA BLA BLA BLA BLA BLA BLA BLA BLA BLA BLA BLA BLA BLA BLA BLA 
BLA BLA BLA BLA BLA BLA BLA BLA BLA BLA BLA BLA BLA BLA BLA BLA BLA BLA BLA BLA 
BLA BLA BLA BLA BLA BLA BLA BLA BLA BLA BLA BLA BLA BLA BLA BLA BLA BLA BLA BLA 
BLA BLA BLA BLA BLA BLA BLA BLA BLA BLA BLA BLA BLA BLA BLA BLA BLA BLA BLA BLA 
BLA BLA BLA BLA BLA BLA BLA BLA BLA BLA BLA BLA BLA BLA BLA BLA BLA BLA BLA BLA 
BLA BLA BLA BLA BLA BLA BLA BLA BLA BLA BLA BLA BLA BLA BLA BLA BLA BLA BLA BLA 
BLA BLA BLA BLA BLA BLA BLA BLA BLA BLA BLA BLA BLA BLA BLA BLA BLA BLA BLA BLA 
BLA BLA BLA BLA BLA BLA BLA BLA BLA BLA BLA BLA BLA BLA BLA BLA BLA BLA BLA BLA 
BLA BLA BLA BLA BLA BLA BLA BLA BLA BLA BLA BLA BLA BLA BLA BLA BLA BLA BLA BLA 
BLA BLA BLA BLA BLA BLA BLA BLA BLA BLA BLA BLA BLA BLA BLA BLA BLA BLA BLA BLA 
BLA BLA BLA BLA BLA BLA BLA BLA BLA BLA BLA BLA BLA BLA BLA BLA BLA BLA BLA BLA 
BLA BLA BLA BLA BLA BLA BLA BLA BLA BLA BLA BLA BLA BLA BLA BLA BLA BLA BLA BLA 
BLA BLA BLA BLA BLA BLA BLA BLA BLA BLA BLA BLA BLA BLA BLA BLA BLA BLA BLA BLA 
BLA BLA BLA BLA BLA BLA BLA BLA BLA BLA BLA BLA BLA BLA BLA BLA BLA BLA BLA BLA 
BLA BLA BLA BLA BLA BLA BLA BLA BLA BLA BLA BLA BLA BLA BLA BLA BLA BLA BLA BLA 
BLA BLA BLA BLA BLA BLA BLA BLA BLA BLA BLA BLA BLA BLA BLA BLA BLA BLA BLA BLA 
BLA BLA BLA BLA BLA BLA BLA BLA BLA BLA BLA BLA BLA BLA BLA BLA BLA BLA BLA BLA 
BLA BLA BLA BLA BLA BLA BLA BLA BLA BLA BLA BLA BLA BLA BLA BLA BLA BLA BLA BLA 
BLA BLA BLA BLA BLA BLA BLA BLA BLA BLA BLA BLA BLA BLA BLA BLA BLA BLA BLA BLA 
BLA BLA BLA BLA BLA BLA BLA BLA BLA BLA BLA BLA BLA BLA BLA BLA BLA BLA BLA BLA 
BLA BLA BLA BLA BLA BLA BLA BLA BLA BLA BLA BLA BLA BLA BLA BLA BLA BLA BLA BLA 
BLA BLA BLA BLA BLA BLA BLA BLA BLA BLA BLA BLA BLA BLA BLA BLA BLA BLA BLA BLA 
BLA BLA BLA BLA BLA BLA BLA BLA BLA BLA BLA BLA BLA BLA BLA BLA BLA BLA BLA BLA 
BLA BLA BLA BLA BLA BLA BLA BLA BLA BLA BLA BLA BLA BLA BLA BLA BLA BLA BLA BLA 
BLA BLA BLA BLA BLA BLA BLA BLA BLA BLA BLA BLA BLA BLA BLA BLA BLA BLA BLA BLA 
BLA BLA BLA BLA BLA BLA BLA BLA BLA BLA BLA BLA BLA BLA BLA BLA BLA BLA BLA BLA 
BLA BLA BLA BLA BLA BLA BLA BLA BLA BLA BLA BLA BLA BLA BLA BLA BLA BLA BLA BLA 
BLA BLA BLA BLA BLA BLA BLA BLA BLA BLA BLA BLA BLA BLA BLA BLA BLA BLA BLA BLA 
BLA BLA BLA BLA BLA BLA BLA BLA BLA BLA BLA BLA BLA BLA BLA BLA BLA BLA BLA BLA 
BLA BLA BLA BLA BLA BLA BLA BLA BLA BLA BLA BLA BLA BLA BLA BLA BLA BLA BLA BLA 
BLA BLA BLA BLA BLA BLA BLA BLA BLA BLA BLA BLA BLA BLA BLA BLA BLA BLA BLA BLA 
BLA BLA BLA BLA BLA BLA BLA BLA BLA BLA BLA BLA BLA BLA BLA BLA BLA BLA BLA BLA 
BLA BLA BLA BLA BLA BLA BLA BLA BLA BLA BLA BLA BLA BLA BLA BLA BLA BLA BLA BLA 
BLA BLA BLA BLA BLA BLA BLA BLA BLA BLA BLA BLA BLA BLA BLA BLA BLA BLA BLA BLA 
BLA BLA BLA BLA BLA BLA BLA BLA BLA BLA BLA BLA BLA BLA BLA BLA BLA BLA BLA BLA 
BLA BLA BLA BLA BLA BLA BLA BLA BLA BLA BLA BLA BLA BLA BLA BLA BLA BLA BLA BLA 
BLA BLA BLA BLA BLA BLA BLA BLA BLA BLA BLA BLA BLA BLA BLA BLA BLA BLA BLA BLA 
BLA BLA BLA BLA BLA BLA BLA BLA BLA BLA BLA BLA BLA BLA BLA BLA BLA BLA BLA BLA 
BLA BLA BLA BLA BLA BLA BLA BLA BLA BLA BLA BLA BLA BLA BLA BLA BLA BLA BLA BLA 
BLA BLA BLA BLA BLA BLA BLA BLA BLA BLA BLA BLA BLA BLA BLA BLA BLA BLA BLA BLA 
BLA BLA BLA BLA BLA BLA BLA BLA BLA BLA BLA BLA BLA BLA BLA BLA BLA BLA BLA BLA 
BLA BLA BLA BLA BLA BLA BLA BLA BLA BLA BLA BLA BLA BLA BLA BLA BLA BLA BLA BLA 
BLA BLA BLA BLA BLA BLA BLA BLA BLA BLA BLA BLA BLA BLA BLA BLA BLA BLA BLA BLA 
BLA BLA BLA BLA BLA BLA BLA BLA BLA BLA BLA BLA BLA BLA BLA BLA BLA BLA BLA BLA 
BLA BLA BLA BLA BLA BLA BLA BLA BLA BLA BLA BLA BLA BLA BLA BLA BLA BLA BLA BLA 
BLA BLA BLA BLA BLA BLA BLA BLA BLA BLA BLA BLA BLA BLA BLA BLA BLA BLA BLA BLA 
BLA BLA BLA BLA BLA BLA BLA BLA BLA BLA BLA BLA BLA BLA BLA BLA BLA BLA BLA BLA 
BLA BLA BLA BLA BLA BLA BLA BLA BLA BLA BLA BLA BLA BLA BLA BLA BLA BLA BLA BLA 
BLA BLA BLA BLA BLA BLA BLA BLA BLA BLA BLA BLA BLA BLA BLA BLA BLA BLA BLA BLA 
BLA BLA BLA BLA BLA BLA BLA BLA BLA BLA BLA BLA BLA BLA BLA BLA BLA BLA BLA BLA 
BLA BLA BLA BLA BLA BLA BLA BLA BLA BLA BLA BLA BLA BLA BLA BLA BLA BLA BLA BLA 
BLA BLA BLA BLA BLA BLA BLA BLA BLA BLA BLA BLA BLA BLA BLA BLA BLA BLA BLA BLA 
BLA BLA BLA BLA BLA BLA BLA BLA BLA BLA BLA BLA BLA BLA BLA BLA BLA BLA BLA BLA 
BLA BLA BLA BLA BLA BLA BLA BLA BLA BLA BLA BLA BLA BLA BLA BLA BLA BLA BLA BLA 
BLA BLA BLA BLA BLA BLA BLA BLA BLA BLA BLA BLA BLA BLA BLA BLA BLA BLA BLA BLA 
BLA BLA BLA BLA BLA BLA BLA BLA BLA BLA BLA BLA BLA BLA BLA BLA BLA BLA BLA BLA 
BLA BLA BLA BLA BLA BLA BLA BLA BLA BLA BLA BLA BLA BLA BLA BLA BLA BLA BLA BLA 
BLA BLA BLA BLA BLA BLA BLA BLA BLA BLA BLA BLA BLA BLA BLA BLA BLA BLA BLA BLA 
BLA BLA BLA BLA BLA BLA BLA BLA BLA BLA BLA BLA BLA BLA BLA BLA BLA BLA BLA BLA 
BLA BLA BLA BLA BLA BLA BLA BLA BLA BLA BLA BLA BLA BLA BLA BLA BLA BLA BLA BLA 
BLA BLA BLA BLA BLA BLA BLA BLA BLA BLA BLA BLA BLA BLA BLA BLA BLA BLA BLA BLA 
BLA BLA BLA BLA BLA BLA BLA BLA BLA BLA BLA BLA BLA BLA BLA BLA BLA BLA BLA BLA 
BLA BLA BLA BLA BLA BLA BLA BLA BLA BLA BLA BLA BLA BLA BLA BLA BLA BLA BLA BLA 
BLA BLA BLA BLA BLA BLA BLA BLA BLA BLA BLA BLA BLA BLA BLA BLA BLA BLA BLA BLA 
BLA BLA BLA BLA BLA BLA BLA BLA BLA BLA BLA BLA BLA BLA BLA BLA BLA BLA BLA BLA 
BLA BLA BLA BLA BLA BLA BLA BLA BLA BLA BLA BLA BLA BLA BLA BLA BLA BLA BLA BLA 
BLA BLA BLA BLA BLA BLA BLA BLA BLA BLA BLA BLA BLA BLA BLA BLA BLA BLA BLA BLA 
BLA BLA BLA BLA BLA BLA BLA BLA BLA BLA BLA BLA BLA BLA BLA BLA BLA BLA BLA BLA 
BLA BLA BLA BLA BLA BLA BLA BLA BLA BLA BLA BLA BLA BLA BLA BLA BLA BLA BLA BLA 
BLA BLA BLA BLA BLA BLA BLA BLA BLA BLA BLA BLA BLA BLA BLA BLA BLA BLA BLA BLA 
BLA BLA BLA BLA BLA BLA BLA BLA BLA BLA BLA BLA BLA BLA BLA BLA BLA BLA BLA BLA 
BLA BLA BLA BLA BLA BLA BLA BLA BLA BLA BLA BLA BLA BLA BLA BLA BLA BLA BLA BLA 
BLA BLA BLA BLA BLA BLA BLA BLA BLA BLA BLA BLA BLA BLA BLA BLA BLA BLA BLA BLA 
BLA BLA BLA BLA BLA BLA BLA BLA BLA BLA BLA BLA BLA BLA BLA BLA BLA BLA BLA BLA 
BLA BLA BLA BLA BLA BLA BLA BLA BLA BLA BLA BLA BLA BLA BLA BLA BLA BLA BLA BLA 
BLA BLA BLA BLA BLA BLA BLA BLA BLA BLA BLA BLA BLA BLA BLA BLA BLA BLA BLA BLA 
BLA BLA BLA BLA BLA BLA BLA BLA BLA BLA BLA BLA BLA BLA BLA BLA BLA BLA BLA BLA 
BLA BLA BLA BLA BLA BLA BLA BLA BLA BLA BLA BLA BLA BLA BLA BLA BLA BLA BLA BLA 
BLA BLA BLA BLA BLA BLA BLA BLA BLA BLA BLA BLA BLA BLA BLA BLA BLA BLA BLA BLA 
BLA BLA BLA BLA BLA BLA BLA BLA BLA BLA BLA BLA BLA BLA BLA BLA BLA BLA BLA BLA 
BLA BLA BLA BLA BLA BLA BLA BLA BLA BLA BLA BLA BLA BLA BLA BLA BLA BLA BLA BLA 
BLA BLA BLA BLA BLA BLA BLA BLA BLA BLA BLA BLA BLA BLA BLA BLA BLA BLA BLA BLA 
BLA BLA BLA BLA BLA BLA BLA BLA BLA BLA BLA BLA BLA BLA BLA BLA BLA BLA BLA BLA 
BLA BLA BLA BLA BLA BLA BLA BLA BLA BLA BLA BLA BLA BLA BLA BLA BLA BLA BLA BLA 
BLA BLA BLA BLA BLA BLA BLA BLA BLA BLA BLA BLA BLA BLA BLA BLA BLA BLA BLA BLA 
BLA BLA BLA BLA BLA BLA BLA BLA BLA BLA BLA BLA BLA BLA BLA BLA BLA BLA BLA BLA 
BLA BLA BLA BLA BLA BLA BLA BLA BLA BLA BLA BLA BLA BLA BLA BLA BLA BLA BLA BLA 
BLA BLA BLA BLA BLA BLA BLA BLA BLA BLA BLA BLA BLA BLA BLA BLA BLA BLA BLA BLA 
BLA BLA BLA BLA BLA BLA BLA BLA BLA BLA BLA BLA BLA BLA BLA BLA BLA BLA BLA BLA 
BLA BLA BLA BLA BLA BLA BLA BLA BLA BLA BLA BLA BLA BLA BLA BLA BLA BLA BLA BLA 
BLA BLA BLA BLA BLA BLA BLA BLA BLA BLA BLA BLA BLA BLA BLA BLA BLA BLA BLA BLA 
BLA BLA BLA BLA BLA BLA BLA BLA BLA BLA BLA BLA BLA BLA BLA BLA BLA BLA BLA BLA 
BLA BLA BLA BLA BLA BLA BLA BLA BLA BLA BLA BLA BLA BLA BLA BLA BLA BLA BLA BLA 
BLA BLA BLA BLA BLA BLA BLA BLA BLA BLA BLA BLA BLA BLA BLA BLA BLA BLA BLA BLA 
BLA BLA BLA BLA BLA BLA BLA BLA BLA BLA BLA BLA BLA BLA BLA BLA BLA BLA BLA BLA 
BLA BLA BLA BLA BLA BLA BLA BLA BLA BLA BLA BLA BLA BLA BLA BLA BLA BLA BLA BLA 
BLA BLA BLA BLA BLA BLA BLA BLA BLA BLA BLA BLA BLA BLA BLA BLA BLA BLA BLA BLA 
BLA BLA BLA BLA BLA BLA BLA BLA BLA BLA BLA BLA BLA BLA BLA BLA BLA BLA BLA BLA 
BLA BLA BLA BLA BLA BLA BLA BLA BLA BLA BLA BLA BLA BLA BLA BLA BLA BLA BLA BLA 
BLA BLA BLA BLA BLA BLA BLA BLA BLA BLA BLA BLA BLA BLA BLA BLA BLA BLA BLA BLA 
BLA BLA BLA BLA BLA BLA BLA BLA BLA BLA BLA BLA BLA BLA BLA BLA BLA BLA BLA BLA 
BLA BLA BLA BLA BLA BLA BLA BLA BLA BLA BLA BLA BLA BLA BLA BLA BLA BLA BLA BLA 
BLA BLA BLA BLA BLA BLA BLA BLA BLA BLA BLA BLA BLA BLA BLA BLA BLA BLA BLA BLA 
BLA BLA BLA BLA BLA BLA BLA BLA BLA BLA BLA BLA BLA BLA BLA BLA BLA BLA BLA BLA 
BLA BLA BLA BLA BLA BLA BLA BLA BLA BLA BLA BLA BLA BLA BLA BLA BLA BLA BLA BLA 
BLA BLA BLA BLA BLA BLA BLA BLA BLA BLA BLA BLA BLA BLA BLA BLA BLA BLA BLA BLA 
BLA BLA BLA BLA BLA BLA BLA BLA BLA BLA BLA BLA BLA BLA BLA BLA BLA BLA BLA BLA 
BLA BLA BLA BLA BLA BLA BLA BLA BLA BLA BLA BLA BLA BLA BLA BLA BLA BLA BLA BLA 
BLA BLA BLA BLA BLA BLA BLA BLA BLA BLA BLA BLA BLA BLA BLA BLA BLA BLA BLA BLA 
BLA BLA BLA BLA BLA BLA BLA BLA BLA BLA BLA BLA BLA BLA BLA BLA BLA BLA BLA BLA 
BLA BLA BLA BLA BLA BLA BLA BLA BLA BLA BLA BLA BLA BLA BLA BLA BLA BLA BLA BLA 
BLA BLA BLA BLA BLA BLA BLA BLA BLA BLA BLA BLA BLA BLA BLA BLA BLA BLA BLA BLA 
BLA BLA BLA BLA BLA BLA BLA BLA BLA BLA BLA BLA BLA BLA BLA BLA BLA BLA BLA BLA 
BLA BLA BLA BLA BLA BLA BLA BLA BLA BLA BLA BLA BLA BLA BLA BLA BLA BLA BLA BLA 
BLA BLA BLA BLA BLA BLA BLA BLA BLA BLA BLA BLA BLA BLA BLA BLA BLA BLA BLA BLA 
BLA BLA BLA BLA BLA BLA BLA BLA BLA BLA BLA BLA BLA BLA BLA BLA BLA BLA BLA BLA 
BLA BLA BLA BLA BLA BLA BLA BLA BLA BLA BLA BLA BLA BLA BLA BLA BLA BLA BLA BLA 
BLA BLA BLA BLA BLA BLA BLA BLA BLA BLA BLA BLA BLA BLA BLA BLA BLA BLA BLA BLA 
BLA BLA BLA BLA BLA BLA BLA BLA BLA BLA BLA BLA BLA BLA BLA BLA BLA BLA BLA BLA 
BLA BLA BLA BLA BLA BLA BLA BLA BLA BLA BLA BLA BLA BLA BLA BLA BLA BLA BLA BLA 
BLA BLA BLA BLA BLA BLA BLA BLA BLA BLA BLA BLA BLA BLA BLA BLA BLA BLA BLA BLA 
BLA BLA BLA BLA BLA BLA BLA BLA BLA BLA BLA BLA BLA BLA BLA BLA BLA BLA BLA BLA 
BLA BLA BLA BLA BLA BLA BLA BLA BLA BLA BLA BLA BLA BLA BLA BLA BLA BLA BLA BLA 
BLA BLA BLA BLA BLA BLA BLA BLA BLA BLA BLA BLA BLA BLA BLA BLA BLA BLA BLA BLA 
BLA BLA BLA BLA BLA BLA BLA BLA BLA BLA BLA BLA BLA BLA BLA BLA BLA BLA BLA BLA 
BLA BLA BLA BLA BLA BLA BLA BLA BLA BLA BLA BLA BLA BLA BLA BLA BLA BLA BLA BLA 
BLA BLA BLA BLA BLA BLA BLA BLA BLA BLA BLA BLA BLA BLA BLA BLA BLA BLA BLA BLA 
BLA BLA BLA BLA BLA BLA BLA BLA BLA BLA BLA BLA BLA BLA BLA BLA BLA BLA BLA BLA 
BLA BLA BLA BLA BLA BLA BLA BLA BLA BLA BLA BLA BLA BLA BLA BLA BLA BLA BLA BLA 
BLA BLA BLA BLA BLA BLA BLA BLA BLA BLA BLA BLA BLA BLA BLA BLA BLA BLA BLA BLA 
BLA BLA BLA BLA BLA BLA BLA BLA BLA BLA BLA BLA BLA BLA BLA BLA BLA BLA BLA BLA 
BLA BLA BLA BLA BLA BLA BLA BLA BLA BLA BLA BLA BLA BLA BLA BLA BLA BLA BLA BLA 
BLA BLA BLA BLA BLA BLA BLA BLA BLA BLA BLA BLA BLA BLA BLA BLA BLA BLA BLA BLA 
BLA BLA BLA BLA BLA BLA BLA BLA BLA BLA BLA BLA BLA BLA BLA BLA BLA BLA BLA BLA 
BLA BLA BLA BLA BLA BLA BLA BLA BLA BLA BLA BLA BLA BLA BLA BLA BLA BLA BLA BLA 
BLA BLA BLA BLA BLA BLA BLA BLA BLA BLA BLA BLA BLA BLA BLA BLA BLA BLA BLA BLA 
BLA BLA BLA BLA BLA BLA BLA BLA BLA BLA BLA BLA BLA BLA BLA BLA BLA BLA BLA BLA 
BLA BLA BLA BLA BLA BLA BLA BLA BLA BLA BLA BLA BLA BLA BLA BLA BLA BLA BLA BLA 
BLA BLA BLA BLA BLA BLA BLA BLA BLA BLA BLA BLA BLA BLA BLA BLA BLA BLA BLA BLA 
BLA BLA BLA BLA BLA BLA BLA BLA BLA BLA BLA BLA BLA BLA BLA BLA BLA BLA BLA BLA 
BLA BLA BLA BLA BLA BLA BLA BLA BLA BLA BLA BLA BLA BLA BLA BLA BLA BLA BLA BLA 
BLA BLA BLA BLA BLA BLA BLA BLA BLA BLA BLA BLA BLA BLA BLA BLA BLA BLA BLA BLA 
BLA BLA BLA BLA BLA BLA BLA BLA BLA BLA BLA BLA BLA BLA BLA BLA BLA BLA BLA BLA 
BLA BLA BLA BLA BLA BLA BLA BLA BLA BLA BLA BLA BLA BLA BLA BLA BLA BLA BLA BLA 
BLA BLA BLA BLA BLA BLA BLA BLA BLA BLA BLA BLA BLA BLA BLA BLA BLA BLA BLA BLA 
BLA BLA BLA BLA BLA BLA BLA BLA BLA BLA BLA BLA BLA BLA BLA BLA BLA BLA BLA BLA 
BLA BLA BLA BLA BLA BLA BLA BLA BLA BLA BLA BLA BLA BLA BLA BLA BLA BLA BLA BLA 
BLA BLA BLA BLA BLA BLA BLA BLA BLA BLA BLA BLA BLA BLA BLA BLA BLA BLA BLA BLA 
BLA BLA BLA BLA BLA BLA BLA BLA BLA BLA BLA BLA BLA BLA BLA BLA BLA BLA BLA BLA 
BLA BLA BLA BLA BLA BLA BLA BLA BLA BLA BLA BLA BLA BLA BLA BLA BLA BLA BLA BLA 
BLA BLA BLA BLA BLA BLA BLA BLA BLA BLA BLA BLA BLA BLA BLA BLA BLA BLA BLA BLA 
BLA BLA BLA BLA BLA BLA BLA BLA BLA BLA BLA BLA BLA BLA BLA BLA BLA BLA BLA BLA 
BLA BLA BLA BLA BLA BLA BLA BLA BLA BLA BLA BLA BLA BLA BLA BLA BLA BLA BLA BLA 
BLA BLA BLA BLA BLA BLA BLA BLA BLA BLA BLA BLA BLA BLA BLA BLA BLA BLA BLA BLA 
BLA BLA BLA BLA BLA BLA BLA BLA BLA BLA BLA BLA BLA BLA BLA BLA BLA BLA BLA BLA 
BLA BLA BLA BLA BLA BLA BLA BLA BLA BLA BLA BLA BLA BLA BLA BLA BLA BLA BLA BLA 
BLA BLA BLA BLA BLA BLA BLA BLA BLA BLA BLA BLA BLA BLA BLA BLA BLA BLA BLA BLA 
BLA BLA BLA BLA BLA BLA BLA BLA BLA BLA BLA BLA BLA BLA BLA BLA BLA BLA BLA BLA 
BLA BLA BLA BLA BLA BLA BLA BLA BLA BLA BLA BLA BLA BLA BLA BLA BLA BLA BLA BLA 
BLA BLA BLA BLA BLA BLA BLA BLA BLA BLA BLA BLA BLA BLA BLA BLA BLA BLA BLA BLA 
BLA BLA BLA BLA BLA BLA BLA BLA BLA BLA BLA BLA BLA BLA BLA BLA BLA BLA BLA BLA 
BLA BLA BLA BLA BLA BLA BLA BLA BLA BLA BLA BLA BLA BLA BLA BLA BLA BLA BLA BLA 
BLA BLA BLA BLA BLA BLA BLA BLA BLA BLA BLA BLA BLA BLA BLA BLA BLA BLA BLA BLA 
BLA BLA BLA BLA BLA BLA BLA BLA BLA BLA BLA BLA BLA BLA BLA BLA BLA BLA BLA BLA 
BLA BLA BLA BLA BLA BLA BLA BLA BLA BLA BLA BLA BLA BLA BLA BLA BLA BLA BLA BLA 
BLA BLA BLA BLA BLA BLA BLA BLA BLA BLA BLA BLA BLA BLA BLA BLA BLA BLA BLA BLA 
BLA BLA BLA BLA BLA BLA BLA BLA BLA BLA BLA BLA BLA BLA BLA BLA BLA BLA BLA BLA 
BLA BLA BLA BLA BLA BLA BLA BLA BLA BLA BLA BLA BLA BLA BLA BLA BLA BLA BLA BLA 
BLA BLA BLA BLA BLA BLA BLA BLA BLA BLA BLA BLA BLA BLA BLA BLA BLA BLA BLA BLA 
BLA BLA BLA BLA BLA BLA BLA BLA BLA BLA BLA BLA BLA BLA BLA BLA BLA BLA BLA BLA 
BLA BLA BLA BLA BLA BLA BLA BLA BLA BLA BLA BLA BLA BLA BLA BLA BLA BLA BLA BLA 
BLA BLA BLA BLA BLA BLA BLA BLA BLA BLA BLA BLA BLA BLA BLA BLA BLA BLA BLA BLA 
BLA BLA BLA BLA BLA BLA BLA BLA BLA BLA BLA BLA BLA BLA BLA BLA BLA BLA BLA BLA 
BLA BLA BLA BLA BLA BLA BLA BLA BLA BLA BLA BLA BLA BLA BLA BLA BLA BLA BLA BLA 
BLA BLA BLA BLA BLA BLA BLA BLA BLA BLA BLA BLA BLA BLA BLA BLA BLA BLA BLA BLA 
BLA BLA BLA BLA BLA BLA BLA BLA BLA BLA BLA BLA BLA BLA BLA BLA BLA BLA BLA BLA 
BLA BLA BLA BLA BLA BLA BLA BLA BLA BLA BLA BLA BLA BLA BLA BLA BLA BLA BLA BLA 
BLA BLA BLA BLA BLA BLA BLA BLA BLA BLA BLA BLA BLA BLA BLA BLA BLA BLA BLA BLA 
BLA BLA BLA BLA BLA BLA BLA BLA BLA BLA BLA BLA BLA BLA BLA BLA BLA BLA BLA BLA 
BLA BLA BLA BLA BLA BLA BLA BLA BLA BLA BLA BLA BLA BLA BLA BLA BLA BLA BLA BLA 
BLA BLA BLA BLA BLA BLA BLA BLA BLA BLA BLA BLA BLA BLA BLA BLA BLA BLA BLA BLA 
BLA BLA BLA BLA BLA BLA BLA BLA BLA BLA BLA BLA BLA BLA BLA BLA BLA BLA BLA BLA 
BLA BLA BLA BLA BLA BLA BLA BLA BLA BLA BLA BLA BLA BLA BLA BLA BLA BLA BLA BLA 
BLA BLA BLA BLA BLA BLA BLA BLA BLA BLA BLA BLA BLA BLA BLA BLA BLA BLA BLA BLA 
BLA BLA BLA BLA BLA BLA BLA BLA BLA BLA BLA BLA BLA BLA BLA BLA BLA BLA BLA BLA 
BLA BLA BLA BLA BLA BLA BLA BLA BLA BLA BLA BLA BLA BLA BLA BLA BLA BLA BLA BLA 
BLA BLA BLA BLA BLA BLA BLA BLA BLA BLA BLA BLA BLA BLA BLA BLA BLA BLA BLA BLA 
BLA BLA BLA BLA BLA BLA BLA BLA BLA BLA BLA BLA BLA BLA BLA BLA BLA BLA BLA BLA 
BLA BLA BLA BLA BLA BLA BLA BLA BLA BLA BLA BLA BLA BLA BLA BLA BLA BLA BLA BLA 
BLA BLA BLA BLA BLA BLA BLA BLA BLA BLA BLA BLA BLA BLA BLA BLA BLA BLA BLA BLA 
BLA BLA BLA BLA BLA BLA BLA BLA BLA BLA BLA BLA BLA BLA BLA BLA BLA BLA BLA BLA 
BLA BLA BLA BLA BLA BLA BLA BLA BLA BLA BLA BLA BLA BLA BLA BLA BLA BLA BLA BLA 
BLA BLA BLA BLA BLA BLA BLA BLA BLA BLA BLA BLA BLA BLA BLA BLA BLA BLA BLA BLA 
BLA BLA BLA BLA BLA BLA BLA BLA BLA BLA BLA BLA BLA BLA BLA BLA BLA BLA BLA BLA 
BLA BLA BLA BLA BLA BLA BLA BLA BLA BLA BLA BLA BLA BLA BLA BLA BLA BLA BLA BLA 
BLA BLA BLA BLA BLA BLA BLA BLA BLA BLA BLA BLA BLA BLA BLA BLA BLA BLA BLA BLA 
BLA BLA BLA BLA BLA BLA BLA BLA BLA BLA BLA BLA BLA BLA BLA BLA BLA BLA BLA BLA 
BLA BLA BLA BLA BLA BLA BLA BLA BLA BLA BLA BLA BLA BLA BLA BLA BLA BLA BLA BLA 
BLA BLA BLA BLA BLA BLA BLA BLA BLA BLA BLA BLA BLA BLA BLA BLA BLA BLA BLA BLA 
BLA BLA BLA BLA BLA BLA BLA BLA BLA BLA BLA BLA BLA BLA BLA BLA BLA BLA BLA BLA 
BLA BLA BLA BLA BLA BLA BLA BLA BLA BLA BLA BLA BLA BLA BLA BLA BLA BLA BLA BLA 
BLA BLA BLA BLA BLA BLA BLA BLA BLA BLA BLA BLA BLA BLA BLA BLA BLA BLA BLA BLA 
BLA BLA BLA BLA BLA BLA BLA BLA BLA BLA BLA BLA BLA BLA BLA BLA BLA BLA BLA BLA 
BLA BLA BLA BLA BLA BLA BLA BLA BLA BLA BLA BLA BLA BLA BLA BLA BLA BLA BLA BLA 
BLA BLA BLA BLA BLA BLA BLA BLA BLA BLA BLA BLA BLA BLA BLA BLA BLA BLA BLA BLA 
BLA BLA BLA BLA BLA BLA BLA BLA BLA BLA BLA BLA BLA BLA BLA BLA BLA BLA BLA BLA 
BLA BLA BLA BLA BLA BLA BLA BLA BLA BLA BLA BLA BLA BLA BLA BLA BLA BLA BLA BLA 
BLA BLA BLA BLA BLA BLA BLA BLA BLA BLA BLA BLA BLA BLA BLA BLA BLA BLA BLA BLA 
BLA BLA BLA BLA BLA BLA BLA BLA BLA BLA BLA BLA BLA BLA BLA BLA BLA BLA BLA BLA 
BLA BLA BLA BLA BLA BLA BLA BLA BLA BLA BLA BLA BLA BLA BLA BLA BLA BLA BLA BLA 
BLA BLA BLA BLA BLA BLA BLA BLA BLA BLA BLA BLA BLA BLA BLA BLA BLA BLA BLA BLA 
BLA BLA BLA BLA BLA BLA BLA BLA BLA BLA BLA BLA BLA BLA BLA BLA BLA BLA BLA BLA 
BLA BLA BLA BLA BLA BLA BLA BLA BLA BLA BLA BLA BLA BLA BLA BLA BLA BLA BLA BLA 
BLA BLA BLA BLA BLA BLA BLA BLA BLA BLA BLA BLA BLA BLA BLA BLA BLA BLA BLA BLA 
BLA BLA BLA BLA BLA BLA BLA BLA BLA BLA BLA BLA BLA BLA BLA BLA BLA BLA BLA BLA 
BLA BLA BLA BLA BLA BLA BLA BLA BLA BLA BLA BLA BLA BLA BLA BLA BLA BLA BLA BLA 
BLA BLA BLA BLA BLA BLA BLA BLA BLA BLA BLA BLA BLA BLA BLA BLA BLA BLA BLA BLA 
BLA BLA BLA BLA BLA BLA BLA BLA BLA BLA BLA BLA BLA BLA BLA BLA BLA BLA BLA BLA 
BLA BLA BLA BLA BLA BLA BLA BLA BLA BLA BLA BLA BLA BLA BLA BLA BLA BLA BLA BLA 
BLA BLA BLA BLA BLA BLA BLA BLA BLA BLA BLA BLA BLA BLA BLA BLA BLA BLA BLA BLA 
BLA BLA BLA BLA BLA BLA BLA BLA BLA BLA BLA BLA BLA BLA BLA BLA BLA BLA BLA BLA 
BLA BLA BLA BLA BLA BLA BLA BLA BLA BLA BLA BLA BLA BLA BLA BLA BLA BLA BLA BLA 
BLA BLA BLA BLA BLA BLA BLA BLA BLA BLA BLA BLA BLA BLA BLA BLA BLA BLA BLA BLA 
BLA BLA BLA BLA BLA BLA BLA BLA BLA BLA BLA BLA BLA BLA BLA BLA BLA BLA BLA BLA 
BLA BLA BLA BLA BLA BLA BLA BLA BLA BLA BLA BLA BLA BLA BLA BLA BLA BLA BLA BLA 
BLA BLA BLA BLA BLA BLA BLA BLA BLA BLA BLA BLA BLA BLA BLA BLA BLA BLA BLA BLA 
BLA BLA BLA BLA BLA BLA BLA BLA BLA BLA BLA BLA BLA BLA BLA BLA BLA BLA BLA BLA 
BLA BLA BLA BLA BLA BLA BLA BLA BLA BLA BLA BLA BLA BLA BLA BLA BLA BLA BLA BLA 
BLA BLA BLA BLA BLA BLA BLA BLA BLA BLA BLA BLA BLA BLA BLA BLA BLA BLA BLA BLA 
BLA BLA BLA BLA BLA BLA BLA BLA BLA BLA BLA BLA BLA BLA BLA BLA BLA BLA BLA BLA 
BLA BLA BLA BLA BLA BLA BLA BLA BLA BLA BLA BLA BLA BLA BLA BLA BLA BLA BLA BLA 
BLA BLA BLA BLA BLA BLA BLA BLA BLA BLA BLA BLA BLA BLA BLA BLA BLA BLA BLA BLA 
BLA BLA BLA BLA BLA BLA BLA BLA BLA BLA BLA BLA BLA BLA BLA BLA BLA BLA BLA BLA 
BLA BLA BLA BLA BLA BLA BLA BLA BLA BLA BLA BLA BLA BLA BLA BLA BLA BLA BLA BLA 
BLA BLA BLA BLA BLA BLA BLA BLA BLA BLA BLA BLA BLA BLA BLA BLA BLA BLA BLA BLA 
BLA BLA BLA BLA BLA BLA BLA BLA BLA BLA BLA BLA BLA BLA BLA BLA BLA BLA BLA BLA 
BLA BLA BLA BLA BLA BLA BLA BLA BLA BLA BLA BLA BLA BLA BLA BLA BLA BLA BLA BLA 
BLA BLA BLA BLA BLA BLA BLA BLA BLA BLA BLA BLA BLA BLA BLA BLA BLA BLA BLA BLA 
BLA BLA BLA BLA BLA BLA BLA BLA BLA BLA BLA BLA BLA BLA BLA BLA BLA BLA BLA BLA 
BLA BLA BLA BLA BLA BLA BLA BLA BLA BLA BLA BLA BLA BLA BLA BLA BLA BLA BLA BLA 
BLA BLA BLA BLA BLA BLA BLA BLA BLA BLA BLA BLA BLA BLA BLA BLA BLA BLA BLA BLA 
BLA BLA BLA BLA BLA BLA BLA BLA BLA BLA BLA BLA BLA BLA BLA BLA BLA BLA BLA BLA 
BLA BLA BLA BLA BLA BLA BLA BLA BLA BLA BLA BLA BLA BLA BLA BLA BLA BLA BLA BLA 
BLA BLA BLA BLA BLA BLA BLA BLA BLA BLA BLA BLA BLA BLA BLA BLA BLA BLA BLA BLA 
BLA BLA BLA BLA BLA BLA BLA BLA BLA BLA BLA BLA BLA BLA BLA BLA BLA BLA BLA BLA 
BLA BLA BLA BLA BLA BLA BLA BLA BLA BLA BLA BLA BLA BLA BLA BLA BLA BLA BLA BLA 
BLA BLA BLA BLA BLA BLA BLA BLA BLA BLA BLA BLA BLA BLA BLA BLA BLA BLA BLA BLA 
BLA BLA BLA BLA BLA BLA BLA BLA BLA BLA BLA BLA BLA BLA BLA BLA BLA BLA BLA BLA 
BLA BLA BLA BLA BLA BLA BLA BLA BLA BLA BLA BLA BLA BLA BLA BLA BLA BLA BLA BLA 
BLA BLA BLA BLA BLA BLA BLA BLA BLA BLA BLA BLA BLA BLA BLA BLA BLA BLA BLA BLA 
BLA BLA BLA BLA BLA BLA BLA BLA BLA BLA BLA BLA BLA BLA BLA BLA BLA BLA BLA BLA 
BLA BLA BLA BLA BLA BLA BLA BLA BLA BLA BLA BLA BLA BLA BLA BLA BLA BLA BLA BLA 
BLA BLA BLA BLA BLA BLA BLA BLA BLA BLA BLA BLA BLA BLA BLA BLA BLA BLA BLA BLA 
BLA BLA BLA BLA BLA BLA BLA BLA BLA BLA BLA BLA BLA BLA BLA BLA BLA BLA BLA BLA 
BLA BLA BLA BLA BLA BLA BLA BLA BLA BLA BLA BLA BLA BLA BLA BLA BLA BLA BLA BLA 
BLA BLA BLA BLA BLA BLA BLA BLA BLA BLA BLA BLA BLA BLA BLA BLA BLA BLA BLA BLA 
BLA BLA BLA BLA BLA BLA BLA BLA BLA BLA BLA BLA BLA BLA BLA BLA BLA BLA BLA BLA 
BLA BLA BLA BLA BLA BLA BLA BLA BLA BLA BLA BLA BLA BLA BLA BLA BLA BLA BLA BLA 
BLA BLA BLA BLA BLA BLA BLA BLA BLA BLA BLA BLA BLA BLA BLA BLA BLA BLA BLA BLA 
BLA BLA BLA BLA BLA BLA BLA BLA BLA BLA BLA BLA BLA BLA BLA BLA BLA BLA BLA BLA 
BLA BLA BLA BLA BLA BLA BLA BLA BLA BLA BLA BLA BLA BLA BLA BLA BLA BLA BLA BLA 
BLA BLA BLA BLA BLA BLA BLA BLA BLA BLA BLA BLA BLA BLA BLA BLA BLA BLA BLA BLA 
BLA BLA BLA BLA BLA BLA BLA BLA BLA BLA BLA BLA BLA BLA BLA BLA BLA BLA BLA BLA 
BLA BLA BLA BLA BLA BLA BLA BLA BLA BLA BLA BLA BLA BLA BLA BLA BLA BLA BLA BLA 
BLA BLA BLA BLA BLA BLA BLA BLA BLA BLA BLA BLA BLA BLA BLA BLA BLA BLA BLA BLA 
BLA BLA BLA BLA BLA BLA BLA BLA BLA BLA BLA BLA BLA BLA BLA BLA BLA BLA BLA BLA 
BLA BLA BLA BLA BLA BLA BLA BLA BLA BLA BLA BLA BLA BLA BLA BLA BLA BLA BLA BLA 
BLA BLA BLA BLA BLA BLA BLA BLA BLA BLA BLA BLA BLA BLA BLA BLA BLA BLA BLA BLA 
BLA BLA BLA BLA BLA BLA BLA BLA BLA BLA BLA BLA BLA BLA BLA BLA BLA BLA BLA BLA 
BLA BLA BLA BLA BLA BLA BLA BLA BLA BLA BLA BLA BLA BLA BLA BLA BLA BLA BLA BLA 
BLA BLA BLA BLA BLA BLA BLA BLA BLA BLA BLA BLA BLA BLA BLA BLA BLA BLA BLA BLA 
BLA BLA BLA BLA BLA BLA BLA BLA BLA BLA BLA BLA BLA BLA BLA BLA BLA BLA BLA BLA 
BLA BLA BLA BLA BLA BLA BLA BLA BLA BLA BLA BLA BLA BLA BLA BLA BLA BLA BLA BLA 
BLA BLA BLA BLA BLA BLA BLA BLA BLA BLA BLA BLA BLA BLA BLA BLA BLA BLA BLA BLA 
BLA BLA BLA BLA BLA BLA BLA BLA BLA BLA BLA BLA BLA BLA BLA BLA BLA BLA BLA BLA 
BLA BLA BLA BLA BLA BLA BLA BLA BLA BLA BLA BLA BLA BLA BLA BLA BLA BLA BLA BLA 
BLA BLA BLA BLA BLA BLA BLA BLA BLA BLA BLA BLA BLA BLA BLA BLA BLA BLA BLA BLA 
BLA BLA BLA BLA BLA BLA BLA BLA BLA BLA BLA BLA BLA BLA BLA BLA BLA BLA BLA BLA 
BLA BLA BLA BLA BLA BLA BLA BLA BLA BLA BLA BLA BLA BLA BLA BLA BLA BLA BLA BLA 
BLA BLA BLA BLA BLA BLA BLA BLA BLA BLA BLA BLA BLA BLA BLA BLA BLA BLA BLA BLA 
BLA BLA BLA BLA BLA BLA BLA BLA BLA BLA BLA BLA BLA BLA BLA BLA BLA BLA BLA BLA 
BLA BLA BLA BLA BLA BLA BLA BLA BLA BLA BLA BLA BLA BLA BLA BLA BLA BLA BLA BLA 
BLA BLA BLA BLA BLA BLA BLA BLA BLA BLA BLA BLA BLA BLA BLA BLA BLA BLA BLA BLA 
BLA BLA BLA BLA BLA BLA BLA BLA BLA BLA BLA BLA BLA BLA BLA BLA BLA BLA BLA BLA 
BLA BLA BLA BLA BLA BLA BLA BLA BLA BLA BLA BLA BLA BLA BLA BLA BLA BLA BLA BLA 
BLA BLA BLA BLA BLA BLA BLA BLA BLA BLA BLA BLA BLA BLA BLA BLA BLA BLA BLA BLA 
BLA BLA BLA BLA BLA BLA BLA BLA BLA BLA BLA BLA BLA BLA BLA BLA BLA BLA BLA BLA 
BLA BLA BLA BLA BLA BLA BLA BLA BLA BLA BLA BLA BLA BLA BLA BLA BLA BLA BLA BLA 
BLA BLA BLA BLA BLA BLA BLA BLA BLA BLA BLA BLA BLA BLA BLA BLA BLA BLA BLA BLA 
BLA BLA BLA BLA BLA BLA BLA BLA BLA BLA BLA BLA BLA BLA BLA BLA BLA BLA BLA BLA 
BLA BLA BLA BLA BLA BLA BLA BLA BLA BLA BLA BLA BLA BLA BLA BLA BLA BLA BLA BLA 
BLA BLA BLA BLA BLA BLA BLA BLA BLA BLA BLA BLA BLA BLA BLA BLA BLA BLA BLA BLA 
BLA BLA BLA BLA BLA BLA BLA BLA BLA BLA BLA BLA BLA BLA BLA BLA BLA BLA BLA BLA 
BLA BLA BLA BLA BLA BLA BLA BLA BLA BLA BLA BLA BLA BLA BLA BLA BLA BLA BLA BLA 
BLA BLA BLA BLA BLA BLA BLA BLA BLA BLA BLA BLA BLA BLA BLA BLA BLA BLA BLA BLA 
BLA BLA BLA BLA BLA BLA BLA BLA BLA BLA BLA BLA BLA BLA BLA BLA BLA BLA BLA BLA 
BLA BLA BLA BLA BLA BLA BLA BLA BLA BLA BLA BLA BLA BLA BLA BLA BLA BLA BLA BLA 
BLA BLA BLA BLA BLA BLA BLA BLA BLA BLA BLA BLA BLA BLA BLA BLA BLA BLA BLA BLA 
BLA BLA BLA BLA BLA BLA BLA BLA BLA BLA BLA BLA BLA BLA BLA BLA BLA BLA BLA BLA 
BLA BLA BLA BLA BLA BLA BLA BLA BLA BLA BLA BLA BLA BLA BLA BLA BLA BLA BLA BLA 
BLA BLA BLA BLA BLA BLA BLA BLA BLA BLA BLA BLA BLA BLA BLA BLA BLA BLA BLA BLA 
BLA BLA BLA BLA BLA BLA BLA BLA BLA BLA BLA BLA BLA BLA BLA BLA BLA BLA BLA BLA 
BLA BLA BLA BLA BLA BLA BLA BLA BLA BLA BLA BLA BLA BLA BLA BLA BLA BLA BLA BLA 
BLA BLA BLA BLA BLA BLA BLA BLA BLA BLA BLA BLA BLA BLA BLA BLA BLA BLA BLA BLA 
BLA BLA BLA BLA BLA BLA BLA BLA BLA BLA BLA BLA BLA BLA BLA BLA BLA BLA BLA BLA 
BLA BLA BLA BLA BLA BLA BLA BLA BLA BLA BLA BLA BLA BLA BLA BLA BLA BLA BLA BLA 
BLA BLA BLA BLA BLA BLA BLA BLA BLA BLA BLA BLA BLA BLA BLA BLA BLA BLA BLA BLA 
BLA BLA BLA BLA BLA BLA BLA BLA BLA BLA BLA BLA BLA BLA BLA BLA BLA BLA BLA BLA 
BLA BLA BLA BLA BLA BLA BLA BLA BLA BLA BLA BLA BLA BLA BLA BLA BLA BLA BLA BLA 
BLA BLA BLA BLA BLA BLA BLA BLA BLA BLA BLA BLA BLA BLA BLA BLA BLA BLA BLA BLA 
BLA BLA BLA BLA BLA BLA BLA BLA BLA BLA BLA BLA BLA BLA BLA BLA BLA BLA BLA BLA 
BLA BLA BLA BLA BLA BLA BLA BLA BLA BLA BLA BLA BLA BLA BLA BLA BLA BLA BLA BLA 
BLA BLA BLA BLA BLA BLA BLA BLA BLA BLA BLA BLA BLA BLA BLA BLA BLA BLA BLA BLA 
BLA BLA BLA BLA BLA BLA BLA BLA BLA BLA BLA BLA BLA BLA BLA BLA BLA BLA BLA BLA 
BLA BLA BLA BLA BLA BLA BLA BLA BLA BLA BLA BLA BLA BLA BLA BLA BLA BLA BLA BLA 
BLA BLA BLA BLA BLA BLA BLA BLA BLA BLA BLA BLA BLA BLA BLA BLA BLA BLA BLA BLA 
BLA BLA BLA BLA BLA BLA BLA BLA BLA BLA BLA BLA BLA BLA BLA BLA BLA BLA BLA BLA 
BLA BLA BLA BLA BLA BLA BLA BLA BLA BLA BLA BLA BLA BLA BLA BLA BLA BLA BLA BLA 
BLA BLA BLA BLA BLA BLA BLA BLA BLA BLA BLA BLA BLA BLA BLA BLA BLA BLA BLA BLA 
BLA BLA BLA BLA BLA BLA BLA BLA BLA BLA BLA BLA BLA BLA BLA BLA BLA BLA BLA BLA 
BLA BLA BLA BLA BLA BLA BLA BLA BLA BLA BLA BLA BLA BLA BLA BLA BLA BLA BLA BLA 
BLA BLA BLA BLA BLA BLA BLA BLA BLA BLA BLA BLA BLA BLA BLA BLA BLA BLA BLA BLA 
BLA BLA BLA BLA BLA BLA BLA BLA BLA BLA BLA BLA BLA BLA BLA BLA BLA BLA BLA BLA 
BLA BLA BLA BLA BLA BLA BLA BLA BLA BLA BLA BLA BLA BLA BLA BLA BLA BLA BLA BLA 
BLA BLA BLA BLA BLA BLA BLA BLA BLA BLA BLA BLA BLA BLA BLA BLA BLA BLA BLA BLA 
BLA BLA BLA BLA BLA BLA BLA BLA BLA BLA BLA BLA BLA BLA BLA BLA BLA BLA BLA BLA 
BLA BLA BLA BLA BLA BLA BLA BLA BLA BLA BLA BLA BLA BLA BLA BLA BLA BLA BLA BLA 
BLA BLA BLA BLA BLA BLA BLA BLA BLA BLA BLA BLA BLA BLA BLA BLA BLA BLA BLA BLA 
BLA BLA BLA BLA BLA BLA BLA BLA BLA BLA BLA BLA BLA BLA BLA BLA BLA BLA BLA BLA 
BLA BLA BLA BLA BLA BLA BLA BLA BLA BLA BLA BLA BLA BLA BLA BLA BLA BLA BLA BLA 
BLA BLA BLA BLA BLA BLA BLA BLA BLA BLA BLA BLA BLA BLA BLA BLA BLA BLA BLA BLA 
BLA BLA BLA BLA BLA BLA BLA BLA BLA BLA BLA BLA BLA BLA BLA BLA BLA BLA BLA BLA 
BLA BLA BLA BLA BLA BLA BLA BLA BLA BLA BLA BLA BLA BLA BLA BLA BLA BLA BLA BLA 
BLA BLA BLA BLA BLA BLA BLA BLA BLA BLA BLA BLA BLA BLA BLA BLA BLA BLA BLA BLA 
BLA BLA BLA BLA BLA BLA BLA BLA BLA BLA BLA BLA BLA BLA BLA BLA BLA BLA BLA BLA 
BLA BLA BLA BLA BLA BLA BLA BLA BLA BLA BLA BLA BLA BLA BLA BLA BLA BLA BLA BLA 
BLA BLA BLA BLA BLA BLA BLA BLA BLA BLA BLA BLA BLA BLA BLA BLA BLA BLA BLA BLA 
BLA BLA BLA BLA BLA BLA BLA BLA BLA BLA BLA BLA BLA BLA BLA BLA BLA BLA BLA BLA 
BLA BLA BLA BLA BLA BLA BLA BLA BLA BLA BLA BLA BLA BLA BLA BLA BLA BLA BLA BLA 
BLA BLA BLA BLA BLA BLA BLA BLA BLA BLA BLA BLA BLA BLA BLA BLA BLA BLA BLA BLA 
BLA BLA BLA BLA BLA BLA BLA BLA BLA BLA BLA BLA BLA BLA BLA BLA BLA BLA BLA BLA 
BLA BLA BLA BLA BLA BLA BLA BLA BLA BLA BLA BLA BLA BLA BLA BLA BLA BLA BLA BLA 
BLA BLA BLA BLA BLA BLA BLA BLA BLA BLA BLA BLA BLA BLA BLA BLA BLA BLA BLA BLA 
BLA BLA BLA BLA BLA BLA BLA BLA BLA BLA BLA BLA BLA BLA BLA BLA BLA BLA BLA BLA 
BLA BLA BLA BLA BLA BLA BLA BLA BLA BLA BLA BLA BLA BLA BLA BLA BLA BLA BLA BLA 
BLA BLA BLA BLA BLA BLA BLA BLA BLA BLA BLA BLA BLA BLA BLA BLA BLA BLA BLA BLA 
BLA BLA BLA BLA BLA BLA BLA BLA BLA BLA BLA BLA BLA BLA BLA BLA BLA BLA BLA BLA 
BLA BLA BLA BLA BLA BLA BLA BLA BLA BLA BLA BLA BLA BLA BLA BLA BLA BLA BLA BLA 
BLA BLA BLA BLA BLA BLA BLA BLA BLA BLA BLA BLA BLA BLA BLA BLA BLA BLA BLA BLA 
BLA BLA BLA BLA BLA BLA BLA BLA BLA BLA BLA BLA BLA BLA BLA BLA BLA BLA BLA BLA 
BLA BLA BLA BLA BLA BLA BLA BLA BLA BLA BLA BLA BLA BLA BLA BLA BLA BLA BLA BLA 
BLA BLA BLA BLA BLA BLA BLA BLA BLA BLA BLA BLA BLA BLA BLA BLA BLA BLA BLA BLA 
BLA BLA BLA BLA BLA BLA BLA BLA BLA BLA BLA BLA BLA BLA BLA BLA BLA BLA BLA BLA 
BLA BLA BLA BLA BLA BLA BLA BLA BLA BLA BLA BLA BLA BLA BLA BLA BLA BLA BLA BLA 
BLA BLA BLA BLA BLA BLA BLA BLA BLA BLA BLA BLA BLA BLA BLA BLA BLA BLA BLA BLA 
BLA BLA BLA BLA BLA BLA BLA BLA BLA BLA BLA BLA BLA BLA BLA BLA BLA BLA BLA BLA 
BLA BLA BLA BLA BLA BLA BLA BLA BLA BLA BLA BLA BLA BLA BLA BLA BLA BLA BLA BLA 
BLA BLA BLA BLA BLA BLA BLA BLA BLA BLA BLA BLA BLA BLA BLA BLA BLA BLA BLA BLA 
BLA BLA BLA BLA BLA BLA BLA BLA BLA BLA BLA BLA BLA BLA BLA BLA BLA BLA BLA BLA 
BLA BLA BLA BLA BLA BLA BLA BLA BLA BLA BLA BLA BLA BLA BLA BLA BLA BLA BLA BLA 
BLA BLA BLA BLA BLA BLA BLA BLA BLA BLA BLA BLA BLA BLA BLA BLA BLA BLA BLA BLA 
BLA BLA BLA BLA BLA BLA BLA BLA BLA BLA BLA BLA BLA BLA BLA BLA BLA BLA BLA BLA 
BLA BLA BLA BLA BLA BLA BLA BLA BLA BLA BLA BLA BLA BLA BLA BLA BLA BLA BLA BLA 
BLA BLA BLA BLA BLA BLA BLA BLA BLA BLA BLA BLA BLA BLA BLA BLA BLA BLA BLA BLA 
BLA BLA BLA BLA BLA BLA BLA BLA BLA BLA BLA BLA BLA BLA BLA BLA BLA BLA BLA BLA 
BLA BLA BLA BLA BLA BLA BLA BLA BLA BLA BLA BLA BLA BLA BLA BLA BLA BLA BLA BLA 
BLA BLA BLA BLA BLA BLA BLA BLA BLA BLA BLA BLA BLA BLA BLA BLA BLA BLA BLA BLA 
BLA BLA BLA BLA BLA BLA BLA BLA BLA BLA BLA BLA BLA BLA BLA BLA BLA BLA BLA BLA 
BLA BLA BLA BLA BLA BLA BLA BLA BLA BLA BLA BLA BLA BLA BLA BLA BLA BLA BLA BLA 
BLA BLA BLA BLA BLA BLA BLA BLA BLA BLA BLA BLA BLA BLA BLA BLA BLA BLA BLA BLA 
BLA BLA BLA BLA BLA BLA BLA BLA BLA BLA BLA BLA BLA BLA BLA BLA BLA BLA BLA BLA 
BLA BLA BLA BLA BLA BLA BLA BLA BLA BLA BLA BLA BLA BLA BLA BLA BLA BLA BLA BLA 
BLA BLA BLA BLA BLA BLA BLA BLA BLA BLA BLA BLA BLA BLA BLA BLA BLA BLA BLA BLA 
BLA BLA BLA BLA BLA BLA BLA BLA BLA BLA BLA BLA BLA BLA BLA BLA BLA BLA BLA BLA 
BLA BLA BLA BLA BLA BLA BLA BLA BLA BLA BLA BLA BLA BLA BLA BLA BLA BLA BLA BLA 
BLA BLA BLA BLA BLA BLA BLA BLA BLA BLA BLA BLA BLA BLA BLA BLA BLA BLA BLA BLA 
BLA BLA BLA BLA BLA BLA BLA BLA BLA BLA BLA BLA BLA BLA BLA BLA BLA BLA BLA BLA 
BLA BLA BLA BLA BLA BLA BLA BLA BLA BLA BLA BLA BLA BLA BLA BLA BLA BLA BLA BLA 
BLA BLA BLA BLA BLA BLA BLA BLA BLA BLA BLA BLA BLA BLA BLA BLA BLA BLA BLA BLA 
BLA BLA BLA BLA BLA BLA BLA BLA BLA BLA BLA BLA BLA BLA BLA BLA BLA BLA BLA BLA 
BLA BLA BLA BLA BLA BLA BLA BLA BLA BLA BLA BLA BLA BLA BLA BLA BLA BLA BLA BLA 
BLA BLA BLA BLA BLA BLA BLA BLA BLA BLA BLA BLA BLA BLA BLA BLA BLA BLA BLA BLA 
BLA BLA BLA BLA BLA BLA BLA BLA BLA BLA BLA BLA BLA BLA BLA BLA BLA BLA BLA BLA 
BLA BLA BLA BLA BLA BLA BLA BLA BLA BLA BLA BLA BLA BLA BLA BLA BLA BLA BLA BLA 
BLA BLA BLA BLA BLA BLA BLA BLA BLA BLA BLA BLA BLA BLA BLA BLA BLA BLA BLA BLA 
BLA BLA BLA BLA BLA BLA BLA BLA BLA BLA BLA BLA BLA BLA BLA BLA BLA BLA BLA BLA 
BLA BLA BLA BLA BLA BLA BLA BLA BLA BLA BLA BLA BLA BLA BLA BLA BLA BLA BLA BLA 
BLA BLA BLA BLA BLA BLA BLA BLA BLA BLA BLA BLA BLA BLA BLA BLA BLA BLA BLA BLA 
BLA BLA BLA BLA BLA BLA BLA BLA BLA BLA BLA BLA BLA BLA BLA BLA BLA BLA BLA BLA 
BLA BLA BLA BLA BLA BLA BLA BLA BLA BLA BLA BLA BLA BLA BLA BLA BLA BLA BLA BLA 
BLA BLA BLA BLA BLA BLA BLA BLA BLA BLA BLA BLA BLA BLA BLA BLA BLA BLA BLA BLA 
BLA BLA BLA BLA BLA BLA BLA BLA BLA BLA BLA BLA BLA BLA BLA BLA BLA BLA BLA BLA 
BLA BLA BLA BLA BLA BLA BLA BLA BLA BLA BLA BLA BLA BLA BLA BLA BLA BLA BLA BLA 
BLA BLA BLA BLA BLA BLA BLA BLA BLA BLA BLA BLA BLA BLA BLA BLA BLA BLA BLA BLA 
BLA BLA BLA BLA BLA BLA BLA BLA BLA BLA BLA BLA BLA BLA BLA BLA BLA BLA BLA BLA 
BLA BLA BLA BLA BLA BLA BLA BLA BLA BLA BLA BLA BLA BLA BLA BLA BLA BLA BLA BLA 
BLA BLA BLA BLA BLA BLA BLA BLA BLA BLA BLA BLA BLA BLA BLA BLA BLA BLA BLA BLA 
BLA BLA BLA BLA BLA BLA BLA BLA BLA BLA BLA BLA BLA BLA BLA BLA BLA BLA BLA BLA 
BLA BLA BLA BLA BLA BLA BLA BLA BLA BLA BLA BLA BLA BLA BLA BLA BLA BLA BLA BLA 
BLA BLA BLA BLA BLA BLA BLA BLA BLA BLA BLA BLA BLA BLA BLA BLA BLA BLA BLA BLA 
BLA BLA BLA BLA BLA BLA BLA BLA BLA BLA BLA BLA BLA BLA BLA BLA BLA BLA BLA BLA 
BLA BLA BLA BLA BLA BLA BLA BLA BLA BLA BLA BLA BLA BLA BLA BLA BLA BLA BLA BLA 
BLA BLA BLA BLA BLA BLA BLA BLA BLA BLA BLA BLA BLA BLA BLA BLA BLA BLA BLA BLA 
BLA BLA BLA BLA BLA BLA BLA BLA BLA BLA BLA BLA BLA BLA BLA BLA BLA BLA BLA BLA 
BLA BLA BLA BLA BLA BLA BLA BLA BLA BLA BLA BLA BLA BLA BLA BLA BLA BLA BLA BLA 
BLA BLA BLA BLA BLA BLA BLA BLA BLA BLA BLA BLA BLA BLA BLA BLA BLA BLA BLA BLA 
BLA BLA BLA BLA BLA BLA BLA BLA BLA BLA BLA BLA BLA BLA BLA BLA BLA BLA BLA BLA 
BLA BLA BLA BLA BLA BLA BLA BLA BLA BLA BLA BLA BLA BLA BLA BLA BLA BLA BLA BLA 
BLA BLA BLA BLA BLA BLA BLA BLA BLA BLA BLA BLA BLA BLA BLA BLA BLA BLA BLA BLA 
BLA BLA BLA BLA BLA BLA BLA BLA BLA BLA BLA BLA BLA BLA BLA BLA BLA BLA BLA BLA 
BLA BLA BLA BLA BLA BLA BLA BLA BLA BLA BLA BLA BLA BLA BLA BLA BLA BLA BLA BLA 
BLA BLA BLA BLA BLA BLA BLA BLA BLA BLA BLA BLA BLA BLA BLA BLA BLA BLA BLA BLA 
BLA BLA BLA BLA BLA BLA BLA BLA BLA BLA BLA BLA BLA BLA BLA BLA BLA BLA BLA BLA 
BLA BLA BLA BLA BLA BLA BLA BLA BLA BLA BLA BLA BLA BLA BLA BLA BLA BLA BLA BLA 
BLA BLA BLA BLA BLA BLA BLA BLA BLA BLA BLA BLA BLA BLA BLA BLA BLA BLA BLA BLA 
BLA BLA BLA BLA BLA BLA BLA BLA BLA BLA BLA BLA BLA BLA BLA BLA BLA BLA BLA BLA 
BLA BLA BLA BLA BLA BLA BLA BLA BLA BLA BLA BLA BLA BLA BLA BLA BLA BLA BLA BLA 
BLA BLA BLA BLA BLA BLA BLA BLA BLA BLA BLA BLA BLA BLA BLA BLA BLA BLA BLA BLA 
BLA BLA BLA BLA BLA BLA BLA BLA BLA BLA BLA BLA BLA BLA BLA BLA BLA BLA BLA BLA 
BLA BLA BLA BLA BLA BLA BLA BLA BLA BLA BLA BLA BLA BLA BLA BLA BLA BLA BLA BLA 
BLA BLA BLA BLA BLA BLA BLA BLA BLA BLA BLA BLA BLA BLA BLA BLA BLA BLA BLA BLA 
BLA BLA BLA BLA BLA BLA BLA BLA BLA BLA BLA BLA BLA BLA BLA BLA BLA BLA BLA BLA 
BLA BLA BLA BLA BLA BLA BLA BLA BLA BLA BLA BLA BLA BLA BLA BLA BLA BLA BLA BLA 
BLA BLA BLA BLA BLA BLA BLA BLA BLA BLA BLA BLA BLA BLA BLA BLA BLA BLA BLA BLA 
BLA BLA BLA BLA BLA BLA BLA BLA BLA BLA BLA BLA BLA BLA BLA BLA BLA BLA BLA BLA 
BLA BLA BLA BLA BLA BLA BLA BLA BLA BLA BLA BLA BLA BLA BLA BLA BLA BLA BLA BLA 
BLA BLA BLA BLA BLA BLA BLA BLA BLA BLA BLA BLA BLA BLA BLA BLA BLA BLA BLA BLA 
BLA BLA BLA BLA BLA BLA BLA BLA BLA BLA BLA BLA BLA BLA BLA BLA BLA BLA BLA BLA 
BLA BLA BLA BLA BLA BLA BLA BLA BLA BLA BLA BLA BLA BLA BLA BLA BLA BLA BLA BLA 
BLA BLA BLA BLA BLA BLA BLA BLA BLA BLA BLA BLA BLA BLA BLA BLA BLA BLA BLA BLA 
BLA BLA BLA BLA BLA BLA BLA BLA BLA BLA BLA BLA BLA BLA BLA BLA BLA BLA BLA BLA 
BLA BLA BLA BLA BLA BLA BLA BLA BLA BLA BLA BLA BLA BLA BLA BLA BLA BLA BLA BLA 
BLA BLA BLA BLA BLA BLA BLA BLA BLA BLA BLA BLA BLA BLA BLA BLA BLA BLA BLA BLA 
BLA BLA BLA BLA BLA BLA BLA BLA BLA BLA BLA BLA BLA BLA BLA BLA BLA BLA BLA BLA 
BLA BLA BLA BLA BLA BLA BLA BLA BLA BLA BLA BLA BLA BLA BLA BLA BLA BLA BLA BLA 
BLA BLA BLA BLA BLA BLA BLA BLA BLA BLA BLA BLA BLA BLA BLA BLA BLA BLA BLA BLA 
BLA BLA BLA BLA BLA BLA BLA BLA BLA BLA BLA BLA BLA BLA BLA BLA BLA BLA BLA BLA 
BLA BLA BLA BLA BLA BLA BLA BLA BLA BLA BLA BLA BLA BLA BLA BLA BLA BLA BLA BLA 
BLA BLA BLA BLA BLA BLA BLA BLA BLA BLA BLA BLA BLA BLA BLA BLA BLA BLA BLA BLA 
BLA BLA BLA BLA BLA BLA BLA BLA BLA BLA BLA BLA BLA BLA BLA BLA BLA BLA BLA BLA 
BLA BLA BLA BLA BLA BLA BLA BLA BLA BLA BLA BLA BLA BLA BLA BLA BLA BLA BLA BLA 
BLA BLA BLA BLA BLA BLA BLA BLA BLA BLA BLA BLA BLA BLA BLA BLA BLA BLA BLA BLA 
BLA BLA BLA BLA BLA BLA BLA BLA BLA BLA BLA BLA BLA BLA BLA BLA BLA BLA BLA BLA 
BLA BLA BLA BLA BLA BLA BLA BLA BLA BLA BLA BLA BLA BLA BLA BLA BLA BLA BLA BLA 
BLA BLA BLA BLA BLA BLA BLA BLA BLA BLA BLA BLA BLA BLA BLA BLA BLA BLA BLA BLA 
BLA BLA BLA BLA BLA BLA BLA BLA BLA BLA BLA BLA BLA BLA BLA BLA BLA BLA BLA BLA 
BLA BLA BLA BLA BLA BLA BLA BLA BLA BLA BLA BLA BLA BLA BLA BLA BLA BLA BLA BLA 
BLA BLA BLA BLA BLA BLA BLA BLA BLA BLA BLA BLA BLA BLA BLA BLA BLA BLA BLA BLA 
BLA BLA BLA BLA BLA BLA BLA BLA BLA BLA BLA BLA BLA BLA BLA BLA BLA BLA BLA BLA 
BLA BLA BLA BLA BLA BLA BLA BLA BLA BLA BLA BLA BLA BLA BLA BLA BLA BLA BLA BLA 
BLA BLA BLA BLA BLA BLA BLA BLA BLA BLA BLA BLA BLA BLA BLA BLA BLA BLA BLA BLA 
BLA BLA BLA BLA BLA BLA BLA BLA BLA BLA BLA BLA BLA BLA BLA BLA BLA BLA BLA BLA 
BLA BLA BLA BLA BLA BLA BLA BLA BLA BLA BLA BLA BLA BLA BLA BLA BLA BLA BLA BLA 
BLA BLA BLA BLA BLA BLA BLA BLA BLA BLA BLA BLA BLA BLA BLA BLA BLA BLA BLA BLA 
BLA BLA BLA BLA BLA BLA BLA BLA BLA BLA BLA BLA BLA BLA BLA BLA BLA BLA BLA BLA 
BLA BLA BLA BLA BLA BLA 
%FLAG JOIN_ARRAY                                                                
%FORMAT(10I8)                                                                   
       0       0       0       0       0       0       0       0       0       0
       0       0       0       0       0       0       0       0       0       0
       0       0       0       0       0       0       0       0       0       0
       0       0       0       0       0       0       0       0       0       0
       0       0       0       0       0       0       0       0       0       0
       0       0       0       0       0       0       0       0       0       0
       0       0       0       0       0       0       0       0       0       0
       0       0       0       0       0       0       0       0       0       0
       0       0       0       0       0       0       0       0       0       0
       0       0       0       0       0       0       0       0       0       0
       0       0       0       0       0       0       0       0       0       0
       0       0       0       0       0       0       0       0       0       0
       0       0       0       0       0       0       0       0       0       0
       0       0       0       0       0       0       0       0       0       0
       0       0       0       0       0       0       0       0       0       0
       0       0       0       0       0       0       0       0       0       0
       0       0       0       0       0       0       0       0       0       0
       0       0       0       0       0       0       0       0       0       0
       0       0       0       0       0       0       0       0       0       0
       0       0       0       0       0       0       0       0       0       0
       0       0       0       0       0       0       0       0       0       0
       0       0       0       0       0       0       0       0       0       0
       0       0       0       0       0       0       0       0       0       0
       0       0       0       0       0       0       0       0       0       0
       0       0       0       0       0       0       0       0       0       0
       0       0       0       0       0       0       0       0       0       0
       0       0       0       0       0       0       0       0       0       0
       0       0       0       0       0       0       0       0       0       0
       0       0       0       0       0       0       0       0       0       0
       0       0       0       0       0       0       0       0       0       0
       0       0       0       0       0       0       0       0       0       0
       0       0       0       0       0       0       0       0       0       0
       0       0       0       0       0       0       0       0       0       0
       0       0       0       0       0       0       0       0       0       0
       0       0       0       0       0       0       0       0       0       0
       0       0       0       0       0       0       0       0       0       0
       0       0       0       0       0       0       0       0       0       0
       0       0       0       0       0       0       0       0       0       0
       0       0       0       0       0       0       0       0       0       0
       0       0       0       0       0       0       0       0       0       0
       0       0       0       0       0       0       0       0       0       0
       0       0       0       0       0       0       0       0       0       0
       0       0       0       0       0       0       0       0       0       0
       0       0       0       0       0       0       0       0       0       0
       0       0       0       0       0       0       0       0       0       0
       0       0       0       0       0       0       0       0       0       0
       0       0       0       0       0       0       0       0       0       0
       0       0       0       0       0       0       0       0       0       0
       0       0       0       0       0       0       0       0       0       0
       0       0       0       0       0       0       0       0       0       0
       0       0       0       0       0       0       0       0       0       0
       0       0       0       0       0       0       0       0       0       0
       0       0       0       0       0       0       0       0       0       0
       0       0       0       0       0       0       0       0       0       0
       0       0       0       0       0       0       0       0       0       0
       0       0       0       0       0       0       0       0       0       0
       0       0       0       0       0       0       0       0       0       0
       0       0       0       0       0       0       0       0       0       0
       0       0       0       0       0       0       0       0       0       0
       0       0       0       0       0       0       0       0       0       0
       0       0       0       0       0       0       0       0       0       0
       0       0       0       0       0       0       0       0       0       0
       0       0       0       0       0       0       0       0       0       0
       0       0       0       0       0       0       0       0       0       0
       0       0       0       0       0       0       0       0       0       0
       0       0       0       0       0       0       0       0       0       0
       0       0       0       0       0       0       0       0       0       0
       0       0       0       0       0       0       0       0       0       0
       0       0       0       0       0       0       0       0       0       0
       0       0       0       0       0       0       0       0       0       0
       0       0       0       0       0       0       0       0       0       0
       0       0       0       0       0       0       0       0       0       0
       0       0       0       0       0       0       0       0       0       0
       0       0       0       0       0       0       0       0       0       0
       0       0       0       0       0       0       0       0       0       0
       0       0       0       0       0       0       0       0       0       0
       0       0       0       0       0       0       0       0       0       0
       0       0       0       0       0       0       0       0       0       0
       0       0       0       0       0       0       0       0       0       0
       0       0       0       0       0       0       0       0       0       0
       0       0       0       0       0       0       0       0       0       0
       0       0       0       0       0       0       0       0       0       0
       0       0       0       0       0       0       0       0       0       0
       0       0       0       0       0       0       0       0       0       0
       0       0       0       0       0       0       0       0       0       0
       0       0       0       0       0       0       0       0       0       0
       0       0       0       0       0       0       0       0       0       0
       0       0       0       0       0       0       0       0       0       0
       0       0       0       0       0       0       0       0       0       0
       0       0       0       0       0       0       0       0       0       0
       0       0       0       0       0       0       0       0       0       0
       0       0       0       0       0       0       0       0       0       0
       0       0       0       0       0       0       0       0       0       0
       0       0       0       0       0       0       0       0       0       0
       0       0       0       0       0       0       0       0       0       0
       0       0       0       0       0       0       0       0       0       0
       0       0       0       0       0       0       0       0       0       0
       0       0       0       0       0       0       0       0       0       0
       0       0       0       0       0       0       0       0       0       0
       0       0       0       0       0       0       0       0       0       0
       0       0       0       0       0       0       0       0       0       0
       0       0       0       0       0       0       0       0       0       0
       0       0       0       0       0       0       0       0       0       0
       0       0       0       0       0       0       0       0       0       0
       0       0       0       0       0       0       0       0       0       0
       0       0       0       0       0       0       0       0       0       0
       0       0       0       0       0       0       0       0       0       0
       0       0       0       0       0       0       0       0       0       0
       0       0       0       0       0       0       0       0       0       0
       0       0       0       0       0       0       0       0       0       0
       0       0       0       0       0       0       0       0       0       0
       0       0       0       0       0       0       0       0       0       0
       0       0       0       0       0       0       0       0       0       0
       0       0       0       0       0       0       0       0       0       0
       0       0       0       0       0       0       0       0       0       0
       0       0       0       0       0       0       0       0       0       0
       0       0       0       0       0       0       0       0       0       0
       0       0       0       0       0       0       0       0       0       0
       0       0       0       0       0       0       0       0       0       0
       0       0       0       0       0       0       0       0       0       0
       0       0       0       0       0       0       0       0       0       0
       0       0       0       0       0       0       0       0       0       0
       0       0       0       0       0       0       0       0       0       0
       0       0       0       0       0       0       0       0       0       0
       0       0       0       0       0       0       0       0       0       0
       0       0       0       0       0       0       0       0       0       0
       0       0       0       0       0       0       0       0       0       0
       0       0       0       0       0       0       0       0       0       0
       0       0       0       0       0       0       0       0       0       0
       0       0       0       0       0       0       0       0       0       0
       0       0       0       0       0       0       0       0       0       0
       0       0       0       0       0       0       0       0       0       0
       0       0       0       0       0       0       0       0       0       0
       0       0       0       0       0       0       0       0       0       0
       0       0       0       0       0       0       0       0       0       0
       0       0       0       0       0       0       0       0       0       0
       0       0       0       0       0       0       0       0       0       0
       0       0       0       0       0       0       0       0       0       0
       0       0       0       0       0       0       0       0       0       0
       0       0       0       0       0       0       0       0       0       0
       0       0       0       0       0       0       0       0       0       0
       0       0       0       0       0       0       0       0       0       0
       0       0       0       0       0       0       0       0       0       0
       0       0       0       0       0       0       0       0       0       0
       0       0       0       0       0       0       0       0       0       0
       0       0       0       0       0       0       0       0       0       0
       0       0       0       0       0       0       0       0       0       0
       0       0       0       0       0       0       0       0       0       0
       0       0       0       0       0       0       0       0       0       0
       0       0       0       0       0       0       0       0       0       0
       0       0       0       0       0       0       0       0       0       0
       0       0       0       0       0       0       0       0       0       0
       0       0       0       0       0       0       0       0       0       0
       0       0       0       0       0       0       0       0       0       0
       0       0       0       0       0       0       0       0       0       0
       0       0       0       0       0       0       0       0       0       0
       0       0       0       0       0       0       0       0       0       0
       0       0       0       0       0       0       0       0       0       0
       0       0       0       0       0       0       0       0       0       0
       0       0       0       0       0       0       0       0       0       0
       0       0       0       0       0       0       0       0       0       0
       0       0       0       0       0       0       0       0       0       0
       0       0       0       0       0       0       0       0       0       0
       0       0       0       0       0       0       0       0       0       0
       0       0       0       0       0       0       0       0       0       0
       0       0       0       0       0       0       0       0       0       0
       0       0       0       0       0       0       0       0       0       0
       0       0       0       0       0       0       0       0       0       0
       0       0       0       0       0       0       0       0       0       0
       0       0       0       0       0       0       0       0       0       0
       0       0       0       0       0       0       0       0       0       0
       0       0       0       0       0       0       0       0       0       0
       0       0       0       0       0       0       0       0       0       0
       0       0       0       0       0       0       0       0       0       0
       0       0       0       0       0       0       0       0       0       0
       0       0       0       0       0       0       0       0       0       0
       0       0       0       0       0       0       0       0       0       0
       0       0       0       0       0       0       0       0       0       0
       0       0       0       0       0       0       0       0       0       0
       0       0       0       0       0       0       0       0       0       0
       0       0       0       0       0       0       0       0       0       0
       0       0       0       0       0       0       0       0       0       0
       0       0       0       0       0       0       0       0       0       0
       0       0       0       0       0       0       0       0       0       0
       0       0       0       0       0       0       0       0       0       0
       0       0       0       0       0       0       0       0       0       0
       0       0       0       0       0       0       0       0       0       0
       0       0       0       0       0       0       0       0       0       0
       0       0       0       0       0       0       0       0       0       0
       0       0       0       0       0       0       0       0       0       0
       0       0       0       0       0       0       0       0       0       0
       0       0       0       0       0       0       0       0       0       0
       0       0       0       0       0       0       0       0       0       0
       0       0       0       0       0       0       0       0       0       0
       0       0       0       0       0       0       0       0       0       0
       0       0       0       0       0       0       0       0       0       0
       0       0       0       0       0       0       0       0       0       0
       0       0       0       0       0       0       0       0       0       0
       0       0       0       0       0       0       0       0       0       0
       0       0       0       0       0       0       0       0       0       0
       0       0       0       0       0       0       0       0       0       0
       0       0       0       0       0       0       0       0       0       0
       0       0       0       0       0       0       0       0       0       0
       0       0       0       0       0       0       0       0       0       0
       0       0       0       0       0       0       0       0       0       0
       0       0       0       0       0       0       0       0       0       0
       0       0       0       0       0       0       0       0       0       0
       0       0       0       0       0       0       0       0       0       0
       0       0       0       0       0       0       0       0       0       0
       0       0       0       0       0       0       0       0       0       0
       0       0       0       0       0       0       0       0       0       0
       0       0       0       0       0       0       0       0       0       0
       0       0       0       0       0       0       0       0       0       0
       0       0       0       0       0       0       0       0       0       0
       0       0       0       0       0       0       0       0       0       0
       0       0       0       0       0       0       0       0       0       0
       0       0       0       0       0       0       0       0       0       0
       0       0       0       0       0       0       0       0       0       0
       0       0       0       0       0       0       0       0       0       0
       0       0       0       0       0       0       0       0       0       0
       0       0       0       0       0       0       0       0       0       0
       0       0       0       0       0       0       0       0       0       0
       0       0       0       0       0       0       0       0       0       0
       0       0       0       0       0       0       0       0       0       0
       0       0       0       0       0       0       0       0       0       0
       0       0       0       0       0       0       0       0       0       0
       0       0       0       0       0       0       0       0       0       0
       0       0       0       0       0       0       0       0       0       0
       0       0       0       0       0       0       0       0       0       0
       0       0       0       0       0       0       0       0       0       0
       0       0       0       0       0       0       0       0       0       0
       0       0       0       0       0       0       0       0       0       0
       0       0       0       0       0       0       0       0       0       0
       0       0       0       0       0       0       0       0       0       0
       0       0       0       0       0       0       0       0       0       0
       0       0       0       0       0       0       0       0       0       0
       0       0       0       0       0       0       0       0       0       0
       0       0       0       0       0       0       0       0       0       0
       0       0       0       0       0       0       0       0       0       0
       0       0       0       0       0       0       0       0       0       0
       0       0       0       0       0       0       0       0       0       0
       0       0       0       0       0       0       0       0       0       0
       0       0       0       0       0       0       0       0       0       0
       0       0       0       0       0       0       0       0       0       0
       0       0       0       0       0       0       0       0       0       0
       0       0       0       0       0       0       0       0       0       0
       0       0       0       0       0       0       0       0       0       0
       0       0       0       0       0       0       0       0       0       0
       0       0       0       0       0       0       0       0       0       0
       0       0       0       0       0       0       0       0       0       0
       0       0       0       0       0       0       0       0       0       0
       0       0       0       0       0       0       0       0       0       0
       0       0       0       0       0       0       0       0       0       0
       0       0       0       0       0       0       0       0       0       0
       0       0       0       0       0       0       0       0       0       0
       0       0       0       0       0       0       0       0       0       0
       0       0       0       0       0       0       0       0       0       0
       0       0       0       0       0       0       0       0       0       0
       0       0       0       0       0       0       0       0       0       0
       0       0       0       0       0       0       0       0       0       0
       0       0       0       0       0       0       0       0       0       0
       0       0       0       0       0       0       0       0       0       0
       0       0       0       0       0       0       0       0       0       0
       0       0       0       0       0       0       0       0       0       0
       0       0       0       0       0       0       0       0       0       0
       0       0       0       0       0       0       0       0       0       0
       0       0       0       0       0       0       0       0       0       0
       0       0       0       0       0       0       0       0       0       0
       0       0       0       0       0       0       0       0       0       0
       0       0       0       0       0       0       0       0       0       0
       0       0       0       0       0       0       0       0       0       0
       0       0       0       0       0       0       0       0       0       0
       0       0       0       0       0       0       0       0       0       0
       0       0       0       0       0       0       0       0       0       0
       0       0       0       0       0       0       0       0       0       0
       0       0       0       0       0       0       0       0       0       0
       0       0       0       0       0       0       0       0       0       0
       0       0       0       0       0       0       0       0       0       0
       0       0       0       0       0       0       0       0       0       0
       0       0       0       0       0       0       0       0       0       0
       0       0       0       0       0       0       0       0       0       0
       0       0       0       0       0       0       0       0       0       0
       0       0       0       0       0       0       0       0       0       0
       0       0       0       0       0       0       0       0       0       0
       0       0       0       0       0       0       0       0       0       0
       0       0       0       0       0       0       0       0       0       0
       0       0       0       0       0       0       0       0       0       0
       0       0       0       0       0       0       0       0       0       0
       0       0       0       0       0       0       0       0       0       0
       0       0       0       0       0       0       0       0       0       0
       0       0       0       0       0       0       0       0       0       0
       0       0       0       0       0       0       0       0       0       0
       0       0       0       0       0       0       0       0       0       0
       0       0       0       0       0       0       0       0       0       0
       0       0       0       0       0       0       0       0       0       0
       0       0       0       0       0       0       0       0       0       0
       0       0       0       0       0       0       0       0       0       0
       0       0       0       0       0       0       0       0       0       0
       0       0       0       0       0       0       0       0       0       0
       0       0       0       0       0       0       0       0       0       0
       0       0       0       0       0       0       0       0       0       0
       0       0       0       0       0       0       0       0       0       0
       0       0       0       0       0       0       0       0       0       0
       0       0       0       0       0       0       0       0       0       0
       0       0       0       0       0       0       0       0       0       0
       0       0       0       0       0       0       0       0       0       0
       0       0       0       0       0       0       0       0       0       0
       0       0       0       0       0       0       0       0       0       0
       0       0       0       0       0       0       0       0       0       0
       0       0       0       0       0       0       0       0       0       0
       0       0       0       0       0       0       0       0       0       0
       0       0       0       0       0       0       0       0       0       0
       0       0       0       0       0       0       0       0       0       0
       0       0       0       0       0       0       0       0       0       0
       0       0       0       0       0       0       0       0       0       0
       0       0       0       0       0       0       0       0       0       0
       0       0       0       0       0       0       0       0       0       0
       0       0       0       0       0       0       0       0       0       0
       0       0       0       0       0       0       0       0       0       0
       0       0       0       0       0       0       0       0       0       0
       0       0       0       0       0       0       0       0       0       0
       0       0       0       0       0       0       0       0       0       0
       0       0       0       0       0       0       0       0       0       0
       0       0       0       0       0       0       0       0       0       0
       0       0       0       0       0       0       0       0       0       0
       0       0       0       0       0       0       0       0       0       0
       0       0       0       0       0       0       0       0       0       0
       0       0       0       0       0       0       0       0       0       0
       0       0       0       0       0       0       0       0       0       0
       0       0       0       0       0       0       0       0       0       0
       0       0       0       0       0       0       0       0       0       0
       0       0       0       0       0       0       0       0       0       0
       0       0       0       0       0       0       0       0       0       0
       0       0       0       0       0       0       0       0       0       0
       0       0       0       0       0       0       0       0       0       0
       0       0       0       0       0       0       0       0       0       0
       0       0       0       0       0       0       0       0       0       0
       0       0       0       0       0       0       0       0       0       0
       0       0       0       0       0       0       0       0       0       0
       0       0       0       0       0       0       0       0       0       0
       0       0       0       0       0       0       0       0       0       0
       0       0       0       0       0       0       0       0       0       0
       0       0       0       0       0       0       0       0       0       0
       0       0       0       0       0       0       0       0       0       0
       0       0       0       0       0       0       0       0       0       0
       0       0       0       0       0       0       0       0       0       0
       0       0       0       0       0       0       0       0       0       0
       0       0       0       0       0       0       0       0       0       0
       0       0       0       0       0       0       0       0       0       0
       0       0       0       0       0       0       0       0       0       0
       0       0       0       0       0       0       0       0       0       0
       0       0       0       0       0       0       0       0       0       0
       0       0       0       0       0       0       0       0       0       0
       0       0       0       0       0       0       0       0       0       0
       0       0       0       0       0       0       0       0       0       0
       0       0       0       0       0       0       0       0       0       0
       0       0       0       0       0       0       0       0       0       0
       0       0       0       0       0       0       0       0       0       0
       0       0       0       0       0       0       0       0       0       0
       0       0       0       0       0       0       0       0       0       0
       0       0       0       0       0       0       0       0       0       0
       0       0       0       0       0       0       0       0       0       0
       0       0       0       0       0       0       0       0       0       0
       0       0       0       0       0       0       0       0       0       0
       0       0       0       0       0       0       0       0       0       0
       0       0       0       0       0       0       0       0       0       0
       0       0       0       0       0       0       0       0       0       0
       0       0       0       0       0       0       0       0       0       0
       0       0       0       0       0       0       0       0       0       0
       0       0       0       0       0       0       0       0       0       0
       0       0       0       0       0       0       0       0       0       0
       0       0       0       0       0       0       0       0       0       0
       0       0       0       0       0       0       0       0       0       0
       0       0       0       0       0       0       0       0       0       0
       0       0       0       0       0       0       0       0       0       0
       0       0       0       0       0       0       0       0       0       0
       0       0       0       0       0       0       0       0       0       0
       0       0       0       0       0       0       0       0       0       0
       0       0       0       0       0       0       0       0       0       0
       0       0       0       0       0       0       0       0       0       0
       0       0       0       0       0       0       0       0       0       0
       0       0       0       0       0       0       0       0       0       0
       0       0       0       0       0       0       0       0       0       0
       0       0       0       0       0       0       0       0       0       0
       0       0       0       0       0       0       0       0       0       0
       0       0       0       0       0       0       0       0       0       0
       0       0       0       0       0       0       0       0       0       0
       0       0       0       0       0       0       0       0       0       0
       0       0       0       0       0       0       0       0       0       0
       0       0       0       0       0       0       0       0       0       0
       0       0       0       0       0       0       0       0       0       0
       0       0       0       0       0       0       0       0       0       0
       0       0       0       0       0       0       0       0       0       0
       0       0       0       0       0       0       0       0       0       0
       0       0       0       0       0       0       0       0       0       0
       0       0       0       0       0       0       0       0       0       0
       0       0       0       0       0       0       0       0       0       0
       0       0       0       0       0       0       0       0       0       0
       0       0       0       0       0       0       0       0       0       0
       0       0       0       0       0       0       0       0       0       0
       0       0       0       0       0       0       0       0       0       0
       0       0       0       0       0       0       0       0       0       0
       0       0       0       0       0       0       0       0       0       0
       0       0       0       0       0       0       0       0       0       0
       0       0       0       0       0       0       0       0       0       0
       0       0       0       0       0       0       0       0       0       0
       0       0       0       0       0       0       0       0       0       0
       0       0       0       0       0       0       0       0       0       0
       0       0       0       0       0       0       0       0       0       0
       0       0       0       0       0       0       0       0       0       0
       0       0       0       0       0       0       0       0       0       0
       0       0       0       0       0       0       0       0       0       0
       0       0       0       0       0       0       0       0       0       0
       0       0       0       0       0       0       0       0       0       0
       0       0       0       0       0       0       0       0       0       0
       0       0       0       0       0       0       0       0       0       0
       0       0       0       0       0       0       0       0       0       0
       0       0       0       0       0       0       0       0       0       0
       0       0       0       0       0       0       0       0       0       0
       0       0       0       0       0       0       0       0       0       0
       0       0       0       0       0       0       0       0       0       0
       0       0       0       0       0       0       0       0       0       0
       0       0       0       0       0       0       0       0       0       0
       0       0       0       0       0       0       0       0       0       0
       0       0       0       0       0       0       0       0       0       0
       0       0       0       0       0       0       0       0       0       0
       0       0       0       0       0       0       0       0       0       0
       0       0       0       0       0       0       0       0       0       0
       0       0       0       0       0       0       0       0       0       0
       0       0       0       0       0       0       0       0       0       0
       0       0       0       0       0       0       0       0       0       0
       0       0       0       0       0       0       0       0       0       0
       0       0       0       0       0       0       0       0       0       0
       0       0       0       0       0       0       0       0       0       0
       0       0       0       0       0       0       0       0       0       0
       0       0       0       0       0       0       0       0       0       0
       0       0       0       0       0       0       0       0       0       0
       0       0       0       0       0       0       0       0       0       0
       0       0       0       0       0       0       0       0       0       0
       0       0       0       0       0       0       0       0       0       0
       0       0       0       0       0       0       0       0       0       0
       0       0       0       0       0       0       0       0       0       0
       0       0       0       0       0       0       0       0       0       0
       0       0       0       0       0       0       0       0       0       0
       0       0       0       0       0       0       0       0       0       0
       0       0       0       0       0       0       0       0       0       0
       0       0       0       0       0       0       0       0       0       0
       0       0       0       0       0       0       0       0       0       0
       0       0       0       0       0       0       0       0       0       0
       0       0       0       0       0       0       0       0       0       0
       0       0       0       0       0       0       0       0       0       0
       0       0       0       0       0       0       0       0       0       0
       0       0       0       0       0       0       0       0       0       0
       0       0       0       0       0       0       0       0       0       0
       0       0       0       0       0       0       0       0       0       0
       0       0       0       0       0       0       0       0       0       0
       0       0       0       0       0       0       0       0       0       0
       0       0       0       0       0       0       0       0       0       0
       0       0       0       0       0       0       0       0       0       0
       0       0       0       0       0       0       0       0       0       0
       0       0       0       0       0       0       0       0       0       0
       0       0       0       0       0       0       0       0       0       0
       0       0       0       0       0       0       0       0       0       0
       0       0       0       0       0       0       0       0       0       0
       0       0       0       0       0       0       0       0       0       0
       0       0       0       0       0       0       0       0       0       0
       0       0       0       0       0       0       0       0       0       0
       0       0       0       0       0       0       0       0       0       0
       0       0       0       0       0       0       0       0       0       0
       0       0       0       0       0       0       0       0       0       0
       0       0       0       0       0       0       0       0       0       0
       0       0       0       0       0       0       0       0       0       0
       0       0       0       0       0       0       0       0       0       0
       0       0       0       0       0       0       0       0       0       0
       0       0       0       0       0       0       0       0       0       0
       0       0       0       0       0       0       0       0       0       0
       0       0       0       0       0       0       0       0       0       0
       0       0       0       0       0       0       0       0       0       0
       0       0       0       0       0       0       0       0       0       0
       0       0       0       0       0       0       0       0       0       0
       0       0       0       0       0       0       0       0       0       0
       0       0       0       0       0       0       0       0       0       0
       0       0       0       0       0       0       0       0       0       0
       0       0       0       0       0       0       0       0       0       0
       0       0       0       0       0       0       0       0       0       0
       0       0       0       0       0       0       0       0       0       0
       0       0       0       0       0       0       0       0       0       0
       0       0       0       0       0       0       0       0       0       0
       0       0       0       0       0       0       0       0       0       0
       0       0       0       0       0       0       0       0       0       0
       0       0       0       0       0       0       0       0       0       0
       0       0       0       0       0       0       0       0       0       0
       0       0       0       0       0       0       0       0       0       0
       0       0       0       0       0       0       0       0       0       0
       0       0       0       0       0       0       0       0       0       0
       0       0       0       0       0       0       0       0       0       0
       0       0       0       0       0       0       0       0       0       0
       0       0       0       0       0       0       0       0       0       0
       0       0       0       0       0       0       0       0       0       0
       0       0       0       0       0       0       0       0       0       0
       0       0       0       0       0       0       0       0       0       0
       0       0       0       0       0       0       0       0       0       0
       0       0       0       0       0       0       0       0       0       0
       0       0       0       0       0       0       0       0       0       0
       0       0       0       0       0       0       0       0       0       0
       0       0       0       0       0       0       0       0       0       0
       0       0       0       0       0       0       0       0       0       0
       0       0       0       0       0       0       0       0       0       0
       0       0       0       0       0       0       0       0       0       0
       0       0       0       0       0       0       0       0       0       0
       0       0       0       0       0       0       0       0       0       0
       0       0       0       0       0       0       0       0       0       0
       0       0       0       0       0       0       0       0       0       0
       0       0       0       0       0       0       0       0       0       0
       0       0       0       0       0       0       0       0       0       0
       0       0       0       0       0       0       0       0       0       0
       0       0       0       0       0       0       0       0       0       0
       0       0       0       0       0       0       0       0       0       0
       0       0       0       0       0       0       0       0       0       0
       0       0       0       0       0       0       0       0       0       0
       0       0       0       0       0       0       0       0       0       0
       0       0       0       0       0       0       0       0       0       0
       0       0       0       0       0       0       0       0       0       0
       0       0       0       0       0       0       0       0       0       0
       0       0       0       0       0       0       0       0       0       0
       0       0       0       0       0       0       0       0       0       0
       0       0       0       0       0       0       0       0       0       0
       0       0       0       0       0       0       0       0       0       0
       0       0       0       0       0       0       0       0       0       0
       0       0       0       0       0       0       0       0       0       0
       0       0       0       0       0       0       0       0       0       0
       0       0       0       0       0       0       0       0       0       0
       0       0       0       0       0       0       0       0       0       0
       0       0       0       0       0       0       0       0       0       0
       0       0       0       0       0       0       0       0       0       0
       0       0       0       0       0       0       0       0       0       0
       0       0       0       0       0       0       0       0       0       0
       0       0       0       0       0       0       0       0       0       0
       0       0       0       0       0       0       0       0       0       0
       0       0       0       0       0       0       0       0       0       0
       0       0       0       0       0       0       0       0       0       0
       0       0       0       0       0       0       0       0       0       0
       0       0       0       0       0       0       0       0       0       0
       0       0       0       0       0       0       0       0       0       0
       0       0       0       0       0       0       0       0       0       0
       0       0       0       0       0       0       0       0       0       0
       0       0       0       0       0       0       0       0       0       0
       0       0       0       0       0       0       0       0       0       0
       0       0       0       0       0       0       0       0       0       0
       0       0       0       0       0       0       0       0       0       0
       0       0       0       0       0       0       0       0       0       0
       0       0       0       0       0       0       0       0       0       0
       0       0       0       0       0       0       0       0       0       0
       0       0       0       0       0       0       0       0       0       0
       0       0       0       0       0       0       0       0       0       0
       0       0       0       0       0       0       0       0       0       0
       0       0       0       0       0       0       0       0       0       0
       0       0       0       0       0       0       0       0       0       0
       0       0       0       0       0       0       0       0       0       0
       0       0       0       0       0       0       0       0       0       0
       0       0       0       0       0       0       0       0       0       0
       0       0       0       0       0       0       0       0       0       0
       0       0       0       0       0       0       0       0       0       0
       0       0       0       0       0       0       0       0       0       0
       0       0       0       0       0       0       0       0       0       0
       0       0       0       0       0       0       0       0       0       0
       0       0       0       0       0       0       0       0       0       0
       0       0       0       0       0       0       0       0       0       0
       0       0       0       0       0       0       0       0       0       0
       0       0       0       0       0       0       0       0       0       0
       0       0       0       0       0       0       0       0       0       0
       0       0       0       0       0       0       0       0       0       0
       0       0       0       0       0       0       0       0       0       0
       0       0       0       0       0       0       0       0       0       0
       0       0       0       0       0       0       0       0       0       0
       0       0       0       0       0       0       0       0       0       0
       0       0       0       0       0       0       0       0       0       0
       0       0       0       0       0       0       0       0       0       0
       0       0       0       0       0       0       0       0       0       0
       0       0       0       0       0       0       0       0       0       0
       0       0       0       0       0       0       0       0       0       0
       0       0       0       0       0       0       0       0       0       0
       0       0       0       0       0       0       0       0       0       0
       0       0       0       0       0       0       0       0       0       0
       0       0       0       0       0       0       0       0       0       0
       0       0       0       0       0       0       0       0       0       0
       0       0       0       0       0       0       0       0       0       0
       0       0       0       0       0       0       0       0       0       0
       0       0       0       0       0       0       0       0       0       0
       0       0       0       0       0       0       0       0       0       0
       0       0       0       0       0       0       0       0       0       0
       0       0       0       0       0       0       0       0       0       0
       0       0       0       0       0       0       0       0       0       0
       0       0       0       0       0       0       0       0       0       0
       0       0       0       0       0       0       0       0       0       0
       0       0       0       0       0       0       0       0       0       0
       0       0       0       0       0       0       0       0       0       0
       0       0       0       0       0       0       0       0       0       0
       0       0       0       0       0       0       0       0       0       0
       0       0       0       0       0       0       0       0       0       0
       0       0       0       0       0       0       0       0       0       0
       0       0       0       0       0       0       0       0       0       0
       0       0       0       0       0       0       0       0       0       0
       0       0       0       0       0       0       0       0       0       0
       0       0       0       0       0       0       0       0       0       0
       0       0       0       0       0       0       0       0       0       0
       0       0       0       0       0       0       0       0       0       0
       0       0       0       0       0       0       0       0       0       0
       0       0       0       0       0       0       0       0       0       0
       0       0       0       0       0       0       0       0       0       0
       0       0       0       0       0       0       0       0       0       0
       0       0       0       0       0       0       0       0       0       0
       0       0       0       0       0       0       0       0       0       0
       0       0       0       0       0       0       0       0       0       0
       0       0       0       0       0       0       0       0       0       0
       0       0       0       0       0       0       0       0       0       0
       0       0       0       0       0       0       0       0       0       0
       0       0       0       0       0       0       0       0       0       0
       0       0       0       0       0       0       0       0       0       0
       0       0       0       0       0       0       0       0       0       0
       0       0       0       0       0       0       0       0       0       0
       0       0       0       0       0       0       0       0       0       0
       0       0       0       0       0       0       0       0       0       0
       0       0       0       0       0       0       0       0       0       0
       0       0       0       0       0       0       0       0       0       0
       0       0       0       0       0       0       0       0       0       0
       0       0       0       0       0       0       0       0       0       0
       0       0       0       0       0       0       0       0       0       0
       0       0       0       0       0       0       0       0       0       0
       0       0       0       0       0       0       0       0       0       0
       0       0       0       0       0       0       0       0       0       0
       0       0       0       0       0       0       0       0       0       0
       0       0       0       0       0       0       0       0       0       0
       0       0       0       0       0       0       0       0       0       0
       0       0       0       0       0       0       0       0       0       0
       0       0       0       0       0       0       0       0       0       0
       0       0       0       0       0       0       0       0       0       0
       0       0       0       0       0       0       0       0       0       0
       0       0       0       0       0       0       0       0       0       0
       0       0       0       0       0       0       0       0       0       0
       0       0       0       0       0       0       0       0       0       0
       0       0       0       0       0       0       0       0       0       0
       0       0       0       0       0       0       0       0       0       0
       0       0       0       0       0       0       0       0       0       0
       0       0       0       0       0       0       0       0       0       0
       0       0       0       0       0       0       0       0       0       0
       0       0       0       0       0       0       0       0       0       0
       0       0       0       0       0       0       0       0       0       0
       0       0       0       0       0       0       0       0       0       0
       0       0       0       0       0       0       0       0       0       0
       0       0       0       0       0       0       0       0       0       0
       0       0       0       0       0       0       0       0       0       0
       0       0       0       0       0       0       0       0       0       0
       0       0       0       0       0       0       0       0       0       0
       0       0       0       0       0       0       0       0       0       0
       0       0       0       0       0       0       0       0       0       0
       0       0       0       0       0       0       0       0       0       0
       0       0       0       0       0       0       0       0       0       0
       0       0       0       0       0       0       0       0       0       0
       0       0       0       0       0       0       0       0       0       0
       0       0       0       0       0       0       0       0       0       0
       0       0       0       0       0       0       0       0       0       0
       0       0       0       0       0       0       0       0       0       0
       0       0       0       0       0       0       0       0       0       0
       0       0       0       0       0       0       0       0       0       0
       0       0       0       0       0       0       0       0       0       0
       0       0       0       0       0       0       0       0       0       0
       0       0       0       0       0       0       0       0       0       0
       0       0       0       0       0       0       0       0       0       0
       0       0       0       0       0       0       0       0       0       0
       0       0       0       0       0       0       0       0       0       0
       0       0       0       0       0       0       0       0       0       0
       0       0       0       0       0       0       0       0       0       0
       0       0       0       0       0       0       0       0       0       0
       0       0       0       0       0       0       0       0       0       0
       0       0       0       0       0       0       0       0       0       0
       0       0       0       0       0       0       0       0       0       0
       0       0       0       0       0       0       0       0       0       0
       0       0       0       0       0       0       0       0       0       0
       0       0       0       0       0       0       0       0       0       0
       0       0       0       0       0       0       0       0       0       0
       0       0       0       0       0       0       0       0       0       0
       0       0       0       0       0       0       0       0       0       0
       0       0       0       0       0       0       0       0       0       0
       0       0       0       0       0       0       0       0       0       0
       0       0       0       0       0       0       0       0       0       0
       0       0       0       0       0       0       0       0       0       0
       0       0       0       0       0       0       0       0       0       0
       0       0       0       0       0       0       0       0       0       0
       0       0       0       0       0       0       0       0       0       0
       0       0       0       0       0       0       0       0       0       0
       0       0       0       0       0       0       0       0       0       0
       0       0       0       0       0       0       0       0       0       0
       0       0       0       0       0       0       0       0       0       0
       0       0       0       0       0       0       0       0       0       0
       0       0       0       0       0       0       0       0       0       0
       0       0       0       0       0       0       0       0       0       0
       0       0       0       0       0       0       0       0       0       0
       0       0       0       0       0       0       0       0       0       0
       0       0       0       0       0       0       0       0       0       0
       0       0       0       0       0       0       0       0       0       0
       0       0       0       0       0       0       0       0       0       0
       0       0       0       0       0       0       0       0       0       0
       0       0       0       0       0       0       0       0       0       0
       0       0       0       0       0       0       0       0       0       0
       0       0       0       0       0       0       0       0       0       0
       0       0       0       0       0       0       0       0       0       0
       0       0       0       0       0       0       0       0       0       0
       0       0       0       0       0       0       0       0       0       0
       0       0       0       0       0       0       0       0       0       0
       0       0       0       0       0       0       0       0       0       0
       0       0       0       0       0       0       0       0       0       0
       0       0       0       0       0       0       0       0       0       0
       0       0       0       0       0       0       0       0       0       0
       0       0       0       0       0       0       0       0       0       0
       0       0       0       0       0       0       0       0       0       0
       0       0       0       0       0       0       0       0       0       0
       0       0       0       0       0       0       0       0       0       0
       0       0       0       0       0       0       0       0       0       0
       0       0       0       0       0       0       0       0       0       0
       0       0       0       0       0       0       0       0       0       0
       0       0       0       0       0       0       0       0       0       0
       0       0       0       0       0       0       0       0       0       0
       0       0       0       0       0       0       0       0       0       0
       0       0       0       0       0       0       0       0       0       0
       0       0       0       0       0       0       0       0       0       0
       0       0       0       0       0       0       0       0       0       0
       0       0       0       0       0       0       0       0       0       0
       0       0       0       0       0       0       0       0       0       0
       0       0       0       0       0       0       0       0       0       0
       0       0       0       0       0       0       0       0       0       0
       0       0       0       0       0       0       0       0       0       0
       0       0       0       0       0       0       0       0       0       0
       0       0       0       0       0       0       0       0       0       0
       0       0       0       0       0       0       0       0       0       0
       0       0       0       0       0       0       0       0       0       0
       0       0       0       0       0       0       0       0       0       0
       0       0       0       0       0       0       0       0       0       0
       0       0       0       0       0       0       0       0       0       0
       0       0       0       0       0       0       0       0       0       0
       0       0       0       0       0       0       0       0       0       0
       0       0       0       0       0       0       0       0       0       0
       0       0       0       0       0       0       0       0       0       0
       0       0       0       0       0       0       0       0       0       0
       0       0       0       0       0       0       0       0       0       0
       0       0       0       0       0       0       0       0       0       0
       0       0       0       0       0       0       0       0       0       0
       0       0       0       0       0       0       0       0       0       0
       0       0       0       0       0       0       0       0       0       0
       0       0       0       0       0       0       0       0       0       0
       0       0       0       0       0       0       0       0       0       0
       0       0       0       0       0       0       0       0       0       0
       0       0       0       0       0       0       0       0       0       0
       0       0       0       0       0       0       0       0       0       0
       0       0       0       0       0       0       0       0       0       0
       0       0       0       0       0       0       0       0       0       0
       0       0       0       0       0       0       0       0       0       0
       0       0       0       0       0       0       0       0       0       0
       0       0       0       0       0       0       0       0       0       0
       0       0       0       0       0       0       0       0       0       0
       0       0       0       0       0       0       0       0       0       0
       0       0       0       0       0       0       0       0       0       0
       0       0       0       0       0       0       0       0       0       0
       0       0       0       0       0       0       0       0       0       0
       0       0       0       0       0       0       0       0       0       0
       0       0       0       0       0       0       0       0       0       0
       0       0       0       0       0       0       0       0       0       0
       0       0       0       0       0       0       0       0       0       0
       0       0       0       0       0       0       0       0       0       0
       0       0       0       0       0       0       0       0       0       0
       0       0       0       0       0       0       0       0       0       0
       0       0       0       0       0       0       0       0       0       0
       0       0       0       0       0       0       0       0       0       0
       0       0       0       0       0       0       0       0       0       0
       0       0       0       0       0       0       0       0       0       0
       0       0       0       0       0       0       0       0       0       0
       0       0       0       0       0       0       0       0       0       0
       0       0       0       0       0       0       0       0       0       0
       0       0       0       0       0       0       0       0       0       0
       0       0       0       0       0       0       0       0       0       0
       0       0       0       0       0       0       0       0       0       0
       0       0       0       0       0       0       0       0       0       0
       0       0       0       0       0       0       0       0       0       0
       0       0       0       0       0       0       0       0       0       0
       0       0       0       0       0       0       0       0       0       0
       0       0       0       0       0       0       0       0       0       0
       0       0       0       0       0       0       0       0       0       0
       0       0       0       0       0       0       0       0       0       0
       0       0       0       0       0       0       0       0       0       0
       0       0       0       0       0       0       0       0       0       0
       0       0       0       0       0       0       0       0       0       0
       0       0       0       0       0       0       0       0       0       0
       0       0       0       0       0       0       0       0       0       0
       0       0       0       0       0       0       0       0       0       0
       0       0       0       0       0       0       0       0       0       0
       0       0       0       0       0       0       0       0       0       0
       0       0       0       0       0       0       0       0       0       0
       0       0       0       0       0       0       0       0       0       0
       0       0       0       0       0       0       0       0       0       0
       0       0       0       0       0       0       0       0       0       0
       0       0       0       0       0       0       0       0       0       0
       0       0       0       0       0       0       0       0       0       0
       0       0       0       0       0       0       0       0       0       0
       0       0       0       0       0       0       0       0       0       0
       0       0       0       0       0       0       0       0       0       0
       0       0       0       0       0       0       0       0       0       0
       0       0       0       0       0       0       0       0       0       0
       0       0       0       0       0       0       0       0       0       0
       0       0       0       0       0       0       0       0       0       0
       0       0       0       0       0       0       0       0       0       0
       0       0       0       0       0       0       0       0       0       0
       0       0       0       0       0       0       0       0       0       0
       0       0       0       0       0       0       0       0       0       0
       0       0       0       0       0       0       0       0       0       0
       0       0       0       0       0       0       0       0       0       0
       0       0       0       0       0       0       0       0       0       0
       0       0       0       0       0       0       0       0       0       0
       0       0       0       0       0       0       0       0       0       0
       0       0       0       0       0       0       0       0       0       0
       0       0       0       0       0       0       0       0       0       0
       0       0       0       0       0       0       0       0       0       0
       0       0       0       0       0       0       0       0       0       0
       0       0       0       0       0       0       0       0       0       0
       0       0       0       0       0       0       0       0       0       0
       0       0       0       0       0       0       0       0       0       0
       0       0       0       0       0       0       0       0       0       0
       0       0       0       0       0       0       0       0       0       0
       0       0       0       0       0       0       0       0       0       0
       0       0       0       0       0       0       0       0       0       0
       0       0       0       0       0       0       0       0       0       0
       0       0       0       0       0       0       0       0       0       0
       0       0       0       0       0       0       0       0       0       0
       0       0       0       0       0       0       0       0       0       0
       0       0       0       0       0       0       0       0       0       0
       0       0       0       0       0       0       0       0       0       0
       0       0       0       0       0       0       0       0       0       0
       0       0       0       0       0       0       0       0       0       0
       0       0       0       0       0       0       0       0       0       0
       0       0       0       0       0       0       0       0       0       0
       0       0       0       0       0       0       0       0       0       0
       0       0       0       0       0       0       0       0       0       0
       0       0       0       0       0       0       0       0       0       0
       0       0       0       0       0       0       0       0       0       0
       0       0       0       0       0       0       0       0       0       0
       0       0       0       0       0       0       0       0       0       0
       0       0       0       0       0       0       0       0       0       0
       0       0       0       0       0       0       0       0       0       0
       0       0       0       0       0       0       0       0       0       0
       0       0       0       0       0       0       0       0       0       0
       0       0       0       0       0       0       0       0       0       0
       0       0       0       0       0       0       0       0       0       0
       0       0       0       0       0       0       0       0       0       0
       0       0       0       0       0       0       0       0       0       0
       0       0       0       0       0       0       0       0       0       0
       0       0       0       0       0       0       0       0       0       0
       0       0       0       0       0       0       0       0       0       0
       0       0       0       0       0       0       0       0       0       0
       0       0       0       0       0       0       0       0       0       0
       0       0       0       0       0       0       0       0       0       0
       0       0       0       0       0       0       0       0       0       0
       0       0       0       0       0       0       0       0       0       0
       0       0       0       0       0       0       0       0       0       0
       0       0       0       0       0       0       0       0       0       0
       0       0       0       0       0       0       0       0       0       0
       0       0       0       0       0       0       0       0       0       0
       0       0       0       0       0       0       0       0       0       0
       0       0       0       0       0       0       0       0       0       0
       0       0       0       0       0       0       0       0       0       0
       0       0       0       0       0       0       0       0       0       0
       0       0       0       0       0       0       0       0       0       0
       0       0       0       0       0       0       0       0       0       0
       0       0       0       0       0       0       0       0       0       0
       0       0       0       0       0       0       0       0       0       0
       0       0       0       0       0       0       0       0       0       0
       0       0       0       0       0       0       0       0       0       0
       0       0       0       0       0       0       0       0       0       0
       0       0       0       0       0       0       0       0       0       0
       0       0       0       0       0       0       0       0       0       0
       0       0       0       0       0       0       0       0       0       0
       0       0       0       0       0       0       0       0       0       0
       0       0       0       0       0       0       0       0       0       0
       0       0       0       0       0       0       0       0       0       0
       0       0       0       0       0       0       0       0       0       0
       0       0       0       0       0       0       0       0       0       0
       0       0       0       0       0       0       0       0       0       0
       0       0       0       0       0       0       0       0       0       0
       0       0       0       0       0       0       0       0       0       0
       0       0       0       0       0       0       0       0       0       0
       0       0       0       0       0       0       0       0       0       0
       0       0       0       0       0       0       0       0       0       0
       0       0       0       0       0       0       0       0       0       0
       0       0       0       0       0       0       0       0       0       0
       0       0       0       0       0       0       0       0       0       0
       0       0       0       0       0       0       0       0       0       0
       0       0       0       0       0       0       0       0       0       0
       0       0       0       0       0       0       0       0       0       0
       0       0       0       0       0       0       0       0       0       0
       0       0       0       0       0       0       0       0       0       0
       0       0       0       0       0       0       0       0       0       0
       0       0       0       0       0       0       0       0       0       0
       0       0       0       0       0       0       0       0       0       0
       0       0       0       0       0       0       0       0       0       0
       0       0       0       0       0       0       0       0       0       0
       0       0       0       0       0       0       0       0       0       0
       0       0       0       0       0       0       0       0       0       0
       0       0       0       0       0       0       0       0       0       0
       0       0       0       0       0       0       0       0       0       0
       0       0       0       0       0       0       0       0       0       0
       0       0       0       0       0       0       0       0       0       0
       0       0       0       0       0       0       0       0       0       0
       0       0       0       0       0       0       0       0       0       0
       0       0       0       0       0       0       0       0       0       0
       0       0       0       0       0       0       0       0       0       0
       0       0       0       0       0       0       0       0       0       0
       0       0       0       0       0       0       0       0       0       0
       0       0       0       0       0       0       0       0       0       0
       0       0       0       0       0       0       0       0       0       0
       0       0       0       0       0       0       0       0       0       0
       0       0       0       0       0       0       0       0       0       0
       0       0       0       0       0       0       0       0       0       0
       0       0       0       0       0       0       0       0       0       0
       0       0       0       0       0       0       0       0       0       0
       0       0       0       0       0       0       0       0       0       0
       0       0       0       0       0       0       0       0       0       0
       0       0       0       0       0       0       0       0       0       0
       0       0       0       0       0       0       0       0       0       0
       0       0       0       0       0       0       0       0       0       0
       0       0       0       0       0       0       0       0       0       0
       0       0       0       0       0       0       0       0       0       0
       0       0       0       0       0       0       0       0       0       0
       0       0       0       0       0       0       0       0       0       0
       0       0       0       0       0       0       0       0       0       0
       0       0       0       0       0       0       0       0       0       0
       0       0       0       0       0       0       0       0       0       0
       0       0       0       0       0       0       0       0       0       0
       0       0       0       0       0       0       0       0       0       0
       0       0       0       0       0       0       0       0       0       0
       0       0       0       0       0       0       0       0       0       0
       0       0       0       0       0       0       0       0       0       0
       0       0       0       0       0       0       0       0       0       0
       0       0       0       0       0       0       0       0       0       0
       0       0       0       0       0       0       0       0       0       0
       0       0       0       0       0       0       0       0       0       0
       0       0       0       0       0       0       0       0       0       0
       0       0       0       0       0       0       0       0       0       0
       0       0       0       0       0       0       0       0       0       0
       0       0       0       0       0       0       0       0       0       0
       0       0       0       0       0       0       0       0       0       0
       0       0       0       0       0       0       0       0       0       0
       0       0       0       0       0       0       0       0       0       0
       0       0       0       0       0       0       0       0       0       0
       0       0       0       0       0       0       0       0       0       0
       0       0       0       0       0       0       0       0       0       0
       0       0       0       0       0       0       0       0       0       0
       0       0       0       0       0       0       0       0       0       0
       0       0       0       0       0       0       0       0       0       0
       0       0       0       0       0       0       0       0       0       0
       0       0       0       0       0       0       0       0       0       0
       0       0       0       0       0       0       0       0       0       0
       0       0       0       0       0       0       0       0       0       0
       0       0       0       0       0       0       0       0       0       0
       0       0       0       0       0       0       0       0       0       0
       0       0       0       0       0       0       0       0       0       0
       0       0       0       0       0       0       0       0       0       0
       0       0       0       0       0       0       0       0       0       0
       0       0       0       0       0       0       0       0       0       0
       0       0       0       0       0       0       0       0       0       0
       0       0       0       0       0       0       0       0       0       0
       0       0       0       0       0       0       0       0       0       0
       0       0       0       0       0       0       0       0       0       0
       0       0       0       0       0       0       0       0       0       0
       0       0       0       0       0       0       0       0       0       0
       0       0       0       0       0       0       0       0       0       0
       0       0       0       0       0       0       0       0       0       0
       0       0       0       0       0       0       0       0       0       0
       0       0       0       0       0       0       0       0       0       0
       0       0       0       0       0       0       0       0       0       0
       0       0       0       0       0       0       0       0       0       0
       0       0       0       0       0       0       0       0       0       0
       0       0       0       0       0       0       0       0       0       0
       0       0       0       0       0       0       0       0       0       0
       0       0       0       0       0       0       0       0       0       0
       0       0       0       0       0       0       0       0       0       0
       0       0       0       0       0       0       0       0       0       0
       0       0       0       0       0       0       0       0       0       0
       0       0       0       0       0       0       0       0       0       0
       0       0       0       0       0       0       0       0       0       0
       0       0       0       0       0       0       0       0       0       0
       0       0       0       0       0       0       0       0       0       0
       0       0       0       0       0       0       0       0       0       0
       0       0       0       0       0       0       0       0       0       0
       0       0       0       0       0       0       0       0       0       0
       0       0       0       0       0       0       0       0       0       0
       0       0       0       0       0       0       0       0       0       0
       0       0       0       0       0       0       0       0       0       0
       0       0       0       0       0       0       0       0       0       0
       0       0       0       0       0       0       0       0       0       0
       0       0       0       0       0       0       0       0       0       0
       0       0       0       0       0       0       0       0       0       0
       0       0       0       0       0       0       0       0       0       0
       0       0       0       0       0       0       0       0       0       0
       0       0       0       0       0       0       0       0       0       0
       0       0       0       0       0       0       0       0       0       0
       0       0       0       0       0       0       0       0       0       0
       0       0       0       0       0       0       0       0       0       0
       0       0       0       0       0       0       0       0       0       0
       0       0       0       0       0       0       0       0       0       0
       0       0       0       0       0       0       0       0       0       0
       0       0       0       0       0       0       0       0       0       0
       0       0       0       0       0       0       0       0       0       0
       0       0       0       0       0       0       0       0       0       0
       0       0       0       0       0       0       0       0       0       0
       0       0       0       0       0       0       0       0       0       0
       0       0       0       0       0       0       0       0       0       0
       0       0       0       0       0       0       0       0       0       0
       0       0       0       0       0       0       0       0       0       0
       0       0       0       0       0       0       0       0       0       0
       0       0       0       0       0       0       0       0       0       0
       0       0       0       0       0       0       0       0       0       0
       0       0       0       0       0       0       0       0       0       0
       0       0       0       0       0       0       0       0       0       0
       0       0       0       0       0       0       0       0       0       0
       0       0       0       0       0       0       0       0       0       0
       0       0       0       0       0       0       0       0       0       0
       0       0       0       0       0       0       0       0       0       0
       0       0       0       0       0       0       0       0       0       0
       0       0       0       0       0       0       0       0       0       0
       0       0       0       0       0       0       0       0       0       0
       0       0       0       0       0       0       0       0       0       0
       0       0       0       0       0       0       0       0       0       0
       0       0       0       0       0       0       0       0       0       0
       0       0       0       0       0       0       0       0       0       0
       0       0       0       0       0       0       0       0       0       0
       0       0       0       0       0       0       0       0       0       0
       0       0       0       0       0       0       0       0       0       0
       0       0       0       0       0       0       0       0       0       0
       0       0       0       0       0       0       0       0       0       0
       0       0       0       0       0       0       0       0       0       0
       0       0       0       0       0       0       0       0       0       0
       0       0       0       0       0       0       0       0       0       0
       0       0       0       0       0       0       0       0       0       0
       0       0       0       0       0       0       0       0       0       0
       0       0       0       0       0       0       0       0       0       0
       0       0       0       0       0       0       0       0       0       0
       0       0       0       0       0       0       0       0       0       0
       0       0       0       0       0       0       0       0       0       0
       0       0       0       0       0       0       0       0       0       0
       0       0       0       0       0       0       0       0       0       0
       0       0       0       0       0       0       0       0       0       0
       0       0       0       0       0       0       0       0       0       0
       0       0       0       0       0       0       0       0       0       0
       0       0       0       0       0       0       0       0       0       0
       0       0       0       0       0       0       0       0       0       0
       0       0       0       0       0       0       0       0       0       0
       0       0       0       0       0       0       0       0       0       0
       0       0       0       0       0       0       0       0       0       0
       0       0       0       0       0       0       0       0       0       0
       0       0       0       0       0       0       0       0       0       0
       0       0       0       0       0       0       0       0       0       0
       0       0       0       0       0       0       0       0       0       0
       0       0       0       0       0       0       0       0       0       0
       0       0       0       0       0       0       0       0       0       0
       0       0       0       0       0       0       0       0       0       0
       0       0       0       0       0       0       0       0       0       0
       0       0       0       0       0       0       0       0       0       0
       0       0       0       0       0       0       0       0       0       0
       0       0       0       0       0       0       0       0       0       0
       0       0       0       0       0       0       0       0       0       0
       0       0       0       0       0       0       0       0       0       0
       0       0       0       0       0       0       0       0       0       0
       0       0       0       0       0       0       0       0       0       0
       0       0       0       0       0       0       0       0       0       0
       0       0       0       0       0       0       0       0       0       0
       0       0       0       0       0       0       0       0       0       0
       0       0       0       0       0       0       0       0       0       0
       0       0       0       0       0       0       0       0       0       0
       0       0       0       0       0       0       0       0       0       0
       0       0       0       0       0       0       0       0       0       0
       0       0       0       0       0       0       0       0       0       0
       0       0       0       0       0       0       0       0       0       0
       0       0       0       0       0       0       0       0       0       0
       0       0       0       0       0       0       0       0       0       0
       0       0       0       0       0       0       0       0       0       0
       0       0       0       0       0       0       0       0       0       0
       0       0       0       0       0       0       0       0       0       0
       0       0       0       0       0       0       0       0       0       0
       0       0       0       0       0       0       0       0       0       0
       0       0       0       0       0       0       0       0       0       0
       0       0       0       0       0       0       0       0       0       0
       0       0       0       0       0       0       0       0       0       0
       0       0       0       0       0       0       0       0       0       0
       0       0       0       0       0       0       0       0       0       0
       0       0       0       0       0       0       0       0       0       0
       0       0       0       0       0       0       0       0       0       0
       0       0       0       0       0       0       0       0       0       0
       0       0       0       0       0       0       0       0       0       0
       0       0       0       0       0       0       0       0       0       0
       0       0       0       0       0       0       0       0       0       0
       0       0       0       0       0       0       0       0       0       0
       0       0       0       0       0       0       0       0       0       0
       0       0       0       0       0       0       0       0       0       0
       0       0       0       0       0       0       0       0       0       0
       0       0       0       0       0       0       0       0       0       0
       0       0       0       0       0       0       0       0       0       0
       0       0       0       0       0       0       0       0       0       0
       0       0       0       0       0       0       0       0       0       0
       0       0       0       0       0       0       0       0       0       0
       0       0       0       0       0       0       0       0       0       0
       0       0       0       0       0       0       0       0       0       0
       0       0       0       0       0       0       0       0       0       0
       0       0       0       0       0       0       0       0       0       0
       0       0       0       0       0       0       0       0       0       0
       0       0       0       0       0       0       0       0       0       0
       0       0       0       0       0       0       0       0       0       0
       0       0       0       0       0       0       0       0       0       0
       0       0       0       0       0       0       0       0       0       0
       0       0       0       0       0       0       0       0       0       0
       0       0       0       0       0       0       0       0       0       0
       0       0       0       0       0       0       0       0       0       0
       0       0       0       0       0       0       0       0       0       0
       0       0       0       0       0       0       0       0       0       0
       0       0       0       0       0       0       0       0       0       0
       0       0       0       0       0       0       0       0       0       0
       0       0       0       0       0       0       0       0       0       0
       0       0       0       0       0       0       0       0       0       0
       0       0       0       0       0       0       0       0       0       0
       0       0       0       0       0       0       0       0       0       0
       0       0       0       0       0       0       0       0       0       0
       0       0       0       0       0       0       0       0       0       0
       0       0       0       0       0       0       0       0       0       0
       0       0       0       0       0       0       0       0       0       0
       0       0       0       0       0       0       0       0       0       0
       0       0       0       0       0       0       0       0       0       0
       0       0       0       0       0       0       0       0       0       0
       0       0       0       0       0       0       0       0       0       0
       0       0       0       0       0       0       0       0       0       0
       0       0       0       0       0       0       0       0       0       0
       0       0       0       0       0       0       0       0       0       0
       0       0       0       0       0       0       0       0       0       0
       0       0       0       0       0       0       0       0       0       0
       0       0       0       0       0       0       0       0       0       0
       0       0       0       0       0       0       0       0       0       0
       0       0       0       0       0       0       0       0       0       0
       0       0       0       0       0       0       0       0       0       0
       0       0       0       0       0       0       0       0       0       0
       0       0       0       0       0       0       0       0       0       0
       0       0       0       0       0       0       0       0       0       0
       0       0       0       0       0       0       0       0       0       0
       0       0       0       0       0       0       0       0       0       0
       0       0       0       0       0       0       0       0       0       0
       0       0       0       0       0       0       0       0       0       0
       0       0       0       0       0       0       0       0       0       0
       0       0       0       0       0       0       0       0       0       0
       0       0       0       0       0       0       0       0       0       0
       0       0       0       0       0       0       0       0       0       0
       0       0       0       0       0       0       0       0       0       0
       0       0       0       0       0       0       0       0       0       0
       0       0       0       0       0       0       0       0       0       0
       0       0       0       0       0       0       0       0       0       0
       0       0       0       0       0       0       0       0       0       0
       0       0       0       0       0       0       0       0       0       0
       0       0       0       0       0       0       0       0       0       0
       0       0       0       0       0       0       0       0       0       0
       0       0       0       0       0       0       0       0       0       0
       0       0       0       0       0       0       0       0       0       0
       0       0       0       0       0       0       0       0       0       0
       0       0       0       0       0       0       0       0       0       0
       0       0       0       0       0       0       0       0       0       0
       0       0       0       0       0       0       0       0       0       0
       0       0       0       0       0       0       0       0       0       0
       0       0       0       0       0       0       0       0       0       0
       0       0       0       0       0       0       0       0       0       0
       0       0       0       0       0       0       0       0       0       0
       0       0       0       0       0       0       0       0       0       0
       0       0       0       0       0       0       0       0       0       0
       0       0       0       0       0       0       0       0       0       0
       0       0       0       0       0       0       0       0       0       0
       0       0       0       0       0       0       0       0       0       0
       0       0       0       0       0       0       0       0       0       0
       0       0       0       0       0       0       0       0       0       0
       0       0       0       0       0       0       0       0       0       0
       0       0       0       0       0       0       0       0       0       0
       0       0       0       0       0       0       0       0       0       0
       0       0       0       0       0       0       0       0       0       0
       0       0       0       0       0       0       0       0       0       0
       0       0       0       0       0       0       0       0       0       0
       0       0       0       0       0       0       0       0       0       0
       0       0       0       0       0       0       0       0       0       0
       0       0       0       0       0       0       0       0       0       0
       0       0       0       0       0       0       0       0       0       0
       0       0       0       0       0       0       0       0       0       0
       0       0       0       0       0       0       0       0       0       0
       0       0       0       0       0       0       0       0       0       0
       0       0       0       0       0       0       0       0       0       0
       0       0       0       0       0       0       0       0       0       0
       0       0       0       0       0       0       0       0       0       0
       0       0       0       0       0       0       0       0       0       0
       0       0       0       0       0       0       0       0       0       0
       0       0       0       0       0       0       0       0       0       0
       0       0       0       0       0       0       0       0       0       0
       0       0       0       0       0       0       0       0       0       0
       0       0       0       0       0       0       0       0       0       0
       0       0       0       0       0       0       0       0       0       0
       0       0       0       0       0       0       0       0       0       0
       0       0       0       0       0       0       0       0       0       0
       0       0       0       0       0       0       0       0       0       0
       0       0       0       0       0       0       0       0       0       0
       0       0       0       0       0       0       0       0       0       0
       0       0       0       0       0       0       0       0       0       0
       0       0       0       0       0       0       0       0       0       0
       0       0       0       0       0       0       0       0       0       0
       0       0       0       0       0       0       0       0       0       0
       0       0       0       0       0       0       0       0       0       0
       0       0       0       0       0       0       0       0       0       0
       0       0       0       0       0       0       0       0       0       0
       0       0       0       0       0       0       0       0       0       0
       0       0       0       0       0       0       0       0       0       0
       0       0       0       0       0       0       0       0       0       0
       0       0       0       0       0       0       0       0       0       0
       0       0       0       0       0       0       0       0       0       0
       0       0       0       0       0       0       0       0       0       0
       0       0       0       0       0       0       0       0       0       0
       0       0       0       0       0       0       0       0       0       0
       0       0       0       0       0       0       0       0       0       0
       0       0       0       0       0       0       0       0       0       0
       0       0       0       0       0       0       0       0       0       0
       0       0       0       0       0       0       0       0       0       0
       0       0       0       0       0       0       0       0       0       0
       0       0       0       0       0       0       0       0       0       0
       0       0       0       0       0       0       0       0       0       0
       0       0       0       0       0       0       0       0       0       0
       0       0       0       0       0       0       0       0       0       0
       0       0       0       0       0       0       0       0       0       0
       0       0       0       0       0       0       0       0       0       0
       0       0       0       0       0       0       0       0       0       0
       0       0       0       0       0       0       0       0       0       0
       0       0       0       0       0       0       0       0       0       0
       0       0       0       0       0       0       0       0       0       0
       0       0       0       0       0       0       0       0       0       0
       0       0       0       0       0       0       0       0       0       0
       0       0       0       0       0       0       0       0       0       0
       0       0       0       0       0       0       0       0       0       0
       0       0       0       0       0       0       0       0       0       0
       0       0       0       0       0       0       0       0       0       0
       0       0       0       0       0       0       0       0       0       0
       0       0       0       0       0       0       0       0       0       0
       0       0       0       0       0       0       0       0       0       0
       0       0       0       0       0       0       0       0       0       0
       0       0       0       0       0       0       0       0       0       0
       0       0       0       0       0       0       0       0       0       0
       0       0       0       0       0       0       0       0       0       0
       0       0       0       0       0       0       0       0       0       0
       0       0       0       0       0       0       0       0       0       0
       0       0       0       0       0       0       0       0       0       0
       0       0       0       0       0       0       0       0       0       0
       0       0       0       0       0       0       0       0       0       0
       0       0       0       0       0       0       0       0       0       0
       0       0       0       0       0       0       0       0       0       0
       0       0       0       0       0       0       0       0       0       0
       0       0       0       0       0       0       0       0       0       0
       0       0       0       0       0       0       0       0       0       0
       0       0       0       0       0       0       0       0       0       0
       0       0       0       0       0       0       0       0       0       0
       0       0       0       0       0       0       0       0       0       0
       0       0       0       0       0       0       0       0       0       0
       0       0       0       0       0       0       0       0       0       0
       0       0       0       0       0       0       0       0       0       0
       0       0       0       0       0       0       0       0       0       0
       0       0       0       0       0       0       0       0       0       0
       0       0       0       0       0       0       0       0       0       0
       0       0       0       0       0       0       0       0       0       0
       0       0       0       0       0       0       0       0       0       0
       0       0       0       0       0       0       0       0       0       0
       0       0       0       0       0       0       0       0       0       0
       0       0       0       0       0       0       0       0       0       0
       0       0       0       0       0       0       0       0       0       0
       0       0       0       0       0       0       0       0       0       0
       0       0       0       0       0       0       0       0       0       0
       0       0       0       0       0       0       0       0       0       0
       0       0       0       0       0       0       0       0       0       0
       0       0       0       0       0       0       0       0       0       0
       0       0       0       0       0       0       0       0       0       0
       0       0       0       0       0       0       0       0       0       0
       0       0       0       0       0       0       0       0       0       0
       0       0       0       0       0       0       0       0       0       0
       0       0       0       0       0       0       0       0       0       0
       0       0       0       0       0       0       0       0       0       0
       0       0       0       0       0       0       0       0       0       0
       0       0       0       0       0       0       0       0       0       0
       0       0       0       0       0       0       0       0       0       0
       0       0       0       0       0       0       0       0       0       0
       0       0       0       0       0       0       0       0       0       0
       0       0       0       0       0       0       0       0       0       0
       0       0       0       0       0       0       0       0       0       0
       0       0       0       0       0       0       0       0       0       0
       0       0       0       0       0       0       0       0       0       0
       0       0       0       0       0       0       0       0       0       0
       0       0       0       0       0       0       0       0       0       0
       0       0       0       0       0       0       0       0       0       0
       0       0       0       0       0       0       0       0       0       0
       0       0       0       0       0       0       0       0       0       0
       0       0       0       0       0       0       0       0       0       0
       0       0       0       0       0       0       0       0       0       0
       0       0       0       0       0       0       0       0       0       0
       0       0       0       0       0       0       0       0       0       0
       0       0       0       0       0       0       0       0       0       0
       0       0       0       0       0       0       0       0       0       0
       0       0       0       0       0       0       0       0       0       0
       0       0       0       0       0       0       0       0       0       0
       0       0       0       0       0       0       0       0       0       0
       0       0       0       0       0       0       0       0       0       0
       0       0       0       0       0       0       0       0       0       0
       0       0       0       0       0       0       0       0       0       0
       0       0       0       0       0       0       0       0       0       0
       0       0       0       0       0       0       0       0       0       0
       0       0       0       0       0       0       0       0       0       0
       0       0       0       0       0       0       0       0       0       0
       0       0       0       0       0       0       0       0       0       0
       0       0       0       0       0       0       0       0       0       0
       0       0       0       0       0       0       0       0       0       0
       0       0       0       0       0       0       0       0       0       0
       0       0       0       0       0       0       0       0       0       0
       0       0       0       0       0       0       0       0       0       0
       0       0       0       0       0       0       0       0       0       0
       0       0       0       0       0       0       0       0       0       0
       0       0       0       0       0       0       0       0       0       0
       0       0       0       0       0       0       0       0       0       0
       0       0       0       0       0       0       0       0       0       0
       0       0       0       0       0       0       0       0       0       0
       0       0       0       0       0       0       0       0       0       0
       0       0       0       0       0       0       0       0       0       0
       0       0       0       0       0       0       0       0       0       0
       0       0       0       0       0       0       0       0       0       0
       0       0       0       0       0       0       0       0       0       0
       0       0       0       0       0       0       0       0       0       0
       0       0       0       0       0       0       0       0       0       0
       0       0       0       0       0       0       0       0       0       0
       0       0       0       0       0       0       0       0       0       0
       0       0       0       0       0       0       0       0       0       0
       0       0       0       0       0       0       0       0       0       0
       0       0       0       0       0       0       0       0       0       0
       0       0       0       0       0       0       0       0       0       0
       0       0       0       0       0       0       0       0       0       0
       0       0       0       0       0       0       0       0       0       0
       0       0       0       0       0       0       0       0       0       0
       0       0       0       0       0       0       0       0       0       0
       0       0       0       0       0       0       0       0       0       0
       0       0       0       0       0       0       0       0       0       0
       0       0       0       0       0       0       0       0       0       0
       0       0       0       0       0       0       0       0       0       0
       0       0       0       0       0       0       0       0       0       0
       0       0       0       0       0       0       0       0       0       0
       0       0       0       0       0       0       0       0       0       0
       0       0       0       0       0       0       0       0       0       0
       0       0       0       0       0       0       0       0       0       0
       0       0       0       0       0       0       0       0       0       0
       0       0       0       0       0       0       0       0       0       0
       0       0       0       0       0       0       0       0       0       0
       0       0       0       0       0       0       0       0       0       0
       0       0       0       0       0       0       0       0       0       0
       0       0       0       0       0       0       0       0       0       0
       0       0       0       0       0       0       0       0       0       0
       0       0       0       0       0       0       0       0       0       0
       0       0       0       0       0       0       0       0       0       0
       0       0       0       0       0       0       0       0       0       0
       0       0       0       0       0       0       0       0       0       0
       0       0       0       0       0       0       0       0       0       0
       0       0       0       0       0       0       0       0       0       0
       0       0       0       0       0       0       0       0       0       0
       0       0       0       0       0       0       0       0       0       0
       0       0       0       0       0       0       0       0       0       0
       0       0       0       0       0       0       0       0       0       0
       0       0       0       0       0       0       0       0       0       0
       0       0       0       0       0       0       0       0       0       0
       0       0       0       0       0       0       0       0       0       0
       0       0       0       0       0       0       0       0       0       0
       0       0       0       0       0       0       0       0       0       0
       0       0       0       0       0       0       0       0       0       0
       0       0       0       0       0       0       0       0       0       0
       0       0       0       0       0       0       0       0       0       0
       0       0       0       0       0       0       0       0       0       0
       0       0       0       0       0       0       0       0       0       0
       0       0       0       0       0       0       0       0       0       0
       0       0       0       0       0       0       0       0       0       0
       0       0       0       0       0       0       0       0       0       0
       0       0       0       0       0       0       0       0       0       0
       0       0       0       0       0       0       0       0       0       0
       0       0       0       0       0       0       0       0       0       0
       0       0       0       0       0       0       0       0       0       0
       0       0       0       0       0       0       0       0       0       0
       0       0       0       0       0       0       0       0       0       0
       0       0       0       0       0       0       0       0       0       0
       0       0       0       0       0       0       0       0       0       0
       0       0       0       0       0       0       0       0       0       0
       0       0       0       0       0       0       0       0       0       0
       0       0       0       0       0       0       0       0       0       0
       0       0       0       0       0       0       0       0       0       0
       0       0       0       0       0       0       0       0       0       0
       0       0       0       0       0       0       0       0       0       0
       0       0       0       0       0       0       0       0       0       0
       0       0       0       0       0       0       0       0       0       0
       0       0       0       0       0       0       0       0       0       0
       0       0       0       0       0       0       0       0       0       0
       0       0       0       0       0       0       0       0       0       0
       0       0       0       0       0       0       0       0       0       0
       0       0       0       0       0       0       0       0       0       0
       0       0       0       0       0       0       0       0       0       0
       0       0       0       0       0       0       0       0       0       0
       0       0       0       0       0       0       0       0       0       0
       0       0       0       0       0       0       0       0       0       0
       0       0       0       0       0       0       0       0       0       0
       0       0       0       0       0       0       0       0       0       0
       0       0       0       0       0       0       0       0       0       0
       0       0       0       0       0       0       0       0       0       0
       0       0       0       0       0       0       0       0       0       0
       0       0       0       0       0       0       0       0       0       0
       0       0       0       0       0       0       0       0       0       0
       0       0       0       0       0       0       0       0       0       0
       0       0       0       0       0       0       0       0       0       0
       0       0       0       0       0       0       0       0       0       0
       0       0       0       0       0       0       0       0       0       0
       0       0       0       0       0       0       0       0       0       0
       0       0       0       0       0       0       0       0       0       0
       0       0       0       0       0       0       0       0       0       0
       0       0       0       0       0       0       0       0       0       0
       0       0       0       0       0       0       0       0       0       0
       0       0       0       0       0       0       0       0       0       0
       0       0       0       0       0       0       0       0       0       0
       0       0       0       0       0       0       0       0       0       0
       0       0       0       0       0       0       0       0       0       0
       0       0       0       0       0       0       0       0       0       0
       0       0       0       0       0       0       0       0       0       0
       0       0       0       0       0       0       0       0       0       0
       0       0       0       0       0       0       0       0       0       0
       0       0       0       0       0       0       0       0       0       0
       0       0       0       0       0       0       0       0       0       0
       0       0       0       0       0       0       0       0       0       0
       0       0       0       0       0       0       0       0       0       0
       0       0       0       0       0       0       0       0       0       0
       0       0       0       0       0       0       0       0       0       0
       0       0       0       0       0       0       0       0       0       0
       0       0       0       0       0       0       0       0       0       0
       0       0       0       0       0       0       0       0       0       0
       0       0       0       0       0       0       0       0       0       0
       0       0       0       0       0       0       0       0       0       0
       0       0       0       0       0       0       0       0       0       0
       0       0       0       0       0       0       0       0       0       0
       0       0       0       0       0       0       0       0       0       0
       0       0       0       0       0       0       0       0       0       0
       0       0       0       0       0       0       0       0       0       0
       0       0       0       0       0       0       0       0       0       0
       0       0       0       0       0       0       0       0       0       0
       0       0       0       0       0       0       0       0       0       0
       0       0       0       0       0       0       0       0       0       0
       0       0       0       0       0       0       0       0       0       0
       0       0       0       0       0       0       0       0       0       0
       0       0       0       0       0       0       0       0       0       0
       0       0       0       0       0       0       0       0       0       0
       0       0       0       0       0       0       0       0       0       0
       0       0       0       0       0       0       0       0       0       0
       0       0       0       0       0       0       0       0       0       0
       0       0       0       0       0       0       0       0       0       0
       0       0       0       0       0       0       0       0       0       0
       0       0       0       0       0       0       0       0       0       0
       0       0       0       0       0       0       0       0       0       0
       0       0       0       0       0       0       0       0       0       0
       0       0       0       0       0       0       0       0       0       0
       0       0       0       0       0       0       0       0       0       0
       0       0       0       0       0       0       0       0       0       0
       0       0       0       0       0       0       0       0       0       0
       0       0       0       0       0       0       0       0       0       0
       0       0       0       0       0       0       0       0       0       0
       0       0       0       0       0       0       0       0       0       0
       0       0       0       0       0       0       0       0       0       0
       0       0       0       0       0       0       0       0       0       0
       0       0       0       0       0       0       0       0       0       0
       0       0       0       0       0       0       0       0       0       0
       0       0       0       0       0       0       0       0       0       0
       0       0       0       0       0       0       0       0       0       0
       0       0       0       0       0       0       0       0       0       0
       0       0       0       0       0       0       0       0       0       0
       0       0       0       0       0       0       0       0       0       0
       0       0       0       0       0       0       0       0       0       0
       0       0       0       0       0       0       0       0       0       0
       0       0       0       0       0       0       0       0       0       0
       0       0       0       0       0       0       0       0       0       0
       0       0       0       0       0       0       0       0       0       0
       0       0       0       0       0       0       0       0       0       0
       0       0       0       0       0       0       0       0       0       0
       0       0       0       0       0       0       0       0       0       0
       0       0       0       0       0       0       0       0       0       0
       0       0       0       0       0       0       0       0       0       0
       0       0       0       0       0       0       0       0       0       0
       0       0       0       0       0       0       0       0       0       0
       0       0       0       0       0       0       0       0       0       0
       0       0       0       0       0       0       0       0       0       0
       0       0       0       0       0       0       0       0       0       0
       0       0       0       0       0       0       0       0       0       0
       0       0       0       0       0       0       0       0       0       0
       0       0       0       0       0       0       0       0       0       0
       0       0       0       0       0       0       0       0       0       0
       0       0       0       0       0       0       0       0       0       0
       0       0       0       0       0       0       0       0       0       0
       0       0       0       0       0       0       0       0       0       0
       0       0       0       0       0       0       0       0       0       0
       0       0       0       0       0       0       0       0       0       0
       0       0       0       0       0       0       0       0       0       0
       0       0       0       0       0       0       0       0       0       0
       0       0       0       0       0       0       0       0       0       0
       0       0       0       0       0       0       0       0       0       0
       0       0       0       0       0       0       0       0       0       0
       0       0       0       0       0       0       0       0       0       0
       0       0       0       0       0       0       0       0       0       0
       0       0       0       0       0       0       0       0       0       0
       0       0       0       0       0       0       0       0       0       0
       0       0       0       0       0       0       0       0       0       0
       0       0       0       0       0       0       0       0       0       0
       0       0       0       0       0       0       0       0       0       0
       0       0       0       0       0       0       0       0       0       0
       0       0       0       0       0       0       0       0       0       0
       0       0       0       0       0       0       0       0       0       0
       0       0       0       0       0       0       0       0       0       0
       0       0       0       0       0       0       0       0       0       0
       0       0       0       0       0       0       0       0       0       0
       0       0       0       0       0       0       0       0       0       0
       0       0       0       0       0       0       0       0       0       0
       0       0       0       0       0       0       0       0       0       0
       0       0       0       0       0       0       0       0       0       0
       0       0       0       0       0       0       0       0       0       0
       0       0       0       0       0       0       0       0       0       0
       0       0       0       0       0       0       0       0       0       0
       0       0       0       0       0       0       0       0       0       0
       0       0       0       0       0       0       0       0       0       0
       0       0       0       0       0       0       0       0       0       0
       0       0       0       0       0       0       0       0       0       0
       0       0       0       0       0       0       0       0       0       0
       0       0       0       0       0       0       0       0       0       0
       0       0       0       0       0       0       0       0       0       0
       0       0       0       0       0       0       0       0       0       0
       0       0       0       0       0       0       0       0       0       0
       0       0       0       0       0       0       0       0       0       0
       0       0       0       0       0       0       0       0       0       0
       0       0       0       0       0       0       0       0       0       0
       0       0       0       0       0       0       0       0       0       0
       0       0       0       0       0       0       0       0       0       0
       0       0       0       0       0       0       0       0       0       0
       0       0       0       0       0       0       0       0       0       0
       0       0       0       0       0       0       0       0       0       0
       0       0       0       0       0       0       0       0       0       0
       0       0       0       0       0       0       0       0       0       0
       0       0       0       0       0       0       0       0       0       0
       0       0       0       0       0       0       0       0       0       0
       0       0       0       0       0       0       0       0       0       0
       0       0       0       0       0       0       0       0       0       0
       0       0       0       0       0       0       0       0       0       0
       0       0       0       0       0       0       0       0       0       0
       0       0       0       0       0       0       0       0       0       0
       0       0       0       0       0       0       0       0       0       0
       0       0       0       0       0       0       0       0       0       0
       0       0       0       0       0       0       0       0       0       0
       0       0       0       0       0       0       0       0       0       0
       0       0       0       0       0       0       0       0       0       0
       0       0       0       0       0       0       0       0       0       0
       0       0       0       0       0       0       0       0       0       0
       0       0       0       0       0       0       0       0       0       0
       0       0       0       0       0       0       0       0       0       0
       0       0       0       0       0       0       0       0       0       0
       0       0       0       0       0       0       0       0       0       0
       0       0       0       0       0       0       0       0       0       0
       0       0       0       0       0       0       0       0       0       0
       0       0       0       0       0       0       0       0       0       0
       0       0       0       0       0       0       0       0       0       0
       0       0       0       0       0       0       0       0       0       0
       0       0       0       0       0       0       0       0       0       0
       0       0       0       0       0       0       0       0       0       0
       0       0       0       0       0       0       0       0       0       0
       0       0       0       0       0       0       0       0       0       0
       0       0       0       0       0       0       0       0       0       0
       0       0       0       0       0       0       0       0       0       0
       0       0       0       0       0       0       0       0       0       0
       0       0       0       0       0       0       0       0       0       0
       0       0       0       0       0       0       0       0       0       0
       0       0       0       0       0       0       0       0       0       0
       0       0       0       0       0       0       0       0       0       0
       0       0       0       0       0       0       0       0       0       0
       0       0       0       0       0       0       0       0       0       0
       0       0       0       0       0       0       0       0       0       0
       0       0       0       0       0       0       0       0       0       0
       0       0       0       0       0       0       0       0       0       0
       0       0       0       0       0       0       0       0       0       0
       0       0       0       0       0       0       0       0       0       0
       0       0       0       0       0       0       0       0       0       0
       0       0       0       0       0       0       0       0       0       0
       0       0       0       0       0       0       0       0       0       0
       0       0       0       0       0       0       0       0       0       0
       0       0       0       0       0       0       0       0       0       0
       0       0       0       0       0       0       0       0       0       0
       0       0       0       0       0       0       0       0       0       0
       0       0       0       0       0       0       0       0       0       0
       0       0       0       0       0       0       0       0       0       0
       0       0       0       0       0       0       0       0       0       0
       0       0       0       0       0       0       0       0       0       0
       0       0       0       0       0       0       0       0       0       0
       0       0       0       0       0       0       0       0       0       0
       0       0       0       0       0       0       0       0       0       0
       0       0       0       0       0       0       0       0       0       0
       0       0       0       0       0       0       0       0       0       0
       0       0       0       0       0       0       0       0       0       0
       0       0       0       0       0       0       0       0       0       0
       0       0       0       0       0       0       0       0       0       0
       0       0       0       0       0       0       0       0       0       0
       0       0       0       0       0       0       0       0       0       0
       0       0       0       0       0       0       0       0       0       0
       0       0       0       0       0       0       0       0       0       0
       0       0       0       0       0       0       0       0       0       0
       0       0       0       0       0       0       0       0       0       0
       0       0       0       0       0       0       0       0       0       0
       0       0       0       0       0       0       0       0       0       0
       0       0       0       0       0       0       0       0       0       0
       0       0       0       0       0       0       0       0       0       0
       0       0       0       0       0       0       0       0       0       0
       0       0       0       0       0       0       0       0       0       0
       0       0       0       0       0       0       0       0       0       0
       0       0       0       0       0       0       0       0       0       0
       0       0       0       0       0       0       0       0       0       0
       0       0       0       0       0       0       0       0       0       0
       0       0       0       0       0       0       0       0       0       0
       0       0       0       0       0       0       0       0       0       0
       0       0       0       0       0       0       0       0       0       0
       0       0       0       0       0       0       0       0       0       0
       0       0       0       0       0       0       0       0       0       0
       0       0       0       0       0       0       0       0       0       0
       0       0       0       0       0       0       0       0       0       0
       0       0       0       0       0       0       0       0       0       0
       0       0       0       0       0       0       0       0       0       0
       0       0       0       0       0       0       0       0       0       0
       0       0       0       0       0       0       0       0       0       0
       0       0       0       0       0       0       0       0       0       0
       0       0       0       0       0       0       0       0       0       0
       0       0       0       0       0       0       0       0       0       0
       0       0       0       0       0       0       0       0       0       0
       0       0       0       0       0       0       0       0       0       0
       0       0       0       0       0       0       0       0       0       0
       0       0       0       0       0       0       0       0       0       0
       0       0       0       0       0       0       0       0       0       0
       0       0       0       0       0       0       0       0       0       0
       0       0       0       0       0       0       0       0       0       0
       0       0       0       0       0       0       0       0       0       0
       0       0       0       0       0       0       0       0       0       0
       0       0       0       0       0       0       0       0       0       0
       0       0       0       0       0       0       0       0       0       0
       0       0       0       0       0       0       0       0       0       0
       0       0       0       0       0       0       0       0       0       0
       0       0       0       0       0       0       0       0       0       0
       0       0       0       0       0       0       0       0       0       0
       0       0       0       0       0       0       0       0       0       0
       0       0       0       0       0       0       0       0       0       0
       0       0       0       0       0       0       0       0       0       0
       0       0       0       0       0       0       0       0       0       0
       0       0       0       0       0       0       0       0       0       0
       0       0       0       0       0       0       0       0       0       0
       0       0       0       0       0       0       0       0       0       0
       0       0       0       0       0       0       0       0       0       0
       0       0       0       0       0       0       0       0       0       0
       0       0       0       0       0       0       0       0       0       0
       0       0       0       0       0       0       0       0       0       0
       0       0       0       0       0       0       0       0       0       0
       0       0       0       0       0       0       0       0       0       0
       0       0       0       0       0       0       0       0       0       0
       0       0       0       0       0       0       0       0       0       0
       0       0       0       0       0       0       0       0       0       0
       0       0       0       0       0       0       0       0       0       0
       0       0       0       0       0       0       0       0       0       0
       0       0       0       0       0       0       0       0       0       0
       0       0       0       0       0       0       0       0       0       0
       0       0       0       0       0       0       0       0       0       0
       0       0       0       0       0       0       0       0       0       0
       0       0       0       0       0       0       0       0       0       0
       0       0       0       0       0       0       0       0       0       0
       0       0       0       0       0       0       0       0       0       0
       0       0       0       0       0       0       0       0       0       0
       0       0       0       0       0       0       0       0       0       0
       0       0       0       0       0       0       0       0       0       0
       0       0       0       0       0       0       0       0       0       0
       0       0       0       0       0       0       0       0       0       0
       0       0       0       0       0       0       0       0       0       0
       0       0       0       0       0       0       0       0       0       0
       0       0       0       0       0       0       0       0       0       0
       0       0       0       0       0       0       0       0       0       0
       0       0       0       0       0       0       0       0       0       0
       0       0       0       0       0       0       0       0       0       0
       0       0       0       0       0       0       0       0       0       0
       0       0       0       0       0       0       0       0       0       0
       0       0       0       0       0       0       0       0       0       0
       0       0       0       0       0       0       0       0       0       0
       0       0       0       0       0       0       0       0       0       0
       0       0       0       0       0       0       0       0       0       0
       0       0       0       0       0       0       0       0       0       0
       0       0       0       0       0       0       0       0       0       0
       0       0       0       0       0       0       0       0       0       0
       0       0       0       0       0       0       0       0       0       0
       0       0       0       0       0       0       0       0       0       0
       0       0       0       0       0       0       0       0       0       0
       0       0       0       0       0       0       0       0       0       0
       0       0       0       0       0       0       0       0       0       0
       0       0       0       0       0       0       0       0       0       0
       0       0       0       0       0       0       0       0       0       0
       0       0       0       0       0       0       0       0       0       0
       0       0       0       0       0       0       0       0       0       0
       0       0       0       0       0       0       0       0       0       0
       0       0       0       0       0       0       0       0       0       0
       0       0       0       0       0       0       0       0       0       0
       0       0       0       0       0       0       0       0       0       0
       0       0       0       0       0       0       0       0       0       0
       0       0       0       0       0       0       0       0       0       0
       0       0       0       0       0       0       0       0       0       0
       0       0       0       0       0       0       0       0       0       0
       0       0       0       0       0       0       0       0       0       0
       0       0       0       0       0       0       0       0       0       0
       0       0       0       0       0       0       0       0       0       0
       0       0       0       0       0       0       0       0       0       0
       0       0       0       0       0       0       0       0       0       0
       0       0       0       0       0       0       0       0       0       0
       0       0       0       0       0       0       0       0       0       0
       0       0       0       0       0       0       0       0       0       0
       0       0       0       0       0       0       0       0       0       0
       0       0       0       0       0       0       0       0       0       0
       0       0       0       0       0       0       0       0       0       0
       0       0       0       0       0       0       0       0       0       0
       0       0       0       0       0       0       0       0       0       0
       0       0       0       0       0       0       0       0       0       0
       0       0       0       0       0       0       0       0       0       0
       0       0       0       0       0       0       0       0       0       0
       0       0       0       0       0       0       0       0       0       0
       0       0       0       0       0       0       0       0       0       0
       0       0       0       0       0       0       0       0       0       0
       0       0       0       0       0       0       0       0       0       0
       0       0       0       0       0       0       0       0       0       0
       0       0       0       0       0       0       0       0       0       0
       0       0       0       0       0       0       0       0       0       0
       0       0       0       0       0       0       0       0       0       0
       0       0       0       0       0       0       0       0       0       0
       0       0       0       0       0       0       0       0       0       0
       0       0       0       0       0       0       0       0       0       0
       0       0       0       0       0       0       0       0       0       0
       0       0       0       0       0       0       0       0       0       0
       0       0       0       0       0       0       0       0       0       0
       0       0       0       0       0       0       0       0       0       0
       0       0       0       0       0       0       0       0       0       0
       0       0       0       0       0       0       0       0       0       0
       0       0       0       0       0       0       0       0       0       0
       0       0       0       0       0       0       0       0       0       0
       0       0       0       0       0       0       0       0       0       0
       0       0       0       0       0       0       0       0       0       0
       0       0       0       0       0       0       0       0       0       0
       0       0       0       0       0       0       0       0       0       0
       0       0       0       0       0       0       0       0       0       0
       0       0       0       0       0       0       0       0       0       0
       0       0       0       0       0       0       0       0       0       0
       0       0       0       0       0       0       0       0       0       0
       0       0       0       0       0       0       0       0       0       0
       0       0       0       0       0       0       0       0       0       0
       0       0       0       0       0       0       0       0       0       0
       0       0       0       0       0       0       0       0       0       0
       0       0       0       0       0       0       0       0       0       0
       0       0       0       0       0       0       0       0       0       0
       0       0       0       0       0       0       0       0       0       0
       0       0       0       0       0       0       0       0       0       0
       0       0       0       0       0       0       0       0       0       0
       0       0       0       0       0       0       0       0       0       0
       0       0       0       0       0       0       0       0       0       0
       0       0       0       0       0       0       0       0       0       0
       0       0       0       0       0       0       0       0       0       0
       0       0       0       0       0       0       0       0       0       0
       0       0       0       0       0       0       0       0       0       0
       0       0       0       0       0       0       0       0       0       0
       0       0       0       0       0       0       0       0       0       0
       0       0       0       0       0       0       0       0       0       0
       0       0       0       0       0       0       0       0       0       0
       0       0       0       0       0       0       0       0       0       0
       0       0       0       0       0       0       0       0       0       0
       0       0       0       0       0       0       0       0       0       0
       0       0       0       0       0       0       0       0       0       0
       0       0       0       0       0       0       0       0       0       0
       0       0       0       0       0       0       0       0       0       0
       0       0       0       0       0       0       0       0       0       0
       0       0       0       0       0       0       0       0       0       0
       0       0       0       0       0       0       0       0       0       0
       0       0       0       0       0       0       0       0       0       0
       0       0       0       0       0       0       0       0       0       0
       0       0       0       0       0       0       0       0       0       0
       0       0       0       0       0       0       0       0       0       0
       0       0       0       0       0       0       0       0       0       0
       0       0       0       0       0       0       0       0       0       0
       0       0       0       0       0       0       0       0       0       0
       0       0       0       0       0       0       0       0       0       0
       0       0       0       0       0       0       0       0       0       0
       0       0       0       0       0       0       0       0       0       0
       0       0       0       0       0       0       0       0       0       0
       0       0       0       0       0       0       0       0       0       0
       0       0       0       0       0       0       0       0       0       0
       0       0       0       0       0       0       0       0       0       0
       0       0       0       0       0       0       0       0       0       0
       0       0       0       0       0       0       0       0       0       0
       0       0       0       0       0       0       0       0       0       0
       0       0       0       0       0       0       0       0       0       0
       0       0       0       0       0       0       0       0       0       0
       0       0       0       0       0       0       0       0       0       0
       0       0       0       0       0       0       0       0       0       0
       0       0       0       0       0       0       0       0       0       0
       0       0       0       0       0       0       0       0       0       0
       0       0       0       0       0       0       0       0       0       0
       0       0       0       0       0       0       0       0       0       0
       0       0       0       0       0       0       0       0       0       0
       0       0       0       0       0       0       0       0       0       0
       0       0       0       0       0       0       0       0       0       0
       0       0       0       0       0       0       0       0       0       0
       0       0       0       0       0       0       0       0       0       0
       0       0       0       0       0       0       0       0       0       0
       0       0       0       0       0       0       0       0       0       0
       0       0       0       0       0       0       0       0       0       0
       0       0       0       0       0       0       0       0       0       0
       0       0       0       0       0       0       0       0       0       0
       0       0       0       0       0       0       0       0       0       0
       0       0       0       0       0       0       0       0       0       0
       0       0       0       0       0       0       0       0       0       0
       0       0       0       0       0       0       0       0       0       0
       0       0       0       0       0       0       0       0       0       0
       0       0       0       0       0       0       0       0       0       0
       0       0       0       0       0       0       0       0       0       0
       0       0       0       0       0       0       0       0       0       0
       0       0       0       0       0       0       0       0       0       0
       0       0       0       0       0       0       0       0       0       0
       0       0       0       0       0       0       0       0       0       0
       0       0       0       0       0       0       0       0       0       0
       0       0       0       0       0       0       0       0       0       0
       0       0       0       0       0       0       0       0       0       0
       0       0       0       0       0       0       0       0       0       0
       0       0       0       0       0       0       0       0       0       0
       0       0       0       0       0       0       0       0       0       0
       0       0       0       0       0       0       0       0       0       0
       0       0       0       0       0       0       0       0       0       0
       0       0       0       0       0       0       0       0       0       0
       0       0       0       0       0       0       0       0       0       0
       0       0       0       0       0       0       0       0       0       0
       0       0       0       0       0       0       0       0       0       0
       0       0       0       0       0       0       0       0       0       0
       0       0       0       0       0       0       0       0       0       0
       0       0       0       0       0       0       0       0       0       0
       0       0       0       0       0       0       0       0       0       0
       0       0       0       0       0       0       0       0       0       0
       0       0       0       0       0       0       0       0       0       0
       0       0       0       0       0       0       0       0       0       0
       0       0       0       0       0       0       0       0       0       0
       0       0       0       0       0       0       0       0       0       0
       0       0       0       0       0       0       0       0       0       0
       0       0       0       0       0       0       0       0       0       0
       0       0       0       0       0       0       0       0       0       0
       0       0       0       0       0       0       0       0       0       0
       0       0       0       0       0       0       0       0       0       0
       0       0       0       0       0       0       0       0       0       0
       0       0       0       0       0       0       0       0       0       0
       0       0       0       0       0       0       0       0       0       0
       0       0       0       0       0       0       0       0       0       0
       0       0       0       0       0       0       0       0       0       0
       0       0       0       0       0       0       0       0       0       0
       0       0       0       0       0       0       0       0       0       0
       0       0       0       0       0       0       0       0       0       0
       0       0       0       0       0       0       0       0       0       0
       0       0       0       0       0       0       0       0       0       0
       0       0       0       0       0       0       0       0       0       0
       0       0       0       0       0       0       0       0       0       0
       0       0       0       0       0       0       0       0       0       0
       0       0       0       0       0       0       0       0       0       0
       0       0       0       0       0       0       0       0       0       0
       0       0       0       0       0       0       0       0       0       0
       0       0       0       0       0       0       0       0       0       0
       0       0       0       0       0       0       0       0       0       0
       0       0       0       0       0       0       0       0       0       0
       0       0       0       0       0       0       0       0       0       0
       0       0       0       0       0       0       0       0       0       0
       0       0       0       0       0       0       0       0       0       0
       0       0       0       0       0       0       0       0       0       0
       0       0       0       0       0       0       0       0       0       0
       0       0       0       0       0       0       0       0       0       0
       0       0       0       0       0       0       0       0       0       0
       0       0       0       0       0       0       0       0       0       0
       0       0       0       0       0       0       0       0       0       0
       0       0       0       0       0       0       0       0       0       0
       0       0       0       0       0       0       0       0       0       0
       0       0       0       0       0       0       0       0       0       0
       0       0       0       0       0       0       0       0       0       0
       0       0       0       0       0       0       0       0       0       0
       0       0       0       0       0       0       0       0       0       0
       0       0       0       0       0       0       0       0       0       0
       0       0       0       0       0       0       0       0       0       0
       0       0       0       0       0       0       0       0       0       0
       0       0       0       0       0       0       0       0       0       0
       0       0       0       0       0       0       0       0       0       0
       0       0       0       0       0       0       0       0       0       0
       0       0       0       0       0       0       0       0       0       0
       0       0       0       0       0       0       0       0       0       0
       0       0       0       0       0       0       0       0       0       0
       0       0       0       0       0       0       0       0       0       0
       0       0       0       0       0       0       0       0       0       0
       0       0       0       0       0       0       0       0       0       0
       0       0       0       0       0       0       0       0       0       0
       0       0       0       0       0       0       0       0       0       0
       0       0       0       0       0       0       0       0       0       0
       0       0       0       0       0       0       0       0       0       0
       0       0       0       0       0       0       0       0       0       0
       0       0       0       0       0       0       0       0       0       0
       0       0       0       0       0       0       0       0       0       0
       0       0       0       0       0       0       0       0       0       0
       0       0       0       0       0       0       0       0       0       0
       0       0       0       0       0       0       0       0       0       0
       0       0       0       0       0       0       0       0       0       0
       0       0       0       0       0       0       0       0       0       0
       0       0       0       0       0       0       0       0       0       0
       0       0       0       0       0       0       0       0       0       0
       0       0       0       0       0       0       0       0       0       0
       0       0       0       0       0       0       0       0       0       0
       0       0       0       0       0       0       0       0       0       0
       0       0       0       0       0       0       0       0       0       0
       0       0       0       0       0       0       0       0       0       0
       0       0       0       0       0       0       0       0       0       0
       0       0       0       0       0       0       0       0       0       0
       0       0       0       0       0       0       0       0       0       0
       0       0       0       0       0       0       0       0       0       0
       0       0       0       0       0       0       0       0       0       0
       0       0       0       0       0       0       0       0       0       0
       0       0       0       0       0       0       0       0       0       0
       0       0       0       0       0       0       0       0       0       0
       0       0       0       0       0       0       0       0       0       0
       0       0       0       0       0       0       0       0       0       0
       0       0       0       0       0       0       0       0       0       0
       0       0       0       0       0       0       0       0       0       0
       0       0       0       0       0       0       0       0       0       0
       0       0       0       0       0       0       0       0       0       0
       0       0       0       0       0       0       0       0       0       0
       0       0       0       0       0       0       0       0       0       0
       0       0       0       0       0       0       0       0       0       0
       0       0       0       0       0       0       0       0       0       0
       0       0       0       0       0       0       0       0       0       0
       0       0       0       0       0       0       0       0       0       0
       0       0       0       0       0       0       0       0       0       0
       0       0       0       0       0       0       0       0       0       0
       0       0       0       0       0       0       0       0       0       0
       0       0       0       0       0       0       0       0       0       0
       0       0       0       0       0       0       0       0       0       0
       0       0       0       0       0       0       0       0       0       0
       0       0       0       0       0       0       0       0       0       0
       0       0       0       0       0       0       0       0       0       0
       0       0       0       0       0       0       0       0       0       0
       0       0       0       0       0       0       0       0       0       0
       0       0       0       0       0       0       0       0       0       0
       0       0       0       0       0       0       0       0       0       0
       0       0       0       0       0       0       0       0       0       0
       0       0       0       0       0       0       0       0       0       0
       0       0       0       0       0       0       0       0       0       0
       0       0       0       0       0       0       0       0       0       0
       0       0       0       0       0       0       0       0       0       0
       0       0       0       0       0       0       0       0       0       0
       0       0       0       0       0       0       0       0       0       0
       0       0       0       0       0       0       0       0       0       0
       0       0       0       0       0       0       0       0       0       0
       0       0       0       0       0       0       0       0       0       0
       0       0       0       0       0       0       0       0       0       0
       0       0       0       0       0       0       0       0       0       0
       0       0       0       0       0       0       0       0       0       0
       0       0       0       0       0       0       0       0       0       0
       0       0       0       0       0       0       0       0       0       0
       0       0       0       0       0       0       0       0       0       0
       0       0       0       0       0       0       0       0       0       0
       0       0       0       0       0       0       0       0       0       0
       0       0       0       0       0       0       0       0       0       0
       0       0       0       0       0       0       0       0       0       0
       0       0       0       0       0       0       0       0       0       0
       0       0       0       0       0       0       0       0       0       0
       0       0       0       0       0       0       0       0       0       0
       0       0       0       0       0       0       0       0       0       0
       0       0       0       0       0       0       0       0       0       0
       0       0       0       0       0       0       0       0       0       0
       0       0       0       0       0       0       0       0       0       0
       0       0       0       0       0       0       0       0       0       0
       0       0       0       0       0       0       0       0       0       0
       0       0       0       0       0       0       0       0       0       0
       0       0       0       0       0       0       0       0       0       0
       0       0       0       0       0       0       0       0       0       0
       0       0       0       0       0       0       0       0       0       0
       0       0       0       0       0       0       0       0       0       0
       0       0       0       0       0       0       0       0       0       0
       0       0       0       0       0       0       0       0       0       0
       0       0       0       0       0       0       0       0       0       0
       0       0       0       0       0       0       0       0       0       0
       0       0       0       0       0       0       0       0       0       0
       0       0       0       0       0       0       0       0       0       0
       0       0       0       0       0       0       0       0       0       0
       0       0       0       0       0       0       0       0       0       0
       0       0       0       0       0       0       0       0       0       0
       0       0       0       0       0       0       0       0       0       0
       0       0       0       0       0       0       0       0       0       0
       0       0       0       0       0       0       0       0       0       0
       0       0       0       0       0       0       0       0       0       0
       0       0       0       0       0       0       0       0       0       0
       0       0       0       0       0       0       0       0       0       0
       0       0       0       0       0       0       0       0       0       0
       0       0       0       0       0       0       0       0       0       0
       0       0       0       0       0       0       0       0       0       0
       0       0       0       0       0       0       0       0       0       0
       0       0       0       0       0       0       0       0       0       0
       0       0       0       0       0       0       0       0       0       0
       0       0       0       0       0       0       0       0       0       0
       0       0       0       0       0       0       0       0       0       0
       0       0       0       0       0       0       0       0       0       0
       0       0       0       0       0       0       0       0       0       0
       0       0       0       0       0       0       0       0       0       0
       0       0       0       0       0       0       0       0       0       0
       0       0       0       0       0       0       0       0       0       0
       0       0       0       0       0       0       0       0       0       0
       0       0       0       0       0       0       0       0       0       0
       0       0       0       0       0       0       0       0       0       0
       0       0       0       0       0       0       0       0       0       0
       0       0       0       0       0       0       0       0       0       0
       0       0       0       0       0       0       0       0       0       0
       0       0       0       0       0       0       0       0       0       0
       0       0       0       0       0       0       0       0       0       0
       0       0       0       0       0       0       0       0       0       0
       0       0       0       0       0       0       0       0       0       0
       0       0       0       0       0       0       0       0       0       0
       0       0       0       0       0       0       0       0       0       0
       0       0       0       0       0       0       0       0       0       0
       0       0       0       0       0       0       0       0       0       0
       0       0       0       0       0       0       0       0       0       0
       0       0       0       0       0       0       0       0       0       0
       0       0       0       0       0       0       0       0       0       0
       0       0       0       0       0       0       0       0       0       0
       0       0       0       0       0       0       0       0       0       0
       0       0       0       0       0       0       0       0       0       0
       0       0       0       0       0       0       0       0       0       0
       0       0       0       0       0       0       0       0       0       0
       0       0       0       0       0       0       0       0       0       0
       0       0       0       0       0       0       0       0       0       0
       0       0       0       0       0       0       0       0       0       0
       0       0       0       0       0       0       0       0       0       0
       0       0       0       0       0       0       0       0       0       0
       0       0       0       0       0       0       0       0       0       0
       0       0       0       0       0       0       0       0       0       0
       0       0       0       0       0       0       0       0       0       0
       0       0       0       0       0       0       0       0       0       0
       0       0       0       0       0       0       0       0       0       0
       0       0       0       0       0       0       0       0       0       0
       0       0       0       0       0       0       0       0       0       0
       0       0       0       0       0       0       0       0       0       0
       0       0       0       0       0       0       0       0       0       0
       0       0       0       0       0       0       0       0       0       0
       0       0       0       0       0       0       0       0       0       0
       0       0       0       0       0       0       0       0       0       0
       0       0       0       0       0       0       0       0       0       0
       0       0       0       0       0       0       0       0       0       0
       0       0       0       0       0       0       0       0       0       0
       0       0       0       0       0       0       0       0       0       0
       0       0       0       0       0       0       0       0       0       0
       0       0       0       0       0       0       0       0       0       0
       0       0       0       0       0       0       0       0       0       0
       0       0       0       0       0       0       0       0       0       0
       0       0       0       0       0       0       0       0       0       0
       0       0       0       0       0       0       0       0       0       0
       0       0       0       0       0       0       0       0       0       0
       0       0       0       0       0       0       0       0       0       0
       0       0       0       0       0       0       0       0       0       0
       0       0       0       0       0       0       0       0       0       0
       0       0       0       0       0       0       0       0       0       0
       0       0       0       0       0       0       0       0       0       0
       0       0       0       0       0       0       0       0       0       0
       0       0       0       0       0       0       0       0       0       0
       0       0       0       0       0       0       0       0       0       0
       0       0       0       0       0       0       0       0       0       0
       0       0       0       0       0       0       0       0       0       0
       0       0       0       0       0       0       0       0       0       0
       0       0       0       0       0       0       0       0       0       0
       0       0       0       0       0       0       0       0       0       0
       0       0       0       0       0       0       0       0       0       0
       0       0       0       0       0       0       0       0       0       0
       0       0       0       0       0       0       0       0       0       0
       0       0       0       0       0       0       0       0       0       0
       0       0       0       0       0       0       0       0       0       0
       0       0       0       0       0       0       0       0       0       0
       0       0       0       0       0       0       0       0       0       0
       0       0       0       0       0       0       0       0       0       0
       0       0       0       0       0       0       0       0       0       0
       0       0       0       0       0       0       0       0       0       0
       0       0       0       0       0       0       0       0       0       0
       0       0       0       0       0       0       0       0       0       0
       0       0       0       0       0       0       0       0       0       0
       0       0       0       0       0       0       0       0       0       0
       0       0       0       0       0       0       0       0       0       0
       0       0       0       0       0       0       0       0       0       0
       0       0       0       0       0       0       0       0       0       0
       0       0       0       0       0       0       0       0       0       0
       0       0       0       0       0       0       0       0       0       0
       0       0       0       0       0       0       0       0       0       0
       0       0       0       0       0       0       0       0       0       0
       0       0       0       0       0       0       0       0       0       0
       0       0       0       0       0       0       0       0       0       0
       0       0       0       0       0       0       0       0       0       0
       0       0       0       0       0       0       0       0       0       0
       0       0       0       0       0       0       0       0       0       0
       0       0       0       0       0       0       0       0       0       0
       0       0       0       0       0       0       0       0       0       0
       0       0       0       0       0       0       0       0       0       0
       0       0       0       0       0       0       0       0       0       0
       0       0       0       0       0       0       0       0       0       0
       0       0       0       0       0       0       0       0       0       0
       0       0       0       0       0       0       0       0       0       0
       0       0       0       0       0       0       0       0       0       0
       0       0       0       0       0       0       0       0       0       0
       0       0       0       0       0       0       0       0       0       0
       0       0       0       0       0       0       0       0       0       0
       0       0       0       0       0       0       0       0       0       0
       0       0       0       0       0       0       0       0       0       0
       0       0       0       0       0       0       0       0       0       0
       0       0       0       0       0       0       0       0       0       0
       0       0       0       0       0       0       0       0       0       0
       0       0       0       0       0       0       0       0       0       0
       0       0       0       0       0       0       0       0       0       0
       0       0       0       0       0       0       0       0       0       0
       0       0       0       0       0       0       0       0       0       0
       0       0       0       0       0       0       0       0       0       0
       0       0       0       0       0       0       0       0       0       0
       0       0       0       0       0       0       0       0       0       0
       0       0       0       0       0       0       0       0       0       0
       0       0       0       0       0       0       0       0       0       0
       0       0       0       0       0       0       0       0       0       0
       0       0       0       0       0       0       0       0       0       0
       0       0       0       0       0       0       0       0       0       0
       0       0       0       0       0       0       0       0       0       0
       0       0       0       0       0       0       0       0       0       0
       0       0       0       0       0       0       0       0       0       0
       0       0       0       0       0       0       0       0       0       0
       0       0       0       0       0       0       0       0       0       0
       0       0       0       0       0       0       0       0       0       0
       0       0       0       0       0       0       0       0       0       0
       0       0       0       0       0       0       0       0       0       0
       0       0       0       0       0       0       0       0       0       0
       0       0       0       0       0       0       0       0       0       0
       0       0       0       0       0       0       0       0       0       0
       0       0       0       0       0       0       0       0       0       0
       0       0       0       0       0       0       0       0       0       0
       0       0       0       0       0       0       0       0       0       0
       0       0       0       0       0       0       0       0       0       0
       0       0       0       0       0       0       0       0       0       0
       0       0       0       0       0       0       0       0       0       0
       0       0       0       0       0       0       0       0       0       0
       0       0       0       0       0       0       0       0       0       0
       0       0       0       0       0       0       0       0       0       0
       0       0       0       0       0       0       0       0       0       0
       0       0       0       0       0       0       0       0       0       0
       0       0       0       0       0       0       0       0       0       0
       0       0       0       0       0       0       0       0       0       0
       0       0       0       0       0       0       0       0       0       0
       0       0       0       0       0       0       0       0       0       0
       0       0       0       0       0       0       0       0       0       0
       0       0       0       0       0       0       0       0       0       0
       0       0       0       0       0       0       0       0       0       0
       0       0       0       0       0       0       0       0       0       0
       0       0       0       0       0       0       0       0       0       0
       0       0       0       0       0       0       0       0       0       0
       0       0       0       0       0       0       0       0       0       0
       0       0       0       0       0       0       0       0       0       0
       0       0       0       0       0       0       0       0       0       0
       0       0       0       0       0       0       0       0       0       0
       0       0       0       0       0       0       0       0       0       0
       0       0       0       0       0       0       0       0       0       0
       0       0       0       0       0       0       0       0       0       0
       0       0       0       0       0       0       0       0       0       0
       0       0       0       0       0       0       0       0       0       0
       0       0       0       0       0       0       0       0       0       0
       0       0       0       0       0       0       0       0       0       0
       0       0       0       0       0       0       0       0       0       0
       0       0       0       0       0       0       0       0       0       0
       0       0       0       0       0       0       0       0       0       0
       0       0       0       0       0       0       0       0       0       0
       0       0       0       0       0       0       0       0       0       0
       0       0       0       0       0       0       0       0       0       0
       0       0       0       0       0       0       0       0       0       0
       0       0       0       0       0       0       0       0       0       0
       0       0       0       0       0       0       0       0       0       0
       0       0       0       0       0       0       0       0       0       0
       0       0       0       0       0       0       0       0       0       0
       0       0       0       0       0       0       0       0       0       0
       0       0       0       0       0       0       0       0       0       0
       0       0       0       0       0       0       0       0       0       0
       0       0       0       0       0       0       0       0       0       0
       0       0       0       0       0       0       0       0       0       0
       0       0       0       0       0       0       0       0       0       0
       0       0       0       0       0       0       0       0       0       0
       0       0       0       0       0       0       0       0       0       0
       0       0       0       0       0       0       0       0       0       0
       0       0       0       0       0       0       0       0       0       0
       0       0       0       0       0       0       0       0       0       0
       0       0       0       0       0       0       0       0       0       0
       0       0       0       0       0       0       0       0       0       0
       0       0       0       0       0       0       0       0       0       0
       0       0       0       0       0       0       0       0       0       0
       0       0       0       0       0       0       0       0       0       0
       0       0       0       0       0       0       0       0       0       0
       0       0       0       0       0       0       0       0       0       0
       0       0       0       0       0       0       0       0       0       0
       0       0       0       0       0       0       0       0       0       0
       0       0       0       0       0       0       0       0       0       0
       0       0       0       0       0       0       0       0       0       0
       0       0       0       0       0       0       0       0       0       0
       0       0       0       0       0       0       0       0       0       0
       0       0       0       0       0       0       0       0       0       0
       0       0       0       0       0       0       0       0       0       0
       0       0       0       0       0       0       0       0       0       0
       0       0       0       0       0       0       0       0       0       0
       0       0       0       0       0       0       0       0       0       0
       0       0       0       0       0       0       0       0       0       0
       0       0       0       0       0       0       0       0       0       0
       0       0       0       0       0       0       0       0       0       0
       0       0       0       0       0       0       0       0       0       0
       0       0       0       0       0       0       0       0       0       0
       0       0       0       0       0       0       0       0       0       0
       0       0       0       0       0       0       0       0       0       0
       0       0       0       0       0       0       0       0       0       0
       0       0       0       0       0       0       0       0       0       0
       0       0       0       0       0       0       0       0       0       0
       0       0       0       0       0       0       0       0       0       0
       0       0       0       0       0       0       0       0       0       0
       0       0       0       0       0       0       0       0       0       0
       0       0       0       0       0       0       0       0       0       0
       0       0       0       0       0       0       0       0       0       0
       0       0       0       0       0       0       0       0       0       0
       0       0       0       0       0       0       0       0       0       0
       0       0       0       0       0       0       0       0       0       0
       0       0       0       0       0       0       0       0       0       0
       0       0       0       0       0       0       0       0       0       0
       0       0       0       0       0       0       0       0       0       0
       0       0       0       0       0       0       0       0       0       0
       0       0       0       0       0       0       0       0       0       0
       0       0       0       0       0       0       0       0       0       0
       0       0       0       0       0       0       0       0       0       0
       0       0       0       0       0       0       0       0       0       0
       0       0       0       0       0       0       0       0       0       0
       0       0       0       0       0       0       0       0       0       0
       0       0       0       0       0       0       0       0       0       0
       0       0       0       0       0       0       0       0       0       0
       0       0       0       0       0       0       0       0       0       0
       0       0       0       0       0       0       0       0       0       0
       0       0       0       0       0       0       0       0       0       0
       0       0       0       0       0       0       0       0       0       0
       0       0       0       0       0       0       0       0       0       0
       0       0       0       0       0       0       0       0       0       0
       0       0       0       0       0       0       0       0       0       0
       0       0       0       0       0       0       0       0       0       0
       0       0       0       0       0       0       0       0       0       0
       0       0       0       0       0       0       0       0       0       0
       0       0       0       0       0       0       0       0       0       0
       0       0       0       0       0       0       0       0       0       0
       0       0       0       0       0       0       0       0       0       0
       0       0       0       0       0       0       0       0       0       0
       0       0       0       0       0       0       0       0       0       0
       0       0       0       0       0       0       0       0       0       0
       0       0       0       0       0       0       0       0       0       0
       0       0       0       0       0       0       0       0       0       0
       0       0       0       0       0       0       0       0       0       0
       0       0       0       0       0       0       0       0       0       0
       0       0       0       0       0       0       0       0       0       0
       0       0       0       0       0       0       0       0       0       0
       0       0       0       0       0       0       0       0       0       0
       0       0       0       0       0       0       0       0       0       0
       0       0       0       0       0       0       0       0       0       0
       0       0       0       0       0       0       0       0       0       0
       0       0       0       0       0       0       0       0       0       0
       0       0       0       0       0       0       0       0       0       0
       0       0       0       0       0       0       0       0       0       0
       0       0       0       0       0       0       0       0       0       0
       0       0       0       0       0       0       0       0       0       0
       0       0       0       0       0       0       0       0       0       0
       0       0       0       0       0       0       0       0       0       0
       0       0       0       0       0       0       0       0       0       0
       0       0       0       0       0       0       0       0       0       0
       0       0       0       0       0       0       0       0       0       0
       0       0       0       0       0       0       0       0       0       0
       0       0       0       0       0       0       0       0       0       0
       0       0       0       0       0       0       0       0       0       0
       0       0       0       0       0       0       0       0       0       0
       0       0       0       0       0       0       0       0       0       0
       0       0       0       0       0       0       0       0       0       0
       0       0       0       0       0       0       0       0       0       0
       0       0       0       0       0       0       0       0       0       0
       0       0       0       0       0       0       0       0       0       0
       0       0       0       0       0       0       0       0       0       0
       0       0       0       0       0       0       0       0       0       0
       0       0       0       0       0       0       0       0       0       0
       0       0       0       0       0       0       0       0       0       0
       0       0       0       0       0       0       0       0       0       0
       0       0       0       0       0       0       0       0       0       0
       0       0       0       0       0       0       0       0       0       0
       0       0       0       0       0       0       0       0       0       0
       0       0       0       0       0       0       0       0       0       0
       0       0       0       0       0       0       0       0       0       0
       0       0       0       0       0       0       0       0       0       0
       0       0       0       0       0       0       0       0       0       0
       0       0       0       0       0       0       0       0       0       0
       0       0       0       0       0       0       0       0       0       0
       0       0       0       0       0       0       0       0       0       0
       0       0       0       0       0       0       0       0       0       0
       0       0       0       0       0       0       0       0       0       0
       0       0       0       0       0       0       0       0       0       0
       0       0       0       0       0       0       0       0       0       0
       0       0       0       0       0       0       0       0       0       0
       0       0       0       0       0       0       0       0       0       0
       0       0       0       0       0       0       0       0       0       0
       0       0       0       0       0       0       0       0       0       0
       0       0       0       0       0       0       0       0       0       0
       0       0       0       0       0       0       0       0       0       0
       0       0       0       0       0       0       0       0       0       0
       0       0       0       0       0       0       0       0       0       0
       0       0       0       0       0       0       0       0       0       0
       0       0       0       0       0       0       0       0       0       0
       0       0       0       0       0       0       0       0       0       0
       0       0       0       0       0       0       0       0       0       0
       0       0       0       0       0       0       0       0       0       0
       0       0       0       0       0       0       0       0       0       0
       0       0       0       0       0       0       0       0       0       0
       0       0       0       0       0       0       0       0       0       0
       0       0       0       0       0       0       0       0       0       0
       0       0       0       0       0       0       0       0       0       0
       0       0       0       0       0       0       0       0       0       0
       0       0       0       0       0       0       0       0       0       0
       0       0       0       0       0       0       0       0       0       0
       0       0       0       0       0       0       0       0       0       0
       0       0       0       0       0       0       0       0       0       0
       0       0       0       0       0       0       0       0       0       0
       0       0       0       0       0       0       0       0       0       0
       0       0       0       0       0       0       0       0       0       0
       0       0       0       0       0       0       0       0       0       0
       0       0       0       0       0       0       0       0       0       0
       0       0       0       0       0       0       0       0       0       0
       0       0       0       0       0       0       0       0       0       0
       0       0       0       0       0       0       0       0       0       0
       0       0       0       0       0       0       0       0       0       0
       0       0       0       0       0       0       0       0       0       0
       0       0       0       0       0       0       0       0       0       0
       0       0       0       0       0       0       0       0       0       0
       0       0       0       0       0       0       0       0       0       0
       0       0       0       0       0       0       0       0       0       0
       0       0       0       0       0       0       0       0       0       0
       0       0       0       0       0       0       0       0       0       0
       0       0       0       0       0       0       0       0       0       0
       0       0       0       0       0       0       0       0       0       0
       0       0       0       0       0       0       0       0       0       0
       0       0       0       0       0       0       0       0       0       0
       0       0       0       0       0       0       0       0       0       0
       0       0       0       0       0       0       0       0       0       0
       0       0       0       0       0       0       0       0       0       0
       0       0       0       0       0       0       0       0       0       0
       0       0       0       0       0       0       0       0       0       0
       0       0       0       0       0       0       0       0       0       0
       0       0       0       0       0       0       0       0       0       0
       0       0       0       0       0       0       0       0       0       0
       0       0       0       0       0       0       0       0       0       0
       0       0       0       0       0       0       0       0       0       0
       0       0       0       0       0       0       0       0       0       0
       0       0       0       0       0       0       0       0       0       0
       0       0       0       0       0       0       0       0       0       0
       0       0       0       0       0       0       0       0       0       0
       0       0       0       0       0       0       0       0       0       0
       0       0       0       0       0       0       0       0       0       0
       0       0       0       0       0       0       0       0       0       0
       0       0       0       0       0       0       0       0       0       0
       0       0       0       0       0       0       0       0       0       0
       0       0       0       0       0       0       0       0       0       0
       0       0       0       0       0       0       0       0       0       0
       0       0       0       0       0       0       0       0       0       0
       0       0       0       0       0       0       0       0       0       0
       0       0       0       0       0       0       0       0       0       0
       0       0       0       0       0       0       0       0       0       0
       0       0       0       0       0       0       0       0       0       0
       0       0       0       0       0       0       0       0       0       0
       0       0       0       0       0       0       0       0       0       0
       0       0       0       0       0       0       0       0       0       0
       0       0       0       0       0       0       0       0       0       0
       0       0       0       0       0       0       0       0       0       0
       0       0       0       0       0       0       0       0       0       0
       0       0       0       0       0       0       0       0       0       0
       0       0       0       0       0       0       0       0       0       0
       0       0       0       0       0       0       0       0       0       0
       0       0       0       0       0       0       0       0       0       0
       0       0       0       0       0       0       0       0       0       0
       0       0       0       0       0       0       0       0       0       0
       0       0       0       0       0       0       0       0       0       0
       0       0       0       0       0       0       0       0       0       0
       0       0       0       0       0       0       0       0       0       0
       0       0       0       0       0       0       0       0       0       0
       0       0       0       0       0       0       0       0       0       0
       0       0       0       0       0       0       0       0       0       0
       0       0       0       0       0       0       0       0       0       0
       0       0       0       0       0       0       0       0       0       0
       0       0       0       0       0       0       0       0       0       0
       0       0       0       0       0       0       0       0       0       0
       0       0       0       0       0       0       0       0       0       0
       0       0       0       0       0       0       0       0       0       0
       0       0       0       0       0       0       0       0       0       0
       0       0       0       0       0       0       0       0       0       0
       0       0       0       0       0       0       0       0       0       0
       0       0       0       0       0       0       0       0       0       0
       0       0       0       0       0       0       0       0       0       0
       0       0       0       0       0       0       0       0       0       0
       0       0       0       0       0       0       0       0       0       0
       0       0       0       0       0       0       0       0       0       0
       0       0       0       0       0       0       0       0       0       0
       0       0       0       0       0       0       0       0       0       0
       0       0       0       0       0       0       0       0       0       0
       0       0       0       0       0       0       0       0       0       0
       0       0       0       0       0       0       0       0       0       0
       0       0       0       0       0       0       0       0       0       0
       0       0       0       0       0       0       0       0       0       0
       0       0       0       0       0       0       0       0       0       0
       0       0       0       0       0       0       0       0       0       0
       0       0       0       0       0       0       0       0       0       0
       0       0       0       0       0       0       0       0       0       0
       0       0       0       0       0       0       0       0       0       0
       0       0       0       0       0       0       0       0       0       0
       0       0       0       0       0       0       0       0       0       0
       0       0       0       0       0       0       0       0       0       0
       0       0       0       0       0       0       0       0       0       0
       0       0       0       0       0       0       0       0       0       0
       0       0       0       0       0       0       0       0       0       0
       0       0       0       0       0       0       0       0       0       0
       0       0       0       0       0       0       0       0       0       0
       0       0       0       0       0       0       0       0       0       0
       0       0       0       0       0       0       0       0       0       0
       0       0       0       0       0       0       0       0       0       0
       0       0       0       0       0       0       0       0       0       0
       0       0       0       0       0       0       0       0       0       0
       0       0       0       0       0       0       0       0       0       0
       0       0       0       0       0       0       0       0       0       0
       0       0       0       0       0       0       0       0       0       0
       0       0       0       0       0       0       0       0       0       0
       0       0       0       0       0       0       0       0       0       0
       0       0       0       0       0       0       0       0       0       0
       0       0       0       0       0       0       0       0       0       0
       0       0       0       0       0       0       0       0       0       0
       0       0       0       0       0       0       0       0       0       0
       0       0       0       0       0       0       0       0       0       0
       0       0       0       0       0       0       0       0       0       0
       0       0       0       0       0       0       0       0       0       0
       0       0       0       0       0       0       0       0       0       0
       0       0       0       0       0       0       0       0       0       0
       0       0       0       0       0       0       0       0       0       0
       0       0       0       0       0       0       0       0       0       0
       0       0       0       0       0       0       0       0       0       0
       0       0       0       0       0       0       0       0       0       0
       0       0       0       0       0       0       0       0       0       0
       0       0       0       0       0       0       0       0       0       0
       0       0       0       0       0       0       0       0       0       0
       0       0       0       0       0       0       0       0       0       0
       0       0       0       0       0       0       0       0       0       0
       0       0       0       0       0       0       0       0       0       0
       0       0       0       0       0       0       0       0       0       0
       0       0       0       0       0       0       0       0       0       0
       0       0       0       0       0       0       0       0       0       0
       0       0       0       0       0       0       0       0       0       0
       0       0       0       0       0       0       0       0       0       0
       0       0       0       0       0       0       0       0       0       0
       0       0       0       0       0       0       0       0       0       0
       0       0       0       0       0       0       0       0       0       0
       0       0       0       0       0       0       0       0       0       0
       0       0       0       0       0       0       0       0       0       0
       0       0       0       0       0       0       0       0       0       0
       0       0       0       0       0       0       0       0       0       0
       0       0       0       0       0       0       0       0       0       0
       0       0       0       0       0       0       0       0       0       0
       0       0       0       0       0       0       0       0       0       0
       0       0       0       0       0       0       0       0       0       0
       0       0       0       0       0       0       0       0       0       0
       0       0       0       0       0       0       0       0       0       0
       0       0       0       0       0       0       0       0       0       0
       0       0       0       0       0       0       0       0       0       0
       0       0       0       0       0       0       0       0       0       0
       0       0       0       0       0       0       0       0       0       0
       0       0       0       0       0       0       0       0       0       0
       0       0       0       0       0       0       0       0       0       0
       0       0       0       0       0       0       0       0       0       0
       0       0       0       0       0       0       0       0       0       0
       0       0       0       0       0       0       0       0       0       0
       0       0       0       0       0       0       0       0       0       0
       0       0       0       0       0       0       0       0       0       0
       0       0       0       0       0       0       0       0       0       0
       0       0       0       0       0       0       0       0       0       0
       0       0       0       0       0       0       0       0       0       0
       0       0       0       0       0       0       0       0       0       0
       0       0       0       0       0       0       0       0       0       0
       0       0       0       0       0       0       0       0       0       0
       0       0       0       0       0       0       0       0       0       0
       0       0       0       0       0       0       0       0       0       0
       0       0       0       0       0       0       0       0       0       0
       0       0       0       0       0       0       0       0       0       0
       0       0       0       0       0       0       0       0       0       0
       0       0       0       0       0       0       0       0       0       0
       0       0       0       0       0       0       0       0       0       0
       0       0       0       0       0       0       0       0       0       0
       0       0       0       0       0       0       0       0       0       0
       0       0       0       0       0       0       0       0       0       0
       0       0       0       0       0       0       0       0       0       0
       0       0       0       0       0       0       0       0       0       0
       0       0       0       0       0       0       0       0       0       0
       0       0       0       0       0       0       0       0       0       0
       0       0       0       0       0       0       0       0       0       0
       0       0       0       0       0       0       0       0       0       0
       0       0       0       0       0       0       0       0       0       0
       0       0       0       0       0       0       0       0       0       0
       0       0       0       0       0       0       0       0       0       0
       0       0       0       0       0       0       0       0       0       0
       0       0       0       0       0       0       0       0       0       0
       0       0       0       0       0       0       0       0       0       0
       0       0       0       0       0       0       0       0       0       0
       0       0       0       0       0       0       0       0       0       0
       0       0       0       0       0       0       0       0       0       0
       0       0       0       0       0       0       0       0       0       0
       0       0       0       0       0       0       0       0       0       0
       0       0       0       0       0       0       0       0       0       0
       0       0       0       0       0       0       0       0       0       0
       0       0       0       0       0       0       0       0       0       0
       0       0       0       0       0       0       0       0       0       0
       0       0       0       0       0       0       0       0       0       0
       0       0       0       0       0       0       0       0       0       0
       0       0       0       0       0       0       0       0       0       0
       0       0       0       0       0       0       0       0       0       0
       0       0       0       0       0       0       0       0       0       0
       0       0       0       0       0       0       0       0       0       0
       0       0       0       0       0       0       0       0       0       0
       0       0       0       0       0       0       0       0       0       0
       0       0       0       0       0       0       0       0       0       0
       0       0       0       0       0       0       0       0       0       0
       0       0       0       0       0       0       0       0       0       0
       0       0       0       0       0       0       0       0       0       0
       0       0       0       0       0       0       0       0       0       0
       0       0       0       0       0       0       0       0       0       0
       0       0       0       0       0       0       0       0       0       0
       0       0       0       0       0       0       0       0       0       0
       0       0       0       0       0       0       0       0       0       0
       0       0       0       0       0       0       0       0       0       0
       0       0       0       0       0       0       0       0       0       0
       0       0       0       0       0       0       0       0       0       0
       0       0       0       0       0       0       0       0       0       0
       0       0       0       0       0       0       0       0       0       0
       0       0       0       0       0       0       0       0       0       0
       0       0       0       0       0       0       0       0       0       0
       0       0       0       0       0       0       0       0       0       0
       0       0       0       0       0       0       0       0       0       0
       0       0       0       0       0       0       0       0       0       0
       0       0       0       0       0       0       0       0       0       0
       0       0       0       0       0       0       0       0       0       0
       0       0       0       0       0       0       0       0       0       0
       0       0       0       0       0       0       0       0       0       0
       0       0       0       0       0       0       0       0       0       0
       0       0       0       0       0       0       0       0       0       0
       0       0       0       0       0       0       0       0       0       0
       0       0       0       0       0       0       0       0       0       0
       0       0       0       0       0       0       0       0       0       0
       0       0       0       0       0       0       0       0       0       0
       0       0       0       0       0       0       0       0       0       0
       0       0       0       0       0       0       0       0       0       0
       0       0       0       0       0       0       0       0       0       0
       0       0       0       0       0       0       0       0       0       0
       0       0       0       0       0       0       0       0       0       0
       0       0       0       0       0       0       0       0       0       0
       0       0       0       0       0       0       0       0       0       0
       0       0       0       0       0       0       0       0       0       0
       0       0       0       0       0       0       0       0       0       0
       0       0       0       0       0       0       0       0       0       0
       0       0       0       0       0       0       0       0       0       0
       0       0       0       0       0       0       0       0       0       0
       0       0       0       0       0       0       0       0       0       0
       0       0       0       0       0       0       0       0       0       0
       0       0       0       0       0       0       0       0       0       0
       0       0       0       0       0       0       0       0       0       0
       0       0       0       0       0       0       0       0       0       0
       0       0       0       0       0       0       0       0       0       0
       0       0       0       0       0       0       0       0       0       0
       0       0       0       0       0       0       0       0       0       0
       0       0       0       0       0       0       0       0       0       0
       0       0       0       0       0       0       0       0       0       0
       0       0       0       0       0       0       0       0       0       0
       0       0       0       0       0       0       0       0       0       0
       0       0       0       0       0       0       0       0       0       0
       0       0       0       0       0       0       0       0       0       0
       0       0       0       0       0       0       0       0       0       0
       0       0       0       0       0       0       0       0       0       0
       0       0       0       0       0       0       0       0       0       0
       0       0       0       0       0       0       0       0       0       0
       0       0       0       0       0       0       0       0       0       0
       0       0       0       0       0       0       0       0       0       0
       0       0       0       0       0       0       0       0       0       0
       0       0       0       0       0       0       0       0       0       0
       0       0       0       0       0       0       0       0       0       0
       0       0       0       0       0       0       0       0       0       0
       0       0       0       0       0       0       0       0       0       0
       0       0       0       0       0       0       0       0       0       0
       0       0       0       0       0       0       0       0       0       0
       0       0       0       0       0       0       0       0       0       0
       0       0       0       0       0       0       0       0       0       0
       0       0       0       0       0       0       0       0       0       0
       0       0       0       0       0       0       0       0       0       0
       0       0       0       0       0       0       0       0       0       0
       0       0       0       0       0       0       0       0       0       0
       0       0       0       0       0       0       0       0       0       0
       0       0       0       0       0       0       0       0       0       0
       0       0       0       0       0       0       0       0       0       0
       0       0       0       0       0       0       0       0       0       0
       0       0       0       0       0       0       0       0       0       0
       0       0       0       0       0       0       0       0       0       0
       0       0       0       0       0       0       0       0       0       0
       0       0       0       0       0       0       0       0       0       0
       0       0       0       0       0       0       0       0       0       0
       0       0       0       0       0       0       0       0       0       0
       0       0       0       0       0       0       0       0       0       0
       0       0       0       0       0       0       0       0       0       0
       0       0       0       0       0       0       0       0       0       0
       0       0       0       0       0       0       0       0       0       0
       0       0       0       0       0       0       0       0       0       0
       0       0       0       0       0       0       0       0       0       0
       0       0       0       0       0       0       0       0       0       0
       0       0       0       0       0       0       0       0       0       0
       0       0       0       0       0       0       0       0       0       0
       0       0       0       0       0       0       0       0       0       0
       0       0       0       0       0       0       0       0       0       0
       0       0       0       0       0       0       0       0       0       0
       0       0       0       0       0       0       0       0       0       0
       0       0       0       0       0       0       0       0       0       0
       0       0       0       0       0       0       0       0       0       0
       0       0       0       0       0       0       0       0       0       0
       0       0       0       0       0       0       0       0       0       0
       0       0       0       0       0       0       0       0       0       0
       0       0       0       0       0       0       0       0       0       0
       0       0       0       0       0       0       0       0       0       0
       0       0       0       0       0       0       0       0       0       0
       0       0       0       0       0       0       0       0       0       0
       0       0       0       0       0       0       0       0       0       0
       0       0       0       0       0       0       0       0       0       0
       0       0       0       0       0       0       0       0       0       0
       0       0       0       0       0       0       0       0       0       0
       0       0       0       0       0       0       0       0       0       0
       0       0       0       0       0       0       0       0       0       0
       0       0       0       0       0       0       0       0       0       0
       0       0       0       0       0       0       0       0       0       0
       0       0       0       0       0       0       0       0       0       0
       0       0       0       0       0       0       0       0       0       0
       0       0       0       0       0       0       0       0       0       0
       0       0       0       0       0       0       0       0       0       0
       0       0       0       0       0       0       0       0       0       0
       0       0       0       0       0       0       0       0       0       0
       0       0       0       0       0       0       0       0       0       0
       0       0       0       0       0       0       0       0       0       0
       0       0       0       0       0       0       0       0       0       0
       0       0       0       0       0       0       0       0       0       0
       0       0       0       0       0       0       0       0       0       0
       0       0       0       0       0       0       0       0       0       0
       0       0       0       0       0       0       0       0       0       0
       0       0       0       0       0       0       0       0       0       0
       0       0       0       0       0       0       0       0       0       0
       0       0       0       0       0       0       0       0       0       0
       0       0       0       0       0       0       0       0       0       0
       0       0       0       0       0       0       0       0       0       0
       0       0       0       0       0       0       0       0       0       0
       0       0       0       0       0       0       0       0       0       0
       0       0       0       0       0       0       0       0       0       0
       0       0       0       0       0       0       0       0       0       0
       0       0       0       0       0       0       0       0       0       0
       0       0       0       0       0       0       0       0       0       0
       0       0       0       0       0       0       0       0       0       0
       0       0       0       0       0       0       0       0       0       0
       0       0       0       0       0       0       0       0       0       0
       0       0       0       0       0       0       0       0       0       0
       0       0       0       0       0       0       0       0       0       0
       0       0       0       0       0       0       0       0       0       0
       0       0       0       0       0       0       0       0       0       0
       0       0       0       0       0       0       0       0       0       0
       0       0       0       0       0       0       0       0       0       0
       0       0       0       0       0       0       0       0       0       0
       0       0       0       0       0       0       0       0       0       0
       0       0       0       0       0       0       0       0       0       0
       0       0       0       0       0       0       0       0       0       0
       0       0       0       0       0       0       0       0       0       0
       0       0       0       0       0       0       0       0       0       0
       0       0       0       0       0       0       0       0       0       0
       0       0       0       0       0       0       0       0       0       0
       0       0       0       0       0       0       0       0       0       0
       0       0       0       0       0       0       0       0       0       0
       0       0       0       0       0       0       0       0       0       0
       0       0       0       0       0       0       0       0       0       0
       0       0       0       0       0       0       0       0       0       0
       0       0       0       0       0       0       0       0       0       0
       0       0       0       0       0       0       0       0       0       0
       0       0       0       0       0       0       0       0       0       0
       0       0       0       0       0       0       0       0       0       0
       0       0       0       0       0       0       0       0       0       0
       0       0       0       0       0       0       0       0       0       0
       0       0       0       0       0       0       0       0       0       0
       0       0       0       0       0       0       0       0       0       0
       0       0       0       0       0       0       0       0       0       0
       0       0       0       0       0       0       0       0       0       0
       0       0       0       0       0       0       0       0       0       0
       0       0       0       0       0       0       0       0       0       0
       0       0       0       0       0       0       0       0       0       0
       0       0       0       0       0       0       0       0       0       0
       0       0       0       0       0       0       0       0       0       0
       0       0       0       0       0       0       0       0       0       0
       0       0       0       0       0       0       0       0       0       0
       0       0       0       0       0       0       0       0       0       0
       0       0       0       0       0       0       0       0       0       0
       0       0       0       0       0       0       0       0       0       0
       0       0       0       0       0       0       0       0       0       0
       0       0       0       0       0       0       0       0       0       0
       0       0       0       0       0       0       0       0       0       0
       0       0       0       0       0       0       0       0       0       0
       0       0       0       0       0       0       0       0       0       0
       0       0       0       0       0       0       0       0       0       0
       0       0       0       0       0       0       0       0       0       0
       0       0       0       0       0       0       0       0       0       0
       0       0       0       0       0       0       0       0       0       0
       0       0       0       0       0       0       0       0       0       0
       0       0       0       0       0       0       0       0       0       0
       0       0       0       0       0       0       0       0       0       0
       0       0       0       0       0       0       0       0       0       0
       0       0       0       0       0       0       0       0       0       0
       0       0       0       0       0       0       0       0       0       0
       0       0       0       0       0       0       0       0       0       0
       0       0       0       0       0       0       0       0       0       0
       0       0       0       0       0       0       0       0       0       0
       0       0       0       0       0       0       0       0       0       0
       0       0       0       0       0       0       0       0       0       0
       0       0       0       0       0       0       0       0       0       0
       0       0       0       0       0       0       0       0       0       0
       0       0       0       0       0       0       0       0       0       0
       0       0       0       0       0       0       0       0       0       0
       0       0       0       0       0       0       0       0       0       0
       0       0       0       0       0       0       0       0       0       0
       0       0       0       0       0       0       0       0       0       0
       0       0       0       0       0       0       0       0       0       0
       0       0       0       0       0       0       0       0       0       0
       0       0       0       0       0       0       0       0       0       0
       0       0       0       0       0       0       0       0       0       0
       0       0       0       0       0       0       0       0       0       0
       0       0       0       0       0       0       0       0       0       0
       0       0       0       0       0       0       0       0       0       0
       0       0       0       0       0       0       0       0       0       0
       0       0       0       0       0       0       0       0       0       0
       0       0       0       0       0       0       0       0       0       0
       0       0       0       0       0       0       0       0       0       0
       0       0       0       0       0       0       0       0       0       0
       0       0       0       0       0       0       0       0       0       0
       0       0       0       0       0       0       0       0       0       0
       0       0       0       0       0       0       0       0       0       0
       0       0       0       0       0       0       0       0       0       0
       0       0       0       0       0       0       0       0       0       0
       0       0       0       0       0       0       0       0       0       0
       0       0       0       0       0       0       0       0       0       0
       0       0       0       0       0       0       0       0       0       0
       0       0       0       0       0       0       0       0       0       0
       0       0       0       0       0       0       0       0       0       0
       0       0       0       0       0       0       0       0       0       0
       0       0       0       0       0       0       0       0       0       0
       0       0       0       0       0       0       0       0       0       0
       0       0       0       0       0       0       0       0       0       0
       0       0       0       0       0       0       0       0       0       0
       0       0       0       0       0       0       0       0       0       0
       0       0       0       0       0       0       0       0       0       0
       0       0       0       0       0       0       0       0       0       0
       0       0       0       0       0       0       0       0       0       0
       0       0       0       0       0       0       0       0       0       0
       0       0       0       0       0       0       0       0       0       0
       0       0       0       0       0       0       0       0       0       0
       0       0       0       0       0       0       0       0       0       0
       0       0       0       0       0       0       0       0       0       0
       0       0       0       0       0       0       0       0       0       0
       0       0       0       0       0       0       0       0       0       0
       0       0       0       0       0       0       0       0       0       0
       0       0       0       0       0       0       0       0       0       0
       0       0       0       0       0       0       0       0       0       0
       0       0       0       0       0       0       0       0       0       0
       0       0       0       0       0       0       0       0       0       0
       0       0       0       0       0       0       0       0       0       0
       0       0       0       0       0       0       0       0       0       0
       0       0       0       0       0       0       0       0       0       0
       0       0       0       0       0       0       0       0       0       0
       0       0       0       0       0       0       0       0       0       0
       0       0       0       0       0       0       0       0       0       0
       0       0       0       0       0       0       0       0       0       0
       0       0       0       0       0       0       0       0       0       0
       0       0       0       0       0       0       0       0       0       0
       0       0       0       0       0       0       0       0       0       0
       0       0       0       0       0       0       0       0       0       0
       0       0       0       0       0       0       0       0       0       0
       0       0       0       0       0       0       0       0       0       0
       0       0       0       0       0       0       0       0       0       0
       0       0       0       0       0       0       0       0       0       0
       0       0       0       0       0       0       0       0       0       0
       0       0       0       0       0       0       0       0       0       0
       0       0       0       0       0       0       0       0       0       0
       0       0       0       0       0       0       0       0       0       0
       0       0       0       0       0       0       0       0       0       0
       0       0       0       0       0       0       0       0       0       0
       0       0       0       0       0       0       0       0       0       0
       0       0       0       0       0       0       0       0       0       0
       0       0       0       0       0       0       0       0       0       0
       0       0       0       0       0       0       0       0       0       0
       0       0       0       0       0       0       0       0       0       0
       0       0       0       0       0       0       0       0       0       0
       0       0       0       0       0       0       0       0       0       0
       0       0       0       0       0       0       0       0       0       0
       0       0       0       0       0       0       0       0       0       0
       0       0       0       0       0       0       0       0       0       0
       0       0       0       0       0       0       0       0       0       0
       0       0       0       0       0       0       0       0       0       0
       0       0       0       0       0       0       0       0       0       0
       0       0       0       0       0       0       0       0       0       0
       0       0       0       0       0       0       0       0       0       0
       0       0       0       0       0       0       0       0       0       0
       0       0       0       0       0       0       0       0       0       0
       0       0       0       0       0       0       0       0       0       0
       0       0       0       0       0       0       0       0       0       0
       0       0       0       0       0       0       0       0       0       0
       0       0       0       0       0       0       0       0       0       0
       0       0       0       0       0       0       0       0       0       0
       0       0       0       0       0       0       0       0       0       0
       0       0       0       0       0       0       0       0       0       0
       0       0       0       0       0       0       0       0       0       0
       0       0       0       0       0       0       0       0       0       0
       0       0       0       0       0       0       0       0       0       0
       0       0       0       0       0       0       0       0       0       0
       0       0       0       0       0       0       0       0       0       0
       0       0       0       0       0       0       0       0       0       0
       0       0       0       0       0       0       0       0       0       0
       0       0       0       0       0       0       0       0       0       0
       0       0       0       0       0       0       0       0       0       0
       0       0       0       0       0       0       0       0       0       0
       0       0       0       0       0       0       0       0       0       0
       0       0       0       0       0       0       0       0       0       0
       0       0       0       0       0       0       0       0       0       0
       0       0       0       0       0       0       0       0       0       0
       0       0       0       0       0       0       0       0       0       0
       0       0       0       0       0       0       0       0       0       0
       0       0       0       0       0       0       0       0       0       0
       0       0       0       0       0       0       0       0       0       0
       0       0       0       0       0       0       0       0       0       0
       0       0       0       0       0       0       0       0       0       0
       0       0       0       0       0       0       0       0       0       0
       0       0       0       0       0       0       0       0       0       0
       0       0       0       0       0       0       0       0       0       0
       0       0       0       0       0       0       0       0       0       0
       0       0       0       0       0       0       0       0       0       0
       0       0       0       0       0       0       0       0       0       0
       0       0       0       0       0       0       0       0       0       0
       0       0       0       0       0       0       0       0       0       0
       0       0       0       0       0       0       0       0       0       0
       0       0       0       0       0       0       0       0       0       0
       0       0       0       0       0       0       0       0       0       0
       0       0       0       0       0       0       0       0       0       0
       0       0       0       0       0       0       0       0       0       0
       0       0       0       0       0       0       0       0       0       0
       0       0       0       0       0       0       0       0       0       0
       0       0       0       0       0       0       0       0       0       0
       0       0       0       0       0       0       0       0       0       0
       0       0       0       0       0       0       0       0       0       0
       0       0       0       0       0       0       0       0       0       0
       0       0       0       0       0       0       0       0       0       0
       0       0       0       0       0       0       0       0       0       0
       0       0       0       0       0       0       0       0       0       0
       0       0       0       0       0       0       0       0       0       0
       0       0       0       0       0       0       0       0       0       0
       0       0       0       0       0       0       0       0       0       0
       0       0       0       0       0       0       0       0       0       0
       0       0       0       0       0       0       0       0       0       0
       0       0       0       0       0       0       0       0       0       0
       0       0       0       0       0       0       0       0       0       0
       0       0       0       0       0       0       0       0       0       0
       0       0       0       0       0       0       0       0       0       0
       0       0       0       0       0       0       0       0       0       0
       0       0       0       0       0       0       0       0       0       0
       0       0       0       0       0       0       0       0       0       0
       0       0       0       0       0       0       0       0       0       0
       0       0       0       0       0       0       0       0       0       0
       0       0       0       0       0       0       0       0       0       0
       0       0       0       0       0       0       0       0       0       0
       0       0       0       0       0       0       0       0       0       0
       0       0       0       0       0       0       0       0       0       0
       0       0       0       0       0       0       0       0       0       0
       0       0       0       0       0       0       0       0       0       0
       0       0       0       0       0       0       0       0       0       0
       0       0       0       0       0       0       0       0       0       0
       0       0       0       0       0       0       0       0       0       0
       0       0       0       0       0       0       0       0       0       0
       0       0       0       0       0       0       0       0       0       0
       0       0       0       0       0       0       0       0       0       0
       0       0       0       0       0       0       0       0       0       0
       0       0       0       0       0       0       0       0       0       0
       0       0       0       0       0       0       0       0       0       0
       0       0       0       0       0       0       0       0       0       0
       0       0       0       0       0       0       0       0       0       0
       0       0       0       0       0       0       0       0       0       0
       0       0       0       0       0       0       0       0       0       0
       0       0       0       0       0       0       0       0       0       0
       0       0       0       0       0       0       0       0       0       0
       0       0       0       0       0       0       0       0       0       0
       0       0       0       0       0       0       0       0       0       0
       0       0       0       0       0       0       0       0       0       0
       0       0       0       0       0       0       0       0       0       0
       0       0       0       0       0       0       0       0       0       0
       0       0       0       0       0       0       0       0       0       0
       0       0       0       0       0       0       0       0       0       0
       0       0       0       0       0       0       0       0       0       0
       0       0       0       0       0       0       0       0       0       0
       0       0       0       0       0       0       0       0       0       0
       0       0       0       0       0       0       0       0       0       0
       0       0       0       0       0       0       0       0       0       0
       0       0       0       0       0       0       0       0       0       0
       0       0       0       0       0       0       0       0       0       0
       0       0       0       0       0       0       0       0       0       0
       0       0       0       0       0       0       0       0       0       0
       0       0       0       0       0       0       0       0       0       0
       0       0       0       0       0       0       0       0       0       0
       0       0       0       0       0       0       0       0       0       0
       0       0       0       0       0       0       0       0       0       0
       0       0       0       0       0       0       0       0       0       0
       0       0       0       0       0       0       0       0       0       0
       0       0       0       0       0       0       0       0       0       0
       0       0       0       0       0       0       0       0       0       0
       0       0       0       0       0       0       0       0       0       0
       0       0       0       0       0       0       0       0       0       0
       0       0       0       0       0       0       0       0       0       0
       0       0       0       0       0       0       0       0       0       0
       0       0       0       0       0       0       0       0       0       0
       0       0       0       0       0       0       0       0       0       0
       0       0       0       0       0       0       0       0       0       0
       0       0       0       0       0       0       0       0       0       0
       0       0       0       0       0       0       0       0       0       0
       0       0       0       0       0       0       0       0       0       0
       0       0       0       0       0       0       0       0       0       0
       0       0       0       0       0       0       0       0       0       0
       0       0       0       0       0       0       0       0       0       0
       0       0       0       0       0       0       0       0       0       0
       0       0       0       0       0       0       0       0       0       0
       0       0       0       0       0       0       0       0       0       0
       0       0       0       0       0       0       0       0       0       0
       0       0       0       0       0       0       0       0       0       0
       0       0       0       0       0       0       0       0       0       0
       0       0       0       0       0       0       0       0       0       0
       0       0       0       0       0       0       0       0       0       0
       0       0       0       0       0       0       0       0       0       0
       0       0       0       0       0       0       0       0       0       0
       0       0       0       0       0       0       0       0       0       0
       0       0       0       0       0       0       0       0       0       0
       0       0       0       0       0       0       0       0       0       0
       0       0       0       0       0       0       0       0       0       0
       0       0       0       0       0       0       0       0       0       0
       0       0       0       0       0       0       0       0       0       0
       0       0       0       0       0       0       0       0       0       0
       0       0       0       0       0       0       0       0       0       0
       0       0       0       0       0       0       0       0       0       0
       0       0       0       0       0       0       0       0       0       0
       0       0       0       0       0       0       0       0       0       0
       0       0       0       0       0       0       0       0       0       0
       0       0       0       0       0       0       0       0       0       0
       0       0       0       0       0       0       0       0       0       0
       0       0       0       0       0       0       0       0       0       0
       0       0       0       0       0       0       0       0       0       0
       0       0       0       0       0       0       0       0       0       0
       0       0       0       0       0       0       0       0       0       0
       0       0       0       0       0       0       0       0       0       0
       0       0       0       0       0       0       0       0       0       0
       0       0       0       0       0       0       0       0       0       0
       0       0       0       0       0       0       0       0       0       0
       0       0       0       0       0       0       0       0       0       0
       0       0       0       0       0       0       0       0       0       0
       0       0       0       0       0       0       0       0       0       0
       0       0       0       0       0       0       0       0       0       0
       0       0       0       0       0       0       0       0       0       0
       0       0       0       0       0       0       0       0       0       0
       0       0       0       0       0       0       0       0       0       0
       0       0       0       0       0       0       0       0       0       0
       0       0       0       0       0       0       0       0       0       0
       0       0       0       0       0       0       0       0       0       0
       0       0       0       0       0       0       0       0       0       0
       0       0       0       0       0       0       0       0       0       0
       0       0       0       0       0       0       0       0       0       0
       0       0       0       0       0       0       0       0       0       0
       0       0       0       0       0       0       0       0       0       0
       0       0       0       0       0       0       0       0       0       0
       0       0       0       0       0       0       0       0       0       0
       0       0       0       0       0       0       0       0       0       0
       0       0       0       0       0       0       0       0       0       0
       0       0       0       0       0       0       0       0       0       0
       0       0       0       0       0       0       0       0       0       0
       0       0       0       0       0       0       0       0       0       0
       0       0       0       0       0       0       0       0       0       0
       0       0       0       0       0       0       0       0       0       0
       0       0       0       0       0       0       0       0       0       0
       0       0       0       0       0       0       0       0       0       0
       0       0       0       0       0       0       0       0       0       0
       0       0       0       0       0       0       0       0       0       0
       0       0       0       0       0       0       0       0       0       0
       0       0       0       0       0       0       0       0       0       0
       0       0       0       0       0       0       0       0       0       0
       0       0       0       0       0       0       0       0       0       0
       0       0       0       0       0       0       0       0       0       0
       0       0       0       0       0       0       0       0       0       0
       0       0       0       0       0       0       0       0       0       0
       0       0       0       0       0       0       0       0       0       0
       0       0       0       0       0       0       0       0       0       0
       0       0       0       0       0       0       0       0       0       0
       0       0       0       0       0       0       0       0       0       0
       0       0       0       0       0       0       0       0       0       0
       0       0       0       0       0       0       0       0       0       0
       0       0       0       0       0       0       0       0       0       0
       0       0       0       0       0       0       0       0       0       0
       0       0       0       0       0       0       0       0       0       0
       0       0       0       0       0       0       0       0       0       0
       0       0       0       0       0       0       0       0       0       0
       0       0       0       0       0       0       0       0       0       0
       0       0       0       0       0       0       0       0       0       0
       0       0       0       0       0       0       0       0       0       0
       0       0       0       0       0       0       0       0       0       0
       0       0       0       0       0       0       0       0       0       0
       0       0       0       0       0       0       0       0       0       0
       0       0       0       0       0       0       0       0       0       0
       0       0       0       0       0       0       0       0       0       0
       0       0       0       0       0       0       0       0       0       0
       0       0       0       0       0       0       0       0       0       0
       0       0       0       0       0       0       0       0       0       0
       0       0       0       0       0       0       0       0       0       0
       0       0       0       0       0       0       0       0       0       0
       0       0       0       0       0       0       0       0       0       0
       0       0       0       0       0       0       0       0       0       0
       0       0       0       0       0       0       0       0       0       0
       0       0       0       0       0       0       0       0       0       0
       0       0       0       0       0       0       0       0       0       0
       0       0       0       0       0       0       0       0       0       0
       0       0       0       0       0       0       0       0       0       0
       0       0       0       0       0       0       0       0       0       0
       0       0       0       0       0       0       0       0       0       0
       0       0       0       0       0       0       0       0       0       0
       0       0       0       0       0       0       0       0       0       0
       0       0       0       0       0       0       0       0       0       0
       0       0       0       0       0       0       0       0       0       0
       0       0       0       0       0       0       0       0       0       0
       0       0       0       0       0       0       0       0       0       0
       0       0       0       0       0       0       0       0       0       0
       0       0       0       0       0       0       0       0       0       0
       0       0       0       0       0       0       0       0       0       0
       0       0       0       0       0       0       0       0       0       0
       0       0       0       0       0       0       0       0       0       0
       0       0       0       0       0       0       0       0       0       0
       0       0       0       0       0       0       0       0       0       0
       0       0       0       0       0       0       0       0       0       0
       0       0       0       0       0       0       0       0       0       0
       0       0       0       0       0       0       0       0       0       0
       0       0       0       0       0       0       0       0       0       0
       0       0       0       0       0       0       0       0       0       0
       0       0       0       0       0       0       0       0       0       0
       0       0       0       0       0       0       0       0       0       0
       0       0       0       0       0       0       0       0       0       0
       0       0       0       0       0       0       0       0       0       0
       0       0       0       0       0       0       0       0       0       0
       0       0       0       0       0       0       0       0       0       0
       0       0       0       0       0       0       0       0       0       0
       0       0       0       0       0       0       0       0       0       0
       0       0       0       0       0       0       0       0       0       0
       0       0       0       0       0       0       0       0       0       0
       0       0       0       0       0       0       0       0       0       0
       0       0       0       0       0       0       0       0       0       0
       0       0       0       0       0       0       0       0       0       0
       0       0       0       0       0       0       0       0       0       0
       0       0       0       0       0       0       0       0       0       0
       0       0       0       0       0       0       0       0       0       0
       0       0       0       0       0       0       0       0       0       0
       0       0       0       0       0       0       0       0       0       0
       0       0       0       0       0       0       0       0       0       0
       0       0       0       0       0       0       0       0       0       0
       0       0       0       0       0       0       0       0       0       0
       0       0       0       0       0       0       0       0       0       0
       0       0       0       0       0       0       0       0       0       0
       0       0       0       0       0       0       0       0       0       0
       0       0       0       0       0       0       0       0       0       0
       0       0       0       0       0       0       0       0       0       0
       0       0       0       0       0       0       0       0       0       0
       0       0       0       0       0       0       0       0       0       0
       0       0       0       0       0       0       0       0       0       0
       0       0       0       0       0       0       0       0       0       0
       0       0       0       0       0       0       0       0       0       0
       0       0       0       0       0       0       0       0       0       0
       0       0       0       0       0       0       0       0       0       0
       0       0       0       0       0       0       0       0       0       0
       0       0       0       0       0       0       0       0       0       0
       0       0       0       0       0       0       0       0       0       0
       0       0       0       0       0       0       0       0       0       0
       0       0       0       0       0       0       0       0       0       0
       0       0       0       0       0       0       0       0       0       0
       0       0       0       0       0       0       0       0       0       0
       0       0       0       0       0       0       0       0       0       0
       0       0       0       0       0       0       0       0       0       0
       0       0       0       0       0       0       0       0       0       0
       0       0       0       0       0       0       0       0       0       0
       0       0       0       0       0       0       0       0       0       0
       0       0       0       0       0       0       0       0       0       0
       0       0       0       0       0       0       0       0       0       0
       0       0       0       0       0       0       0       0       0       0
       0       0       0       0       0       0       0       0       0       0
       0       0       0       0       0       0       0       0       0       0
       0       0       0       0       0       0       0       0       0       0
       0       0       0       0       0       0       0       0       0       0
       0       0       0       0       0       0       0       0       0       0
       0       0       0       0       0       0       0       0       0       0
       0       0       0       0       0       0       0       0       0       0
       0       0       0       0       0       0       0       0       0       0
       0       0       0       0       0       0       0       0       0       0
       0       0       0       0       0       0       0       0       0       0
       0       0       0       0       0       0       0       0       0       0
       0       0       0       0       0       0       0       0       0       0
       0       0       0       0       0       0       0       0       0       0
       0       0       0       0       0       0       0       0       0       0
       0       0       0       0       0       0       0       0       0       0
       0       0       0       0       0       0       0       0       0       0
       0       0       0       0       0       0       0       0       0       0
       0       0       0       0       0       0       0       0       0       0
       0       0       0       0       0       0       0       0       0       0
       0       0       0       0       0       0       0       0       0       0
       0       0       0       0       0       0       0       0       0       0
       0       0       0       0       0       0       0       0       0       0
       0       0       0       0       0       0       0       0       0       0
       0       0       0       0       0       0       0       0       0       0
       0       0       0       0       0       0       0       0       0       0
       0       0       0       0       0       0       0       0       0       0
       0       0       0       0       0       0       0       0       0       0
       0       0       0       0       0       0       0       0       0       0
       0       0       0       0       0       0       0       0       0       0
       0       0       0       0       0       0       0       0       0       0
       0       0       0       0       0       0       0       0       0       0
       0       0       0       0       0       0       0       0       0       0
       0       0       0       0       0       0       0       0       0       0
       0       0       0       0       0       0       0       0       0       0
       0       0       0       0       0       0       0       0       0       0
       0       0       0       0       0       0       0       0       0       0
       0       0       0       0       0       0       0       0       0       0
       0       0       0       0       0       0       0       0       0       0
       0       0       0       0       0       0       0       0       0       0
       0       0       0       0       0       0       0       0       0       0
       0       0       0       0       0       0       0       0       0       0
       0       0       0       0       0       0       0       0       0       0
       0       0       0       0       0       0       0       0       0       0
       0       0       0       0       0       0       0       0       0       0
       0       0       0       0       0       0       0       0       0       0
       0       0       0       0       0       0       0       0       0       0
       0       0       0       0       0       0       0       0       0       0
       0       0       0       0       0       0       0       0       0       0
       0       0       0       0       0       0       0       0       0       0
       0       0       0       0       0       0       0       0       0       0
       0       0       0       0       0       0       0       0       0       0
       0       0       0       0       0       0       0       0       0       0
       0       0       0       0       0       0       0       0       0       0
       0       0       0       0       0       0       0       0       0       0
       0       0       0       0       0       0       0       0       0       0
       0       0       0       0       0       0       0       0       0       0
       0       0       0       0       0       0       0       0       0       0
       0       0       0       0       0       0       0       0       0       0
       0       0       0       0       0       0       0       0       0       0
       0       0       0       0       0       0       0       0       0       0
       0       0       0       0       0       0       0       0       0       0
       0       0       0       0       0       0       0       0       0       0
       0       0       0       0       0       0       0       0       0       0
       0       0       0       0       0       0       0       0       0       0
       0       0       0       0       0       0       0       0       0       0
       0       0       0       0       0       0       0       0       0       0
       0       0       0       0       0       0       0       0       0       0
       0       0       0       0       0       0       0       0       0       0
       0       0       0       0       0       0       0       0       0       0
       0       0       0       0       0       0       0       0       0       0
       0       0       0       0       0       0       0       0       0       0
       0       0       0       0       0       0       0       0       0       0
       0       0       0       0       0       0       0       0       0       0
       0       0       0       0       0       0       0       0       0       0
       0       0       0       0       0       0       0       0       0       0
       0       0       0       0       0       0       0       0       0       0
       0       0       0       0       0       0       0       0       0       0
       0       0       0       0       0       0       0       0       0       0
       0       0       0       0       0       0       0       0       0       0
       0       0       0       0       0       0       0       0       0       0
       0       0       0       0       0       0       0       0       0       0
       0       0       0       0       0       0       0       0       0       0
       0       0       0       0       0       0       0       0       0       0
       0       0       0       0       0       0       0       0       0       0
       0       0       0       0       0       0       0       0       0       0
       0       0       0       0       0       0       0       0       0       0
       0       0       0       0       0       0       0       0       0       0
       0       0       0       0       0       0       0       0       0       0
       0       0       0       0       0       0       0       0       0       0
       0       0       0       0       0       0       0       0       0       0
       0       0       0       0       0       0       0       0       0       0
       0       0       0       0       0       0       0       0       0       0
       0       0       0       0       0       0       0       0       0       0
       0       0       0       0       0       0       0       0       0       0
       0       0       0       0       0       0       0       0       0       0
       0       0       0       0       0       0       0       0       0       0
       0       0       0       0       0       0       0       0       0       0
       0       0       0       0       0       0       0       0       0       0
       0       0       0       0       0       0       0       0       0       0
       0       0       0       0       0       0       0       0       0       0
       0       0       0       0       0       0       0       0       0       0
       0       0       0       0       0       0       0       0       0       0
       0       0       0       0       0       0       0       0       0       0
       0       0       0       0       0       0       0       0       0       0
       0       0       0       0       0       0       0       0       0       0
       0       0       0       0       0       0       0       0       0       0
       0       0       0       0       0       0       0       0       0       0
       0       0       0       0       0       0       0       0       0       0
       0       0       0       0       0       0       0       0       0       0
       0       0       0       0       0       0       0       0       0       0
       0       0       0       0       0       0       0       0       0       0
       0       0       0       0       0       0       0       0       0       0
       0       0       0       0       0       0       0       0       0       0
       0       0       0       0       0       0       0       0       0       0
       0       0       0       0       0       0       0       0       0       0
       0       0       0       0       0       0       0       0       0       0
       0       0       0       0       0       0       0       0       0       0
       0       0       0       0       0       0       0       0       0       0
       0       0       0       0       0       0       0       0       0       0
       0       0       0       0       0       0       0       0       0       0
       0       0       0       0       0       0       0       0       0       0
       0       0       0       0       0       0       0       0       0       0
       0       0       0       0       0       0       0       0       0       0
       0       0       0       0       0       0       0       0       0       0
       0       0       0       0       0       0       0       0       0       0
       0       0       0       0       0       0       0       0       0       0
       0       0       0       0       0       0       0       0       0       0
       0       0       0       0       0       0       0       0       0       0
       0       0       0       0       0       0       0       0       0       0
       0       0       0       0       0       0       0       0       0       0
       0       0       0       0       0       0       0       0       0       0
       0       0       0       0       0       0       0       0       0       0
       0       0       0       0       0       0       0       0       0       0
       0       0       0       0       0       0       0       0       0       0
       0       0       0       0       0       0       0       0       0       0
       0       0       0       0       0       0       0       0       0       0
       0       0       0       0       0       0       0       0       0       0
       0       0       0       0       0       0       0       0       0       0
       0       0       0       0       0       0       0       0       0       0
       0       0       0       0       0       0       0       0       0       0
       0       0       0       0       0       0       0       0       0       0
       0       0       0       0       0       0       0       0       0       0
       0       0       0       0       0       0       0       0       0       0
       0       0       0       0       0       0       0       0       0       0
       0       0       0       0       0       0       0       0       0       0
       0       0       0       0       0       0       0       0       0       0
       0       0       0       0       0       0       0       0       0       0
       0       0       0       0       0       0       0       0       0       0
       0       0       0       0       0       0       0       0       0       0
       0       0       0       0       0       0       0       0       0       0
       0       0       0       0       0       0       0       0       0       0
       0       0       0       0       0       0       0       0       0       0
       0       0       0       0       0       0       0       0       0       0
       0       0       0       0       0       0       0       0       0       0
       0       0       0       0       0       0       0       0       0       0
       0       0       0       0       0       0       0       0       0       0
       0       0       0       0       0       0       0       0       0       0
       0       0       0       0       0       0       0       0       0       0
       0       0       0       0       0       0       0       0       0       0
       0       0       0       0       0       0       0       0       0       0
       0       0       0       0       0       0       0       0       0       0
       0       0       0       0       0       0       0       0       0       0
       0       0       0       0       0       0       0       0       0       0
       0       0       0       0       0       0       0       0       0       0
       0       0       0       0       0       0       0       0       0       0
       0       0       0       0       0       0       0       0       0       0
       0       0       0       0       0       0       0       0       0       0
       0       0       0       0       0       0       0       0       0       0
       0       0       0       0       0       0       0       0       0       0
       0       0       0       0       0       0       0       0       0       0
       0       0       0       0       0       0       0       0       0       0
       0       0       0       0       0       0       0       0       0       0
       0       0       0       0       0       0       0       0       0       0
       0       0       0       0       0       0       0       0       0       0
       0       0       0       0       0       0       0       0       0       0
       0       0       0       0       0       0       0       0       0       0
       0       0       0       0       0       0       0       0       0       0
       0       0       0       0       0       0       0       0       0       0
       0       0       0       0       0       0       0       0       0       0
       0       0       0       0       0       0       0       0       0       0
       0       0       0       0       0       0       0       0       0       0
       0       0       0       0       0       0       0       0       0       0
       0       0       0       0       0       0       0       0       0       0
       0       0       0       0       0       0       0       0       0       0
       0       0       0       0       0       0       0       0       0       0
       0       0       0       0       0       0       0       0       0       0
       0       0       0       0       0       0       0       0       0       0
       0       0       0       0       0       0       0       0       0       0
       0       0       0       0       0       0       0       0       0       0
       0       0       0       0       0       0       0       0       0       0
       0       0       0       0       0       0       0       0       0       0
       0       0       0       0       0       0       0       0       0       0
       0       0       0       0       0       0       0       0       0       0
       0       0       0       0       0       0       0       0       0       0
       0       0       0       0       0       0       0       0       0       0
       0       0       0       0       0       0       0       0       0       0
       0       0       0       0       0       0       0       0       0       0
       0       0       0       0       0       0       0       0       0       0
       0       0       0       0       0       0       0       0       0       0
       0       0       0       0       0       0       0       0       0       0
       0       0       0       0       0       0       0       0       0       0
       0       0       0       0       0       0       0       0       0       0
       0       0       0       0       0       0       0       0       0       0
       0       0       0       0       0       0       0       0       0       0
       0       0       0       0       0       0       0       0       0       0
       0       0       0       0       0       0       0       0       0       0
       0       0       0       0       0       0       0       0       0       0
       0       0       0       0       0       0       0       0       0       0
       0       0       0       0       0       0       0       0       0       0
       0       0       0       0       0       0       0       0       0       0
       0       0       0       0       0       0       0       0       0       0
       0       0       0       0       0       0       0       0       0       0
       0       0       0       0       0       0       0       0       0       0
       0       0       0       0       0       0       0       0       0       0
       0       0       0       0       0       0       0       0       0       0
       0       0       0       0       0       0       0       0       0       0
       0       0       0       0       0       0       0       0       0       0
       0       0       0       0       0       0       0       0       0       0
       0       0       0       0       0       0       0       0       0       0
       0       0       0       0       0       0       0       0       0       0
       0       0       0       0       0       0       0       0       0       0
       0       0       0       0       0       0       0       0       0       0
       0       0       0       0       0       0       0       0       0       0
       0       0       0       0       0       0       0       0       0       0
       0       0       0       0       0       0       0       0       0       0
       0       0       0       0       0       0       0       0       0       0
       0       0       0       0       0       0       0       0       0       0
       0       0       0       0       0       0       0       0       0       0
       0       0       0       0       0       0       0       0       0       0
       0       0       0       0       0       0       0       0       0       0
       0       0       0       0       0       0       0       0       0       0
       0       0       0       0       0       0       0       0       0       0
       0       0       0       0       0       0       0       0       0       0
       0       0       0       0       0       0       0       0       0       0
       0       0       0       0       0       0       0       0       0       0
       0       0       0       0       0       0       0       0       0       0
       0       0       0       0       0       0       0       0       0       0
       0       0       0       0       0       0       0       0       0       0
       0       0       0       0       0       0       0       0       0       0
       0       0       0       0       0       0       0       0       0       0
       0       0       0       0       0       0       0       0       0       0
       0       0       0       0       0       0       0       0       0       0
       0       0       0       0       0       0       0       0       0       0
       0       0       0       0       0       0       0       0       0       0
       0       0       0       0       0       0       0       0       0       0
       0       0       0       0       0       0       0       0       0       0
       0       0       0       0       0       0       0       0       0       0
       0       0       0       0       0       0       0       0       0       0
       0       0       0       0       0       0       0       0       0       0
       0       0       0       0       0       0       0       0       0       0
       0       0       0       0       0       0       0       0       0       0
       0       0       0       0       0       0       0       0       0       0
       0       0       0       0       0       0       0       0       0       0
       0       0       0       0       0       0       0       0       0       0
       0       0       0       0       0       0       0       0       0       0
       0       0       0       0       0       0       0       0       0       0
       0       0       0       0       0       0       0       0       0       0
       0       0       0       0       0       0       0       0       0       0
       0       0       0       0       0       0       0       0       0       0
       0       0       0       0       0       0       0       0       0       0
       0       0       0       0       0       0       0       0       0       0
       0       0       0       0       0       0       0       0       0       0
       0       0       0       0       0       0       0       0       0       0
       0       0       0       0       0       0       0       0       0       0
       0       0       0       0       0       0       0       0       0       0
       0       0       0       0       0       0       0       0       0       0
       0       0       0       0       0       0       0       0       0       0
       0       0       0       0       0       0       0       0       0       0
       0       0       0       0       0       0       0       0       0       0
       0       0       0       0       0       0       0       0       0       0
       0       0       0       0       0       0       0       0       0       0
       0       0       0       0       0       0       0       0       0       0
       0       0       0       0       0       0       0       0       0       0
       0       0       0       0       0       0       0       0       0       0
       0       0       0       0       0       0       0       0       0       0
       0       0       0       0       0       0       0       0       0       0
       0       0       0       0       0       0       0       0       0       0
       0       0       0       0       0       0       0       0       0       0
       0       0       0       0       0       0       0       0       0       0
       0       0       0       0       0       0       0       0       0       0
       0       0       0       0       0       0       0       0       0       0
       0       0       0       0       0       0       0       0       0       0
       0       0       0       0       0       0       0       0       0       0
       0       0       0       0       0       0       0       0       0       0
       0       0       0       0       0       0       0       0       0       0
       0       0       0       0       0       0       0       0       0       0
       0       0       0       0       0       0       0       0       0       0
       0       0       0       0       0       0       0       0       0       0
       0       0       0       0       0       0       0       0       0       0
       0       0       0       0       0       0       0       0       0       0
       0       0       0       0       0       0       0       0       0       0
       0       0       0       0       0       0       0       0       0       0
       0       0       0       0       0       0       0       0       0       0
       0       0       0       0       0       0       0       0       0       0
       0       0       0       0       0       0       0       0       0       0
       0       0       0       0       0       0       0       0       0       0
       0       0       0       0       0       0       0       0       0       0
       0       0       0       0       0       0       0       0       0       0
       0       0       0       0       0       0       0       0       0       0
       0       0       0       0       0       0       0       0       0       0
       0       0       0       0       0       0       0       0       0       0
       0       0       0       0       0       0       0       0       0       0
       0       0       0       0       0       0       0       0       0       0
       0       0       0       0       0       0       0       0       0       0
       0       0       0       0       0       0       0       0       0       0
       0       0       0       0       0       0       0       0       0       0
       0       0       0       0       0       0       0       0       0       0
       0       0       0       0       0       0       0       0       0       0
       0       0       0       0       0       0       0       0       0       0
       0       0       0       0       0       0       0       0       0       0
       0       0       0       0       0       0       0       0       0       0
       0       0       0       0       0       0       0       0       0       0
       0       0       0       0       0       0       0       0       0       0
       0       0       0       0       0       0       0       0       0       0
       0       0       0       0       0       0       0       0       0       0
       0       0       0       0       0       0       0       0       0       0
       0       0       0       0       0       0       0       0       0       0
       0       0       0       0       0       0       0       0       0       0
       0       0       0       0       0       0       0       0       0       0
       0       0       0       0       0       0       0       0       0       0
       0       0       0       0       0       0       0       0       0       0
       0       0       0       0       0       0       0       0       0       0
       0       0       0       0       0       0       0       0       0       0
       0       0       0       0       0       0       0       0       0       0
       0       0       0       0       0       0       0       0       0       0
       0       0       0       0       0       0       0       0       0       0
       0       0       0       0       0       0       0       0       0       0
       0       0       0       0       0       0       0       0       0       0
       0       0       0       0       0       0       0       0       0       0
       0       0       0       0       0       0       0       0       0       0
       0       0       0       0       0       0       0       0       0       0
       0       0       0       0       0       0       0       0       0       0
       0       0       0       0       0       0       0       0       0       0
       0       0       0       0       0       0       0       0       0       0
       0       0       0       0       0       0       0       0       0       0
       0       0       0       0       0       0       0       0       0       0
       0       0       0       0       0       0       0       0       0       0
       0       0       0       0       0       0       0       0       0       0
       0       0       0       0       0       0       0       0       0       0
       0       0       0       0       0       0       0       0       0       0
       0       0       0       0       0       0       0       0       0       0
       0       0       0       0       0       0       0       0       0       0
       0       0       0       0       0       0       0       0       0       0
       0       0       0       0       0       0       0       0       0       0
       0       0       0       0       0       0       0       0       0       0
       0       0       0       0       0       0       0       0       0       0
       0       0       0       0       0       0       0       0       0       0
       0       0       0       0       0       0       0       0       0       0
       0       0       0       0       0       0       0       0       0       0
       0       0       0       0       0       0       0       0       0       0
       0       0       0       0       0       0       0       0       0       0
       0       0       0       0       0       0       0       0       0       0
       0       0       0       0       0       0       0       0       0       0
       0       0       0       0       0       0       0       0       0       0
       0       0       0       0       0       0       0       0       0       0
       0       0       0       0       0       0       0       0       0       0
       0       0       0       0       0       0       0       0       0       0
       0       0       0       0       0       0       0       0       0       0
       0       0       0       0       0       0       0       0       0       0
       0       0       0       0       0       0       0       0       0       0
       0       0       0       0       0       0       0       0       0       0
       0       0       0       0       0       0       0       0       0       0
       0       0       0       0       0       0       0       0       0       0
       0       0       0       0       0       0       0       0       0       0
       0       0       0       0       0       0       0       0       0       0
       0       0       0       0       0       0       0       0       0       0
       0       0       0       0       0       0       0       0       0       0
       0       0       0       0       0       0       0       0       0       0
       0       0       0       0       0       0       0       0       0       0
       0       0       0       0       0       0       0       0       0       0
       0       0       0       0       0       0       0       0       0       0
       0       0       0       0       0       0       0       0       0       0
       0       0       0       0       0       0       0       0       0       0
       0       0       0       0       0       0       0       0       0       0
       0       0       0       0       0       0       0       0       0       0
       0       0       0       0       0       0       0       0       0       0
       0       0       0       0       0       0       0       0       0       0
       0       0       0       0       0       0       0       0       0       0
       0       0       0       0       0       0       0       0       0       0
       0       0       0       0       0       0       0       0       0       0
       0       0       0       0       0       0       0       0       0       0
       0       0       0       0       0       0       0       0       0       0
       0       0       0       0       0       0       0       0       0       0
       0       0       0       0       0       0       0       0       0       0
       0       0       0       0       0       0       0       0       0       0
       0       0       0       0       0       0       0       0       0       0
       0       0       0       0       0       0       0       0       0       0
       0       0       0       0       0       0       0       0       0       0
       0       0       0       0       0       0       0       0       0       0
       0       0       0       0       0       0       0       0       0       0
       0       0       0       0       0       0       0       0       0       0
       0       0       0       0       0       0       0       0       0       0
       0       0       0       0       0       0       0       0       0       0
       0       0       0       0       0       0       0       0       0       0
       0       0       0       0       0       0       0       0       0       0
       0       0       0       0       0       0       0       0       0       0
       0       0       0       0       0       0       0       0       0       0
       0       0       0       0       0       0       0       0       0       0
       0       0       0       0       0       0       0       0       0       0
       0       0       0       0       0       0       0       0       0       0
       0       0       0       0       0       0       0       0       0       0
       0       0       0       0       0       0       0       0       0       0
       0       0       0       0       0       0       0       0       0       0
       0       0       0       0       0       0       0       0       0       0
       0       0       0       0       0       0       0       0       0       0
       0       0       0       0       0       0       0       0       0       0
       0       0       0       0       0       0       0       0       0       0
       0       0       0       0       0       0       0       0       0       0
       0       0       0       0       0       0       0       0       0       0
       0       0       0       0       0       0       0       0       0       0
       0       0       0       0       0       0       0       0       0       0
       0       0       0       0       0       0       0       0       0       0
       0       0       0       0       0       0       0       0       0       0
       0       0       0       0       0       0       0       0       0       0
       0       0       0       0       0       0       0       0       0       0
       0       0       0       0       0       0       0       0       0       0
       0       0       0       0       0       0       0       0       0       0
       0       0       0       0       0       0       0       0       0       0
       0       0       0       0       0       0       0       0       0       0
       0       0       0       0       0       0       0       0       0       0
       0       0       0       0       0       0       0       0       0       0
       0       0       0       0       0       0       0       0       0       0
       0       0       0       0       0       0       0       0       0       0
       0       0       0       0       0       0       0       0       0       0
       0       0       0       0       0       0       0       0       0       0
       0       0       0       0       0       0       0       0       0       0
       0       0       0       0       0       0       0       0       0       0
       0       0       0       0       0       0       0       0       0       0
       0       0       0       0       0       0       0       0       0       0
       0       0       0       0       0       0       0       0       0       0
       0       0       0       0       0       0       0       0       0       0
       0       0       0       0       0       0       0       0       0       0
       0       0       0       0       0       0       0       0       0       0
       0       0       0       0       0       0       0       0       0       0
       0       0       0       0       0       0       0       0       0       0
       0       0       0       0       0       0       0       0       0       0
       0       0       0       0       0       0       0       0       0       0
       0       0       0       0       0       0       0       0       0       0
       0       0       0       0       0       0       0       0       0       0
       0       0       0       0       0       0       0       0       0       0
       0       0       0       0       0       0       0       0       0       0
       0       0       0       0       0       0       0       0       0       0
       0       0       0       0       0       0       0       0       0       0
       0       0       0       0       0       0       0       0       0       0
       0       0       0       0       0       0       0       0       0       0
       0       0       0       0       0       0       0       0       0       0
       0       0       0       0       0       0       0       0       0       0
       0       0       0       0       0       0       0       0       0       0
       0       0       0       0       0       0       0       0       0       0
       0       0       0       0       0       0       0       0       0       0
       0       0       0       0       0       0       0       0       0       0
       0       0       0       0       0       0       0       0       0       0
       0       0       0       0       0       0       0       0       0       0
       0       0       0       0       0       0       0       0       0       0
       0       0       0       0       0       0       0       0       0       0
       0       0       0       0       0       0       0       0       0       0
       0       0       0       0       0       0       0       0       0       0
       0       0       0       0       0       0       0       0       0       0
       0       0       0       0       0       0       0       0       0       0
       0       0       0       0       0       0       0       0       0       0
       0       0       0       0       0       0       0       0       0       0
       0       0       0       0       0       0       0       0       0       0
       0       0       0       0       0       0       0       0       0       0
       0       0       0       0       0       0       0       0       0       0
       0       0       0       0       0       0       0       0       0       0
       0       0       0       0       0       0       0       0       0       0
       0       0       0       0       0       0       0       0       0       0
       0       0       0       0       0       0       0       0       0       0
       0       0       0       0       0       0       0       0       0       0
       0       0       0       0       0       0       0       0       0       0
       0       0       0       0       0       0       0       0       0       0
       0       0       0       0       0       0       0       0       0       0
       0       0       0       0       0       0       0       0       0       0
       0       0       0       0       0       0       0       0       0       0
       0       0       0       0       0       0       0       0       0       0
       0       0       0       0       0       0       0       0       0       0
       0       0       0       0       0       0       0       0       0       0
       0       0       0       0       0       0       0       0       0       0
       0       0       0       0       0       0       0       0       0       0
       0       0       0       0       0       0       0       0       0       0
       0       0       0       0       0       0       0       0       0       0
       0       0       0       0       0       0       0       0       0       0
       0       0       0       0       0       0       0       0       0       0
       0       0       0       0       0       0       0       0       0       0
       0       0       0       0       0       0       0       0       0       0
       0       0       0       0       0       0       0       0       0       0
       0       0       0       0       0       0       0       0       0       0
       0       0       0       0       0       0       0       0       0       0
       0       0       0       0       0       0       0       0       0       0
       0       0       0       0       0       0       0       0       0       0
       0       0       0       0       0       0       0       0       0       0
       0       0       0       0       0       0       0       0       0       0
       0       0       0       0       0       0       0       0       0       0
       0       0       0       0       0       0       0       0       0       0
       0       0       0       0       0       0       0       0       0       0
       0       0       0       0       0       0       0       0       0       0
       0       0       0       0       0       0       0       0       0       0
       0       0       0       0       0       0       0       0       0       0
       0       0       0       0       0       0       0       0       0       0
       0       0       0       0       0       0       0       0       0       0
       0       0       0       0       0       0       0       0       0       0
       0       0       0       0       0       0       0       0       0       0
       0       0       0       0       0       0       0       0       0       0
       0       0       0       0       0       0       0       0       0       0
       0       0       0       0       0       0       0       0       0       0
       0       0       0       0       0       0       0       0       0       0
       0       0       0       0       0       0       0       0       0       0
       0       0       0       0       0       0       0       0       0       0
       0       0       0       0       0       0       0       0       0       0
       0       0       0       0       0       0       0       0       0       0
       0       0       0       0       0       0       0       0       0       0
       0       0       0       0       0       0       0       0       0       0
       0       0       0       0       0       0       0       0       0       0
       0       0       0       0       0       0       0       0       0       0
       0       0       0       0       0       0       0       0       0       0
       0       0       0       0       0       0       0       0       0       0
       0       0       0       0       0       0       0       0       0       0
       0       0       0       0       0       0       0       0       0       0
       0       0       0       0       0       0       0       0       0       0
       0       0       0       0       0       0       0       0       0       0
       0       0       0       0       0       0       0       0       0       0
       0       0       0       0       0       0       0       0       0       0
       0       0       0       0       0       0       0       0       0       0
       0       0       0       0       0       0       0       0       0       0
       0       0       0       0       0       0       0       0       0       0
       0       0       0       0       0       0       0       0       0       0
       0       0       0       0       0       0       0       0       0       0
       0       0       0       0       0       0       0       0       0       0
       0       0       0       0       0       0       0       0       0       0
       0       0       0       0       0       0       0       0       0       0
       0       0       0       0       0       0       0       0       0       0
       0       0       0       0       0       0       0       0       0       0
       0       0       0       0       0       0       0       0       0       0
       0       0       0       0       0       0       0       0       0       0
       0       0       0       0       0       0       0       0       0       0
       0       0       0       0       0       0       0       0       0       0
       0       0       0       0       0       0       0       0       0       0
       0       0       0       0       0       0       0       0       0       0
       0       0       0       0       0       0       0       0       0       0
       0       0       0       0       0       0       0       0       0       0
       0       0       0       0       0       0       0       0       0       0
       0       0       0       0       0       0       0       0       0       0
       0       0       0       0       0       0       0       0       0       0
       0       0       0       0       0       0       0       0       0       0
       0       0       0       0       0       0       0       0       0       0
       0       0       0       0       0       0       0       0       0       0
       0       0       0       0       0       0       0       0       0       0
       0       0       0       0       0       0       0       0       0       0
       0       0       0       0       0       0       0       0       0       0
       0       0       0       0       0       0       0       0       0       0
       0       0       0       0       0       0       0       0       0       0
       0       0       0       0       0       0       0       0       0       0
       0       0       0       0       0       0       0       0       0       0
       0       0       0       0       0       0       0       0       0       0
       0       0       0       0       0       0       0       0       0       0
       0       0       0       0       0       0       0       0       0       0
       0       0       0       0       0       0       0       0       0       0
       0       0       0       0       0       0       0       0       0       0
       0       0       0       0       0       0       0       0       0       0
       0       0       0       0       0       0       0       0       0       0
       0       0       0       0       0       0       0       0       0       0
       0       0       0       0       0       0       0       0       0       0
       0       0       0       0       0       0       0       0       0       0
       0       0       0       0       0       0       0       0       0       0
       0       0       0       0       0       0       0       0       0       0
       0       0       0       0       0       0       0       0       0       0
       0       0       0       0       0       0       0       0       0       0
       0       0       0       0       0       0       0       0       0       0
       0       0       0       0       0       0       0       0       0       0
       0       0       0       0       0       0       0       0       0       0
       0       0       0       0       0       0       0       0       0       0
       0       0       0       0       0       0       0       0       0       0
       0       0       0       0       0       0       0       0       0       0
       0       0       0       0       0       0       0       0       0       0
       0       0       0       0       0       0       0       0       0       0
       0       0       0       0       0       0       0       0       0       0
       0       0       0       0       0       0       0       0       0       0
       0       0       0       0       0       0       0       0       0       0
       0       0       0       0       0       0       0       0       0       0
       0       0       0       0       0       0       0       0       0       0
       0       0       0       0       0       0       0       0       0       0
       0       0       0       0       0       0       0       0       0       0
       0       0       0       0       0       0       0       0       0       0
       0       0       0       0       0       0       0       0       0       0
       0       0       0       0       0       0       0       0       0       0
       0       0       0       0       0       0       0       0       0       0
       0       0       0       0       0       0       0       0       0       0
       0       0       0       0       0       0       0       0       0       0
       0       0       0       0       0       0       0       0       0       0
       0       0       0       0       0       0       0       0       0       0
       0       0       0       0       0       0       0       0       0       0
       0       0       0       0       0       0       0       0       0       0
       0       0       0       0       0       0       0       0       0       0
       0       0       0       0       0       0       0       0       0       0
       0       0       0       0       0       0       0       0       0       0
       0       0       0       0       0       0       0       0       0       0
       0       0       0       0       0       0       0       0       0       0
       0       0       0       0       0       0       0       0       0       0
       0       0       0       0       0       0       0       0       0       0
       0       0       0       0       0       0       0       0       0       0
       0       0       0       0       0       0       0       0       0       0
       0       0       0       0       0       0       0       0       0       0
       0       0       0       0       0       0       0       0       0       0
       0       0       0       0       0       0       0       0       0       0
       0       0       0       0       0       0       0       0       0       0
       0       0       0       0       0       0       0       0       0       0
       0       0       0       0       0       0       0       0       0       0
       0       0       0       0       0       0       0       0       0       0
       0       0       0       0       0       0       0       0       0       0
       0       0       0       0       0       0       0       0       0       0
       0       0       0       0       0       0       0       0       0       0
       0       0       0       0       0       0       0       0       0       0
       0       0       0       0       0       0       0       0       0       0
       0       0       0       0       0       0       0       0       0       0
       0       0       0       0       0       0       0       0       0       0
       0       0       0       0       0       0       0       0       0       0
       0       0       0       0       0       0       0       0       0       0
       0       0       0       0       0       0       0       0       0       0
       0       0       0       0       0       0       0       0       0       0
       0       0       0       0       0       0       0       0       0       0
       0       0       0       0       0       0       0       0       0       0
       0       0       0       0       0       0       0       0       0       0
       0       0       0       0       0       0       0       0       0       0
       0       0       0       0       0       0       0       0       0       0
       0       0       0       0       0       0       0       0       0       0
       0       0       0       0       0       0       0       0       0       0
       0       0       0       0       0       0       0       0       0       0
       0       0       0       0       0       0       0       0       0       0
       0       0       0       0       0       0       0       0       0       0
       0       0       0       0       0       0       0       0       0       0
       0       0       0       0       0       0       0       0       0       0
       0       0       0       0       0       0       0       0       0       0
       0       0       0       0       0       0       0       0       0       0
       0       0       0       0       0       0       0       0       0       0
       0       0       0       0       0       0       0       0       0       0
       0       0       0       0       0       0       0       0       0       0
       0       0       0       0       0       0       0       0       0       0
       0       0       0       0       0       0       0       0       0       0
       0       0       0       0       0       0       0       0       0       0
       0       0       0       0       0       0       0       0       0       0
       0       0       0       0       0       0       0       0       0       0
       0       0       0       0       0       0       0       0       0       0
       0       0       0       0       0       0       0       0       0       0
       0       0       0       0       0       0       0       0       0       0
       0       0       0       0       0       0       0       0       0       0
       0       0       0       0       0       0       0       0       0       0
       0       0       0       0       0       0       0       0       0       0
       0       0       0       0       0       0       0       0       0       0
       0       0       0       0       0       0       0       0       0       0
       0       0       0       0       0       0       0       0       0       0
       0       0       0       0       0       0       0       0       0       0
       0       0       0       0       0       0       0       0       0       0
       0       0       0       0       0       0       0       0       0       0
       0       0       0       0       0       0       0       0       0       0
       0       0       0       0       0       0       0       0       0       0
       0       0       0       0       0       0       0       0       0       0
       0       0       0       0       0       0       0       0       0       0
       0       0       0       0       0       0       0       0       0       0
       0       0       0       0       0       0       0       0       0       0
       0       0       0       0       0       0       0       0       0       0
       0       0       0       0       0       0       0       0       0       0
       0       0       0       0       0       0       0       0       0       0
       0       0       0       0       0       0       0       0       0       0
       0       0       0       0       0       0       0       0       0       0
       0       0       0       0       0       0       0       0       0       0
       0       0       0       0       0       0       0       0       0       0
       0       0       0       0       0       0       0       0       0       0
       0       0       0       0       0       0       0       0       0       0
       0       0       0       0       0       0       0       0       0       0
       0       0       0       0       0       0       0       0       0       0
       0       0       0       0       0       0       0       0       0       0
       0       0       0       0       0       0       0       0       0       0
       0       0       0       0       0       0       0       0       0       0
       0       0       0       0       0       0       0       0       0       0
       0       0       0       0       0       0       0       0       0       0
       0       0       0       0       0       0       0       0       0       0
       0       0       0       0       0       0       0       0       0       0
       0       0       0       0       0       0       0       0       0       0
       0       0       0       0       0       0       0       0       0       0
       0       0       0       0       0       0       0       0       0       0
       0       0       0       0       0       0       0       0       0       0
       0       0       0       0       0       0       0       0       0       0
       0       0       0       0       0       0       0       0       0       0
       0       0       0       0       0       0       0       0       0       0
       0       0       0       0       0       0       0       0       0       0
       0       0       0       0       0       0       0       0       0       0
       0       0       0       0       0       0       0       0       0       0
       0       0       0       0       0       0       0       0       0       0
       0       0       0       0       0       0       0       0       0       0
       0       0       0       0       0       0       0       0       0       0
       0       0       0       0       0       0       0       0       0       0
       0       0       0       0       0       0       0       0       0       0
       0       0       0       0       0       0       0       0       0       0
       0       0       0       0       0       0       0       0       0       0
       0       0       0       0       0       0       0       0       0       0
       0       0       0       0       0       0       0       0       0       0
       0       0       0       0       0       0       0       0       0       0
       0       0       0       0       0       0       0       0       0       0
       0       0       0       0       0       0       0       0       0       0
       0       0       0       0       0       0       0       0       0       0
       0       0       0       0       0       0       0       0       0       0
       0       0       0       0       0       0       0       0       0       0
       0       0       0       0       0       0       0       0       0       0
       0       0       0       0       0       0       0       0       0       0
       0       0       0       0       0       0       0       0       0       0
       0       0       0       0       0       0       0       0       0       0
       0       0       0       0       0       0       0       0       0       0
       0       0       0       0       0       0       0       0       0       0
       0       0       0       0       0       0       0       0       0       0
       0       0       0       0       0       0       0       0       0       0
       0       0       0       0       0       0       0       0       0       0
       0       0       0       0       0       0       0       0       0       0
       0       0       0       0       0       0       0       0       0       0
       0       0       0       0       0       0       0       0       0       0
       0       0       0       0       0       0       0       0       0       0
       0       0       0       0       0       0       0       0       0       0
       0       0       0       0       0       0       0       0       0       0
       0       0       0       0       0       0       0       0       0       0
       0       0       0       0       0       0       0       0       0       0
       0       0       0       0       0       0       0       0       0       0
       0       0       0       0       0       0       0       0       0       0
       0       0       0       0       0       0       0       0       0       0
       0       0       0       0       0       0       0       0       0       0
       0       0       0       0       0       0       0       0       0       0
       0       0       0       0       0       0       0       0       0       0
       0       0       0       0       0       0       0       0       0       0
       0       0       0       0       0       0       0       0       0       0
       0       0       0       0       0       0       0       0       0       0
       0       0       0       0       0       0       0       0       0       0
       0       0       0       0       0       0       0       0       0       0
       0       0       0       0       0       0       0       0       0       0
       0       0       0       0       0       0       0       0       0       0
       0       0       0       0       0       0       0       0       0       0
       0       0       0       0       0       0       0       0       0       0
       0       0       0       0       0       0       0       0       0       0
       0       0       0       0       0       0       0       0       0       0
       0       0       0       0       0       0       0       0       0       0
       0       0       0       0       0       0       0       0       0       0
       0       0       0       0       0       0       0       0       0       0
       0       0       0       0       0       0       0       0       0       0
       0       0       0       0       0       0       0       0       0       0
       0       0       0       0       0       0       0       0       0       0
       0       0       0       0       0       0       0       0       0       0
       0       0       0       0       0       0       0       0       0       0
       0       0       0       0       0       0       0       0       0       0
       0       0       0       0       0       0       0       0       0       0
       0       0       0       0       0       0       0       0       0       0
       0       0       0       0       0       0       0       0       0       0
       0       0       0       0       0       0       0       0       0       0
       0       0       0       0       0       0       0       0       0       0
       0       0       0       0       0       0       0       0       0       0
       0       0       0       0       0       0       0       0       0       0
       0       0       0       0       0       0       0       0       0       0
       0       0       0       0       0       0       0       0       0       0
       0       0       0       0       0       0       0       0       0       0
       0       0       0       0       0       0       0       0       0       0
       0       0       0       0       0       0       0       0       0       0
       0       0       0       0       0       0       0       0       0       0
       0       0       0       0       0       0       0       0       0       0
       0       0       0       0       0       0       0       0       0       0
       0       0       0       0       0       0       0       0       0       0
       0       0       0       0       0       0       0       0       0       0
       0       0       0       0       0       0       0       0       0       0
       0       0       0       0       0       0       0       0       0       0
       0       0       0       0       0       0       0       0       0       0
       0       0       0       0       0       0       0       0       0       0
       0       0       0       0       0       0       0       0       0       0
       0       0       0       0       0       0       0       0       0       0
       0       0       0       0       0       0       0       0       0       0
       0       0       0       0       0       0       0       0       0       0
       0       0       0       0       0       0       0       0       0       0
       0       0       0       0       0       0       0       0       0       0
       0       0       0       0       0       0       0       0       0       0
       0       0       0       0       0       0       0       0       0       0
       0       0       0       0       0       0       0       0       0       0
       0       0       0       0       0       0       0       0       0       0
       0       0       0       0       0       0       0       0       0       0
       0       0       0       0       0       0       0       0       0       0
       0       0       0       0       0       0       0       0       0       0
       0       0       0       0       0       0       0       0       0       0
       0       0       0       0       0       0       0       0       0       0
       0       0       0       0       0       0       0       0       0       0
       0       0       0       0       0       0       0       0       0       0
       0       0       0       0       0       0       0       0       0       0
       0       0       0       0       0       0       0       0       0       0
       0       0       0       0       0       0       0       0       0       0
       0       0       0       0       0       0       0       0       0       0
       0       0       0       0       0       0       0       0       0       0
       0       0       0       0       0       0       0       0       0       0
       0       0       0       0       0       0       0       0       0       0
       0       0       0       0       0       0       0       0       0       0
       0       0       0       0       0       0       0       0       0       0
       0       0       0       0       0       0       0       0       0       0
       0       0       0       0       0       0       0       0       0       0
       0       0       0       0       0       0       0       0       0       0
       0       0       0       0       0       0       0       0       0       0
       0       0       0       0       0       0       0       0       0       0
       0       0       0       0       0       0       0       0       0       0
       0       0       0       0       0       0       0       0       0       0
       0       0       0       0       0       0       0       0       0       0
       0       0       0       0       0       0       0       0       0       0
       0       0       0       0       0       0       0       0       0       0
       0       0       0       0       0       0       0       0       0       0
       0       0       0       0       0       0       0       0       0       0
       0       0       0       0       0       0       0       0       0       0
       0       0       0       0       0       0       0       0       0       0
       0       0       0       0       0       0       0       0       0       0
       0       0       0       0       0       0       0       0       0       0
       0       0       0       0       0       0       0       0       0       0
       0       0       0       0       0       0       0       0       0       0
       0       0       0       0       0       0       0       0       0       0
       0       0       0       0       0       0       0       0       0       0
       0       0       0       0       0       0       0       0       0       0
       0       0       0       0       0       0       0       0       0       0
       0       0       0       0       0       0       0       0       0       0
       0       0       0       0       0       0       0       0       0       0
       0       0       0       0       0       0       0       0       0       0
       0       0       0       0       0       0       0       0       0       0
       0       0       0       0       0       0       0       0       0       0
       0       0       0       0       0       0       0       0       0       0
       0       0       0       0       0       0       0       0       0       0
       0       0       0       0       0       0       0       0       0       0
       0       0       0       0       0       0       0       0       0       0
       0       0       0       0       0       0       0       0       0       0
       0       0       0       0       0       0       0       0       0       0
       0       0       0       0       0       0       0       0       0       0
       0       0       0       0       0       0       0       0       0       0
       0       0       0       0       0       0       0       0       0       0
       0       0       0       0       0       0       0       0       0       0
       0       0       0       0       0       0       0       0       0       0
       0       0       0       0       0       0       0       0       0       0
       0       0       0       0       0       0       0       0       0       0
       0       0       0       0       0       0       0       0       0       0
       0       0       0       0       0       0       0       0       0       0
       0       0       0       0       0       0       0       0       0       0
       0       0       0       0       0       0       0       0       0       0
       0       0       0       0       0       0       0       0       0       0
       0       0       0       0       0       0       0       0       0       0
       0       0       0       0       0       0       0       0       0       0
       0       0       0       0       0       0       0       0       0       0
       0       0       0       0       0       0       0       0       0       0
       0       0       0       0       0       0       0       0       0       0
       0       0       0       0       0       0       0       0       0       0
       0       0       0       0       0       0       0       0       0       0
       0       0       0       0       0       0       0       0       0       0
       0       0       0       0       0       0       0       0       0       0
       0       0       0       0       0       0       0       0       0       0
       0       0       0       0       0       0       0       0       0       0
       0       0       0       0       0       0       0       0       0       0
       0       0       0       0       0       0       0       0       0       0
       0       0       0       0       0       0       0       0       0       0
       0       0       0       0       0       0       0       0       0       0
       0       0       0       0       0       0       0       0       0       0
       0       0       0       0       0       0       0       0       0       0
       0       0       0       0       0       0       0       0       0       0
       0       0       0       0       0       0       0       0       0       0
       0       0       0       0       0       0       0       0       0       0
       0       0       0       0       0       0       0       0       0       0
       0       0       0       0       0       0       0       0       0       0
       0       0       0       0       0       0       0       0       0       0
       0       0       0       0       0       0       0       0       0       0
       0       0       0       0       0       0       0       0       0       0
       0       0       0       0       0       0       0       0       0       0
       0       0       0       0       0       0       0       0       0       0
       0       0       0       0       0       0       0       0       0       0
       0       0       0       0       0       0       0       0       0       0
       0       0       0       0       0       0       0       0       0       0
       0       0       0       0       0       0       0       0       0       0
       0       0       0       0       0       0       0       0       0       0
       0       0       0       0       0       0       0       0       0       0
       0       0       0       0       0       0       0       0       0       0
       0       0       0       0       0       0       0       0       0       0
       0       0       0       0       0       0       0       0       0       0
       0       0       0       0       0       0       0       0       0       0
       0       0       0       0       0       0       0       0       0       0
       0       0       0       0       0       0       0       0       0       0
       0       0       0       0       0       0       0       0       0       0
       0       0       0       0       0       0       0       0       0       0
       0       0       0       0       0       0       0       0       0       0
       0       0       0       0       0       0       0       0       0       0
       0       0       0       0       0       0       0       0       0       0
       0       0       0       0       0       0       0       0       0       0
       0       0       0       0       0       0       0       0       0       0
       0       0       0       0       0       0       0       0       0       0
       0       0       0       0       0       0       0       0       0       0
       0       0       0       0       0       0       0       0       0       0
       0       0       0       0       0       0       0       0       0       0
       0       0       0       0       0       0       0       0       0       0
       0       0       0       0       0       0       0       0       0       0
       0       0       0       0       0       0       0       0       0       0
       0       0       0       0       0       0       0       0       0       0
       0       0       0       0       0       0       0       0       0       0
       0       0       0       0       0       0       0       0       0       0
       0       0       0       0       0       0       0       0       0       0
       0       0       0       0       0       0       0       0       0       0
       0       0       0       0       0       0       0       0       0       0
       0       0       0       0       0       0       0       0       0       0
       0       0       0       0       0       0       0       0       0       0
       0       0       0       0       0       0       0       0       0       0
       0       0       0       0       0       0       0       0       0       0
       0       0       0       0       0       0       0       0       0       0
       0       0       0       0       0       0       0       0       0       0
       0       0       0       0       0       0       0       0       0       0
       0       0       0       0       0       0       0       0       0       0
       0       0       0       0       0       0       0       0       0       0
       0       0       0       0       0       0       0       0       0       0
       0       0       0       0       0       0       0       0       0       0
       0       0       0       0       0       0       0       0       0       0
       0       0       0       0       0       0       0       0       0       0
       0       0       0       0       0       0       0       0       0       0
       0       0       0       0       0       0       0       0       0       0
       0       0       0       0       0       0       0       0       0       0
       0       0       0       0       0       0       0       0       0       0
       0       0       0       0       0       0       0       0       0       0
       0       0       0       0       0       0       0       0       0       0
       0       0       0       0       0       0       0       0       0       0
       0       0       0       0       0       0       0       0       0       0
       0       0       0       0       0       0       0       0       0       0
       0       0       0       0       0       0       0       0       0       0
       0       0       0       0       0       0       0       0       0       0
       0       0       0       0       0       0       0       0       0       0
       0       0       0       0       0       0       0       0       0       0
       0       0       0       0       0       0       0       0       0       0
       0       0       0       0       0       0       0       0       0       0
       0       0       0       0       0       0       0       0       0       0
       0       0       0       0       0       0       0       0       0       0
       0       0       0       0       0       0       0       0       0       0
       0       0       0       0       0       0       0       0       0       0
       0       0       0       0       0       0       0       0       0       0
       0       0       0       0       0       0       0       0       0       0
       0       0       0       0       0       0       0       0       0       0
       0       0       0       0       0       0       0       0       0       0
       0       0       0       0       0       0       0       0       0       0
       0       0       0       0       0       0       0       0       0       0
       0       0       0       0       0       0       0       0       0       0
       0       0       0       0       0       0       0       0       0       0
       0       0       0       0       0       0       0       0       0       0
       0       0       0       0       0       0       0       0       0       0
       0       0       0       0       0       0       0       0       0       0
       0       0       0       0       0       0       0       0       0       0
       0       0       0       0       0       0       0       0       0       0
       0       0       0       0       0       0       0       0       0       0
       0       0       0       0       0       0       0       0       0       0
       0       0       0       0       0       0       0       0       0       0
       0       0       0       0       0       0       0       0       0       0
       0       0       0       0       0       0       0       0       0       0
       0       0       0       0       0       0       0       0       0       0
       0       0       0       0       0       0       0       0       0       0
       0       0       0       0       0       0       0       0       0       0
       0       0       0       0       0       0       0       0       0       0
       0       0       0       0       0       0       0       0       0       0
       0       0       0       0       0       0       0       0       0       0
       0       0       0       0       0       0       0       0       0       0
       0       0       0       0       0       0       0       0       0       0
       0       0       0       0       0       0       0       0       0       0
       0       0       0       0       0       0       0       0       0       0
       0       0       0       0       0       0       0       0       0       0
       0       0       0       0       0       0       0       0       0       0
       0       0       0       0       0       0       0       0       0       0
       0       0       0       0       0       0       0       0       0       0
       0       0       0       0       0       0       0       0       0       0
       0       0       0       0       0       0       0       0       0       0
       0       0       0       0       0       0       0       0       0       0
       0       0       0       0       0       0       0       0       0       0
       0       0       0       0       0       0       0       0       0       0
       0       0       0       0       0       0       0       0       0       0
       0       0       0       0       0       0       0       0       0       0
       0       0       0       0       0       0       0       0       0       0
       0       0       0       0       0       0       0       0       0       0
       0       0       0       0       0       0       0       0       0       0
       0       0       0       0       0       0       0       0       0       0
       0       0       0       0       0       0       0       0       0       0
       0       0       0       0       0       0       0       0       0       0
       0       0       0       0       0       0       0       0       0       0
       0       0       0       0       0       0       0       0       0       0
       0       0       0       0       0       0       0       0       0       0
       0       0       0       0       0       0       0       0       0       0
       0       0       0       0       0       0       0       0       0       0
       0       0       0       0       0       0       0       0       0       0
       0       0       0       0       0       0       0       0       0       0
       0       0       0       0       0       0       0       0       0       0
       0       0       0       0       0       0       0       0       0       0
       0       0       0       0       0       0       0       0       0       0
       0       0       0       0       0       0       0       0       0       0
       0       0       0       0       0       0       0       0       0       0
       0       0       0       0       0       0       0       0       0       0
       0       0       0       0       0       0       0       0       0       0
       0       0       0       0       0       0       0       0       0       0
       0       0       0       0       0       0       0       0       0       0
       0       0       0       0       0       0       0       0       0       0
       0       0       0       0       0       0       0       0       0       0
       0       0       0       0       0       0       0       0       0       0
       0       0       0       0       0       0       0       0       0       0
       0       0       0       0       0       0       0       0       0       0
       0       0       0       0       0       0       0       0       0       0
       0       0       0       0       0       0       0       0       0       0
       0       0       0       0       0       0       0       0       0       0
       0       0       0       0       0       0       0       0       0       0
       0       0       0       0       0       0       0       0       0       0
       0       0       0       0       0       0       0       0       0       0
       0       0       0       0       0       0       0       0       0       0
       0       0       0       0       0       0       0       0       0       0
       0       0       0       0       0       0       0       0       0       0
       0       0       0       0       0       0       0       0       0       0
       0       0       0       0       0       0       0       0       0       0
       0       0       0       0       0       0       0       0       0       0
       0       0       0       0       0       0       0       0       0       0
       0       0       0       0       0       0       0       0       0       0
       0       0       0       0       0       0       0       0       0       0
       0       0       0       0       0       0       0       0       0       0
       0       0       0       0       0       0       0       0       0       0
       0       0       0       0       0       0       0       0       0       0
       0       0       0       0       0       0       0       0       0       0
       0       0       0       0       0       0       0       0       0       0
       0       0       0       0       0       0       0       0       0       0
       0       0       0       0       0       0       0       0       0       0
       0       0       0       0       0       0       0       0       0       0
       0       0       0       0       0       0       0       0       0       0
       0       0       0       0       0       0       0       0       0       0
       0       0       0       0       0       0       0       0       0       0
       0       0       0       0       0       0       0       0       0       0
       0       0       0       0       0       0       0       0       0       0
       0       0       0       0       0       0       0       0       0       0
       0       0       0       0       0       0       0       0       0       0
       0       0       0       0       0       0       0       0       0       0
       0       0       0       0       0       0       0       0       0       0
       0       0       0       0       0       0       0       0       0       0
       0       0       0       0       0       0       0       0       0       0
       0       0       0       0       0       0       0       0       0       0
       0       0       0       0       0       0       0       0       0       0
       0       0       0       0       0       0       0       0       0       0
       0       0       0       0       0       0       0       0       0       0
       0       0       0       0       0       0       0       0       0       0
       0       0       0       0       0       0       0       0       0       0
       0       0       0       0       0       0       0       0       0       0
       0       0       0       0       0       0       0       0       0       0
       0       0       0       0       0       0       0       0       0       0
       0       0       0       0       0       0       0       0       0       0
       0       0       0       0       0       0       0       0       0       0
       0       0       0       0       0       0       0       0       0       0
       0       0       0       0       0       0       0       0       0       0
       0       0       0       0       0       0       0       0       0       0
       0       0       0       0       0       0       0       0       0       0
       0       0       0       0       0       0       0       0       0       0
       0       0       0       0       0       0       0       0       0       0
       0       0       0       0       0       0       0       0       0       0
       0       0       0       0       0       0       0       0       0       0
       0       0       0       0       0       0       0       0       0       0
       0       0       0       0       0       0       0       0       0       0
       0       0       0       0       0       0       0       0       0       0
       0       0       0       0       0       0       0       0       0       0
       0       0       0       0       0       0       0       0       0       0
       0       0       0       0       0       0       0       0       0       0
       0       0       0       0       0       0       0       0       0       0
       0       0       0       0       0       0       0       0       0       0
       0       0       0       0       0       0       0       0       0       0
       0       0       0       0       0       0       0       0       0       0
       0       0       0       0       0       0       0       0       0       0
       0       0       0       0       0       0       0       0       0       0
       0       0       0       0       0       0       0       0       0       0
       0       0       0       0       0       0       0       0       0       0
       0       0       0       0       0       0       0       0       0       0
       0       0       0       0       0       0       0       0       0       0
       0       0       0       0       0       0       0       0       0       0
       0       0       0       0       0       0       0       0       0       0
       0       0       0       0       0       0       0       0       0       0
       0       0       0       0       0       0       0       0       0       0
       0       0       0       0       0       0       0       0       0       0
       0       0       0       0       0       0       0       0       0       0
       0       0       0       0       0       0       0       0       0       0
       0       0       0       0       0       0       0       0       0       0
       0       0       0       0       0       0       0       0       0       0
       0       0       0       0       0       0       0       0       0       0
       0       0       0       0       0       0       0       0       0       0
       0       0       0       0       0       0       0       0       0       0
       0       0       0       0       0       0       0       0       0       0
       0       0       0       0       0       0       0       0       0       0
       0       0       0       0       0       0       0       0       0       0
       0       0       0       0       0       0       0       0       0       0
       0       0       0       0       0       0       0       0       0       0
       0       0       0       0       0       0       0       0       0       0
       0       0       0       0       0       0       0       0       0       0
       0       0       0       0       0       0       0       0       0       0
       0       0       0       0       0       0       0       0       0       0
       0       0       0       0       0       0       0       0       0       0
       0       0       0       0       0       0       0       0       0       0
       0       0       0       0       0       0       0       0       0       0
       0       0       0       0       0       0       0       0       0       0
       0       0       0       0       0       0       0       0       0       0
       0       0       0       0       0       0       0       0       0       0
       0       0       0       0       0       0       0       0       0       0
       0       0       0       0       0       0       0       0       0       0
       0       0       0       0       0       0       0       0       0       0
       0       0       0       0       0       0       0       0       0       0
       0       0       0       0       0       0       0       0       0       0
       0       0       0       0       0       0       0       0       0       0
       0       0       0       0       0       0       0       0       0       0
       0       0       0       0       0       0       0       0       0       0
       0       0       0       0       0       0       0       0       0       0
       0       0       0       0       0       0       0       0       0       0
       0       0       0       0       0       0       0       0       0       0
       0       0       0       0       0       0       0       0       0       0
       0       0       0       0       0       0       0       0       0       0
       0       0       0       0       0       0       0       0       0       0
       0       0       0       0       0       0       0       0       0       0
       0       0       0       0       0       0       0       0       0       0
       0       0       0       0       0       0       0       0       0       0
       0       0       0       0       0       0       0       0       0       0
       0       0       0       0       0       0       0       0       0       0
       0       0       0       0       0       0       0       0       0       0
       0       0       0       0       0       0       0       0       0       0
       0       0       0       0       0       0       0       0       0       0
       0       0       0       0       0       0       0       0       0       0
       0       0       0       0       0       0       0       0       0       0
       0       0       0       0       0       0       0       0       0       0
       0       0       0       0       0       0       0       0       0       0
       0       0       0       0       0       0       0       0       0       0
       0       0       0       0       0       0       0       0       0       0
       0       0       0       0       0       0       0       0       0       0
       0       0       0       0       0       0       0       0       0       0
       0       0       0       0       0       0       0       0       0       0
       0       0       0       0       0       0       0       0       0       0
       0       0       0       0       0       0       0       0       0       0
       0       0       0       0       0       0       0       0       0       0
       0       0       0       0       0       0       0       0       0       0
       0       0       0       0       0       0       0       0       0       0
       0       0       0       0       0       0       0       0       0       0
       0       0       0       0       0       0       0       0       0       0
       0       0       0       0       0       0       0       0       0       0
       0       0       0       0       0       0       0       0       0       0
       0       0       0       0       0       0       0       0       0       0
       0       0       0       0       0       0       0       0       0       0
       0       0       0       0       0       0       0       0       0       0
       0       0       0       0       0       0       0       0       0       0
       0       0       0       0       0       0       0       0       0       0
       0       0       0       0       0       0       0       0       0       0
       0       0       0       0       0       0       0       0       0       0
       0       0       0       0       0       0       0       0       0       0
       0       0       0       0       0       0       0       0       0       0
       0       0       0       0       0       0       0       0       0       0
       0       0       0       0       0       0       0       0       0       0
       0       0       0       0       0       0       0       0       0       0
       0       0       0       0       0       0       0       0       0       0
       0       0       0       0       0       0       0       0       0       0
       0       0       0       0       0       0       0       0       0       0
       0       0       0       0       0       0       0       0       0       0
       0       0       0       0       0       0       0       0       0       0
       0       0       0       0       0       0       0       0       0       0
       0       0       0       0       0       0       0       0       0       0
       0       0       0       0       0       0       0       0       0       0
       0       0       0       0       0       0       0       0       0       0
       0       0       0       0       0       0       0       0       0       0
       0       0       0       0       0       0       0       0       0       0
       0       0       0       0       0       0       0       0       0       0
       0       0       0       0       0       0       0       0       0       0
       0       0       0       0       0       0       0       0       0       0
       0       0       0       0       0       0       0       0       0       0
       0       0       0       0       0       0       0       0       0       0
       0       0       0       0       0       0       0       0       0       0
       0       0       0       0       0       0       0       0       0       0
       0       0       0       0       0       0       0       0       0       0
       0       0       0       0       0       0       0       0       0       0
       0       0       0       0       0       0       0       0       0       0
       0       0       0       0       0       0       0       0       0       0
       0       0       0       0       0       0       0       0       0       0
       0       0       0       0       0       0       0       0       0       0
       0       0       0       0       0       0       0       0       0       0
       0       0       0       0       0       0       0       0       0       0
       0       0       0       0       0       0       0       0       0       0
       0       0       0       0       0       0       0       0       0       0
       0       0       0       0       0       0       0       0       0       0
       0       0       0       0       0       0       0       0       0       0
       0       0       0       0       0       0       0       0       0       0
       0       0       0       0       0       0       0       0       0       0
       0       0       0       0       0       0       0       0       0       0
       0       0       0       0       0       0       0       0       0       0
       0       0       0       0       0       0       0       0       0       0
       0       0       0       0       0       0       0       0       0       0
       0       0       0       0       0       0       0       0       0       0
       0       0       0       0       0       0       0       0       0       0
       0       0       0       0       0       0       0       0       0       0
       0       0       0       0       0       0       0       0       0       0
       0       0       0       0       0       0       0       0       0       0
       0       0       0       0       0       0       0       0       0       0
       0       0       0       0       0       0       0       0       0       0
       0       0       0       0       0       0       0       0       0       0
       0       0       0       0       0       0       0       0       0       0
       0       0       0       0       0       0       0       0       0       0
       0       0       0       0       0       0       0       0       0       0
       0       0       0       0       0       0       0       0       0       0
       0       0       0       0       0       0       0       0       0       0
       0       0       0       0       0       0       0       0       0       0
       0       0       0       0       0       0       0       0       0       0
       0       0       0       0       0       0       0       0       0       0
       0       0       0       0       0       0       0       0       0       0
       0       0       0       0       0       0       0       0       0       0
       0       0       0       0       0       0       0       0       0       0
       0       0       0       0       0       0       0       0       0       0
       0       0       0       0       0       0       0       0       0       0
       0       0       0       0       0       0       0       0       0       0
       0       0       0       0       0       0       0       0       0       0
       0       0       0       0       0       0       0       0       0       0
       0       0       0       0       0       0       0       0       0       0
       0       0       0       0       0       0       0       0       0       0
       0       0       0       0       0       0       0       0       0       0
       0       0       0       0       0       0       0       0       0       0
       0       0       0       0       0       0       0       0       0       0
       0       0       0       0       0       0       0       0       0       0
       0       0       0       0       0       0       0       0       0       0
       0       0       0       0       0       0       0       0       0       0
       0       0       0       0       0       0       0       0       0       0
       0       0       0       0       0       0       0       0       0       0
       0       0       0       0       0       0       0       0       0       0
       0       0       0       0       0       0       0       0       0       0
       0       0       0       0       0       0       0       0       0       0
       0       0       0       0       0       0       0       0       0       0
       0       0       0       0       0       0       0       0       0       0
       0       0       0       0       0       0       0       0       0       0
       0       0       0       0       0       0       0       0       0       0
       0       0       0       0       0       0       0       0       0       0
       0       0       0       0       0       0       0       0       0       0
       0       0       0       0       0       0       0       0       0       0
       0       0       0       0       0       0       0       0       0       0
       0       0       0       0       0       0       0       0       0       0
       0       0       0       0       0       0       0       0       0       0
       0       0       0       0       0       0       0       0       0       0
       0       0       0       0       0       0       0       0       0       0
       0       0       0       0       0       0       0       0       0       0
       0       0       0       0       0       0       0       0       0       0
       0       0       0       0       0       0       0       0       0       0
       0       0       0       0       0       0       0       0       0       0
       0       0       0       0       0       0       0       0       0       0
       0       0       0       0       0       0       0       0       0       0
       0       0       0       0       0       0       0       0       0       0
       0       0       0       0       0       0       0       0       0       0
       0       0       0       0       0       0       0       0       0       0
       0       0       0       0       0       0       0       0       0       0
       0       0       0       0       0       0       0       0       0       0
       0       0       0       0       0       0       0       0       0       0
       0       0       0       0       0       0       0       0       0       0
       0       0       0       0       0       0       0       0       0       0
       0       0       0       0       0       0       0       0       0       0
       0       0       0       0       0       0       0       0       0       0
       0       0       0       0       0       0       0       0       0       0
       0       0       0       0       0       0       0       0       0       0
       0       0       0       0       0       0       0       0       0       0
       0       0       0       0       0       0       0       0       0       0
       0       0       0       0       0       0       0       0       0       0
       0       0       0       0       0       0       0       0       0       0
       0       0       0       0       0       0       0       0       0       0
       0       0       0       0       0       0       0       0       0       0
       0       0       0       0       0       0       0       0       0       0
       0       0       0       0       0       0       0       0       0       0
       0       0       0       0       0       0       0       0       0       0
       0       0       0       0       0       0       0       0       0       0
       0       0       0       0       0       0       0       0       0       0
       0       0       0       0       0       0       0       0       0       0
       0       0       0       0       0       0       0       0       0       0
       0       0       0       0       0       0       0       0       0       0
       0       0       0       0       0       0       0       0       0       0
       0       0       0       0       0       0       0       0       0       0
       0       0       0       0       0       0       0       0       0       0
       0       0       0       0       0       0       0       0       0       0
       0       0       0       0       0       0       0       0       0       0
       0       0       0       0       0       0       0       0       0       0
       0       0       0       0       0       0       0       0       0       0
       0       0       0       0       0       0       0       0       0       0
       0       0       0       0       0       0       0       0       0       0
       0       0       0       0       0       0       0       0       0       0
       0       0       0       0       0       0       0       0       0       0
       0       0       0       0       0       0       0       0       0       0
       0       0       0       0       0       0       0       0       0       0
       0       0       0       0       0       0       0       0       0       0
       0       0       0       0       0       0       0       0       0       0
       0       0       0       0       0       0       0       0       0       0
       0       0       0       0       0       0       0       0       0       0
       0       0       0       0       0       0       0       0       0       0
       0       0       0       0       0       0       0       0       0       0
       0       0       0       0       0       0       0       0       0       0
       0       0       0       0       0       0       0       0       0       0
       0       0       0       0       0       0       0       0       0       0
       0       0       0       0       0       0       0       0       0       0
       0       0       0       0       0       0       0       0       0       0
       0       0       0       0       0       0       0       0       0       0
       0       0       0       0       0       0       0       0       0       0
       0       0       0       0       0       0       0       0       0       0
       0       0       0       0       0       0       0       0       0       0
       0       0       0       0       0       0       0       0       0       0
       0       0       0       0       0       0       0       0       0       0
       0       0       0       0       0       0       0       0       0       0
       0       0       0       0       0       0       0       0       0       0
       0       0       0       0       0       0       0       0       0       0
       0       0       0       0       0       0       0       0       0       0
       0       0       0       0       0       0       0       0       0       0
       0       0       0       0       0       0       0       0       0       0
       0       0       0       0       0       0       0       0       0       0
       0       0       0       0       0       0       0       0       0       0
       0       0       0       0       0       0       0       0       0       0
       0       0       0       0       0       0       0       0       0       0
       0       0       0       0       0       0       0       0       0       0
       0       0       0       0       0       0       0       0       0       0
       0       0       0       0       0       0       0       0       0       0
       0       0       0       0       0       0       0       0       0       0
       0       0       0       0       0       0       0       0       0       0
       0       0       0       0       0       0       0       0       0       0
       0       0       0       0       0       0       0       0       0       0
       0       0       0       0       0       0       0       0       0       0
       0       0       0       0       0       0       0       0       0       0
       0       0       0       0       0       0       0       0       0       0
       0       0       0       0       0       0       0       0       0       0
       0       0       0       0       0       0       0       0       0       0
       0       0       0       0       0       0       0       0       0       0
       0       0       0       0       0       0       0       0       0       0
       0       0       0       0       0       0       0       0       0       0
       0       0       0       0       0       0       0       0       0       0
       0       0       0       0       0       0       0       0       0       0
       0       0       0       0       0       0       0       0       0       0
       0       0       0       0       0       0       0       0       0       0
       0       0       0       0       0       0       0       0       0       0
       0       0       0       0       0       0       0       0       0       0
       0       0       0       0       0       0       0       0       0       0
       0       0       0       0       0       0       0       0       0       0
       0       0       0       0       0       0       0       0       0       0
       0       0       0       0       0       0       0       0       0       0
       0       0       0       0       0       0       0       0       0       0
       0       0       0       0       0       0       0       0       0       0
       0       0       0       0       0       0       0       0       0       0
       0       0       0       0       0       0       0       0       0       0
       0       0       0       0       0       0       0       0       0       0
       0       0       0       0       0       0       0       0       0       0
       0       0       0       0       0       0       0       0       0       0
       0       0       0       0       0       0       0       0       0       0
       0       0       0       0       0       0       0       0       0       0
       0       0       0       0       0       0       0       0       0       0
       0       0       0       0       0       0       0       0       0       0
       0       0       0       0       0       0       0       0       0       0
       0       0       0       0       0       0       0       0       0       0
       0       0       0       0       0       0       0       0       0       0
       0       0       0       0       0       0       0       0       0       0
       0       0       0       0       0       0       0       0       0       0
       0       0       0       0       0       0       0       0       0       0
       0       0       0       0       0       0       0       0       0       0
       0       0       0       0       0       0       0       0       0       0
       0       0       0       0       0       0       0       0       0       0
       0       0       0       0       0       0       0       0       0       0
       0       0       0       0       0       0       0       0       0       0
       0       0       0       0       0       0       0       0       0       0
       0       0       0       0       0       0       0       0       0       0
       0       0       0       0       0       0       0       0       0       0
       0       0       0       0       0       0       0       0       0       0
       0       0       0       0       0       0       0       0       0       0
       0       0       0       0       0       0       0       0       0       0
       0       0       0       0       0       0       0       0       0       0
       0       0       0       0       0       0       0       0       0       0
       0       0       0       0       0       0       0       0       0       0
       0       0       0       0       0       0       0       0       0       0
       0       0       0       0       0       0       0       0       0       0
       0       0       0       0       0       0       0       0       0       0
       0       0       0       0       0       0       0       0       0       0
       0       0       0       0       0       0       0       0       0       0
       0       0       0       0       0       0       0       0       0       0
       0       0       0       0       0       0       0       0       0       0
       0       0       0       0       0       0       0       0       0       0
       0       0       0       0       0       0       0       0       0       0
       0       0       0       0       0       0       0       0       0       0
       0       0       0       0       0       0       0       0       0       0
       0       0       0       0       0       0       0       0       0       0
       0       0       0       0       0       0       0       0       0       0
       0       0       0       0       0       0       0       0       0       0
       0       0       0       0       0       0       0       0       0       0
       0       0       0       0       0       0       0       0       0       0
       0       0       0       0       0       0       0       0       0       0
       0       0       0       0       0       0       0       0       0       0
       0       0       0       0       0       0       0       0       0       0
       0       0       0       0       0       0       0       0       0       0
       0       0       0       0       0       0       0       0       0       0
       0       0       0       0       0       0       0       0       0       0
       0       0       0       0       0       0       0       0       0       0
       0       0       0       0       0       0       0       0       0       0
       0       0       0       0       0       0       0       0       0       0
       0       0       0       0       0       0       0       0       0       0
       0       0       0       0       0       0       0       0       0       0
       0       0       0       0       0       0       0       0       0       0
       0       0       0       0       0       0       0       0       0       0
       0       0       0       0       0       0       0       0       0       0
       0       0       0       0       0       0       0       0       0       0
       0       0       0       0       0       0       0       0       0       0
       0       0       0       0       0       0       0       0       0       0
       0       0       0       0       0       0       0       0       0       0
       0       0       0       0       0       0       0       0       0       0
       0       0       0       0       0       0       0       0       0       0
       0       0       0       0       0       0       0       0       0       0
       0       0       0       0       0       0       0       0       0       0
       0       0       0       0       0       0       0       0       0       0
       0       0       0       0       0       0       0       0       0       0
       0       0       0       0       0       0       0       0       0       0
       0       0       0       0       0       0       0       0       0       0
       0       0       0       0       0       0       0       0       0       0
       0       0       0       0       0       0       0       0       0       0
       0       0       0       0       0       0       0       0       0       0
       0       0       0       0       0       0       0       0       0       0
       0       0       0       0       0       0       0       0       0       0
       0       0       0       0       0       0       0       0       0       0
       0       0       0       0       0       0       0       0       0       0
       0       0       0       0       0       0       0       0       0       0
       0       0       0       0       0       0       0       0       0       0
       0       0       0       0       0       0       0       0       0       0
       0       0       0       0       0       0       0       0       0       0
       0       0       0       0       0       0       0       0       0       0
       0       0       0       0       0       0       0       0       0       0
       0       0       0       0       0       0       0       0       0       0
       0       0       0       0       0       0       0       0       0       0
       0       0       0       0       0       0       0       0       0       0
       0       0       0       0       0       0       0       0       0       0
       0       0       0       0       0       0       0       0       0       0
       0       0       0       0       0       0       0       0       0       0
       0       0       0       0       0       0       0       0       0       0
       0       0       0       0       0       0       0       0       0       0
       0       0       0       0       0       0       0       0       0       0
       0       0       0       0       0       0       0       0       0       0
       0       0       0       0       0       0       0       0       0       0
       0       0       0       0       0       0       0       0       0       0
       0       0       0       0       0       0       0       0       0       0
       0       0       0       0       0       0       0       0       0       0
       0       0       0       0       0       0       0       0       0       0
       0       0       0       0       0       0       0       0       0       0
       0       0       0       0       0       0       0       0       0       0
       0       0       0       0       0       0       0       0       0       0
       0       0       0       0       0       0       0       0       0       0
       0       0       0       0       0       0       0       0       0       0
       0       0       0       0       0       0       0       0       0       0
       0       0       0       0       0       0       0       0       0       0
       0       0       0       0       0       0       0       0       0       0
       0       0       0       0       0       0       0       0       0       0
       0       0       0       0       0       0       0       0       0       0
       0       0       0       0       0       0       0       0       0       0
       0       0       0       0       0       0       0       0       0       0
       0       0       0       0       0       0       0       0       0       0
       0       0       0       0       0       0       0       0       0       0
       0       0       0       0       0       0       0       0       0       0
       0       0       0       0       0       0       0       0       0       0
       0       0       0       0       0       0       0       0       0       0
       0       0       0       0       0       0       0       0       0       0
       0       0       0       0       0       0       0       0       0       0
       0       0       0       0       0       0       0       0       0       0
       0       0       0       0       0       0       0       0       0       0
       0       0       0       0       0       0       0       0       0       0
       0       0       0       0       0       0       0       0       0       0
       0       0       0       0       0       0       0       0       0       0
       0       0       0       0       0       0       0       0       0       0
       0       0       0       0       0       0       0       0       0       0
       0       0       0       0       0       0       0       0       0       0
       0       0       0       0       0       0       0       0       0       0
       0       0       0       0       0       0       0       0       0       0
       0       0       0       0       0       0       0       0       0       0
       0       0       0       0       0       0       0       0       0       0
       0       0       0       0       0       0       0       0       0       0
       0       0       0       0       0       0       0       0       0       0
       0       0       0       0       0       0       0       0       0       0
       0       0       0       0       0       0       0       0       0       0
       0       0       0       0       0       0       0       0       0       0
       0       0       0       0       0       0       0       0       0       0
       0       0       0       0       0       0       0       0       0       0
       0       0       0       0       0       0       0       0       0       0
       0       0       0       0       0       0       0       0       0       0
       0       0       0       0       0       0       0       0       0       0
       0       0       0       0       0       0       0       0       0       0
       0       0       0       0       0       0       0       0       0       0
       0       0       0       0       0       0       0       0       0       0
       0       0       0       0       0       0       0       0       0       0
       0       0       0       0       0       0       0       0       0       0
       0       0       0       0       0       0       0       0       0       0
       0       0       0       0       0       0       0       0       0       0
       0       0       0       0       0       0       0       0       0       0
       0       0       0       0       0       0       0       0       0       0
       0       0       0       0       0       0       0       0       0       0
       0       0       0       0       0       0       0       0       0       0
       0       0       0       0       0       0       0       0       0       0
       0       0       0       0       0       0       0       0       0       0
       0       0       0       0       0       0       0       0       0       0
       0       0       0       0       0       0       0       0       0       0
       0       0       0       0       0       0       0       0       0       0
       0       0       0       0       0       0       0       0       0       0
       0       0       0       0       0       0       0       0       0       0
       0       0       0       0       0       0       0       0       0       0
       0       0       0       0       0       0       0       0       0       0
       0       0       0       0       0       0       0       0       0       0
       0       0       0       0       0       0       0       0       0       0
       0       0       0       0       0       0       0       0       0       0
       0       0       0       0       0       0       0       0       0       0
       0       0       0       0       0       0       0       0       0       0
       0       0       0       0       0       0       0       0       0       0
       0       0       0       0       0       0       0       0       0       0
       0       0       0       0       0       0       0       0       0       0
       0       0       0       0       0       0       0       0       0       0
       0       0       0       0       0       0       0       0       0       0
       0       0       0       0       0       0       0       0       0       0
       0       0       0       0       0       0       0       0       0       0
       0       0       0       0       0       0       0       0       0       0
       0       0       0       0       0       0       0       0       0       0
       0       0       0       0       0       0       0       0       0       0
       0       0       0       0       0       0       0       0       0       0
       0       0       0       0       0       0       0       0       0       0
       0       0       0       0       0       0       0       0       0       0
       0       0       0       0       0       0       0       0       0       0
       0       0       0       0       0       0       0       0       0       0
       0       0       0       0       0       0       0       0       0       0
       0       0       0       0       0       0       0       0       0       0
       0       0       0       0       0       0       0       0       0       0
       0       0       0       0       0       0       0       0       0       0
       0       0       0       0       0       0       0       0       0       0
       0       0       0       0       0       0       0       0       0       0
       0       0       0       0       0       0       0       0       0       0
       0       0       0       0       0       0       0       0       0       0
       0       0       0       0       0       0       0       0       0       0
       0       0       0       0       0       0       0       0       0       0
       0       0       0       0       0       0       0       0       0       0
       0       0       0       0       0       0       0       0       0       0
       0       0       0       0       0       0       0       0       0       0
       0       0       0       0       0       0       0       0       0       0
       0       0       0       0       0       0       0       0       0       0
       0       0       0       0       0       0       0       0       0       0
       0       0       0       0       0       0       0       0       0       0
       0       0       0       0       0       0       0       0       0       0
       0       0       0       0       0       0       0       0       0       0
       0       0       0       0       0       0       0       0       0       0
       0       0       0       0       0       0       0       0       0       0
       0       0       0       0       0       0       0       0       0       0
       0       0       0       0       0       0       0       0       0       0
       0       0       0       0       0       0       0       0       0       0
       0       0       0       0       0       0       0       0       0       0
       0       0       0       0       0       0       0       0       0       0
       0       0       0       0       0       0       0       0       0       0
       0       0       0       0       0       0       0       0       0       0
       0       0       0       0       0       0       0       0       0       0
       0       0       0       0       0       0       0       0       0       0
       0       0       0       0       0       0       0       0       0       0
       0       0       0       0       0       0       0       0       0       0
       0       0       0       0       0       0       0       0       0       0
       0       0       0       0       0       0       0       0       0       0
       0       0       0       0       0       0       0       0       0       0
       0       0       0       0       0       0       0       0       0       0
       0       0       0       0       0       0       0       0       0       0
       0       0       0       0       0       0       0       0       0       0
       0       0       0       0       0       0       0       0       0       0
       0       0       0       0       0       0       0       0       0       0
       0       0       0       0       0       0       0       0       0       0
       0       0       0       0       0       0       0       0       0       0
       0       0       0       0       0       0       0       0       0       0
       0       0       0       0       0       0       0       0       0       0
       0       0       0       0       0       0       0       0       0       0
       0       0       0       0       0       0       0       0       0       0
       0       0       0       0       0       0       0       0       0       0
       0       0       0       0       0       0       0       0       0       0
       0       0       0       0       0       0       0       0       0       0
       0       0       0       0       0       0       0       0       0       0
       0       0       0       0       0       0       0       0       0       0
       0       0       0       0       0       0       0       0       0       0
       0       0       0       0       0       0       0       0       0       0
       0       0       0       0       0       0       0       0       0       0
       0       0       0       0       0       0       0       0       0       0
       0       0       0       0       0       0       0       0       0       0
       0       0       0       0       0       0       0       0       0       0
       0       0       0       0       0       0       0       0       0       0
       0       0       0       0       0       0       0       0       0       0
       0       0       0       0       0       0       0       0       0       0
       0       0       0       0       0       0       0       0       0       0
       0       0       0       0       0       0       0       0       0       0
       0       0       0       0       0       0       0       0       0       0
       0       0       0       0       0       0       0       0       0       0
       0       0       0       0       0       0       0       0       0       0
       0       0       0       0       0       0       0       0       0       0
       0       0       0       0       0       0       0       0       0       0
       0       0       0       0       0       0       0       0       0       0
       0       0       0       0       0       0       0       0       0       0
       0       0       0       0       0       0       0       0       0       0
       0       0       0       0       0       0       0       0       0       0
       0       0       0       0       0       0       0       0       0       0
       0       0       0       0       0       0       0       0       0       0
       0       0       0       0       0       0       0       0       0       0
       0       0       0       0       0       0       0       0       0       0
       0       0       0       0       0       0       0       0       0       0
       0       0       0       0       0       0       0       0       0       0
       0       0       0       0       0       0       0       0       0       0
       0       0       0       0       0       0       0       0       0       0
       0       0       0       0       0       0       0       0       0       0
       0       0       0       0       0       0       0       0       0       0
       0       0       0       0       0       0       0       0       0       0
       0       0       0       0       0       0       0       0       0       0
       0       0       0       0       0       0       0       0       0       0
       0       0       0       0       0       0       0       0       0       0
       0       0       0       0       0       0       0       0       0       0
       0       0       0       0       0       0       0       0       0       0
       0       0       0       0       0       0       0       0       0       0
       0       0       0       0       0       0       0       0       0       0
       0       0       0       0       0       0       0       0       0       0
       0       0       0       0       0       0       0       0       0       0
       0       0       0       0       0       0       0       0       0       0
       0       0       0       0       0       0       0       0       0       0
       0       0       0       0       0       0       0       0       0       0
       0       0       0       0       0       0       0       0       0       0
       0       0       0       0       0       0       0       0       0       0
       0       0       0       0       0       0       0       0       0       0
       0       0       0       0       0       0       0       0       0       0
       0       0       0       0       0       0       0       0       0       0
       0       0       0       0       0       0       0       0       0       0
       0       0       0       0       0       0       0       0       0       0
       0       0       0       0       0       0       0       0       0       0
       0       0       0       0       0       0       0       0       0       0
       0       0       0       0       0       0       0       0       0       0
       0       0       0       0       0       0       0       0       0       0
       0       0       0       0       0       0       0       0       0       0
       0       0       0       0       0       0       0       0       0       0
       0       0       0       0       0       0       0       0       0       0
       0       0       0       0       0       0       0       0       0       0
       0       0       0       0       0       0       0       0       0       0
       0       0       0       0       0       0       0       0       0       0
       0       0       0       0       0       0       0       0       0       0
       0       0       0       0       0       0       0       0       0       0
       0       0       0       0       0       0       0       0       0       0
       0       0       0       0       0       0       0       0       0       0
       0       0       0       0       0       0       0       0       0       0
       0       0       0       0       0       0       0       0       0       0
       0       0       0       0       0       0       0       0       0       0
       0       0       0       0       0       0       0       0       0       0
       0       0       0       0       0       0       0       0       0       0
       0       0       0       0       0       0       0       0       0       0
       0       0       0       0       0       0       0       0       0       0
       0       0       0       0       0       0       0       0       0       0
       0       0       0       0       0       0       0       0       0       0
       0       0       0       0       0       0       0       0       0       0
       0       0       0       0       0       0       0       0       0       0
       0       0       0       0       0       0       0       0       0       0
       0       0       0       0       0       0       0       0       0       0
       0       0       0       0       0       0       0       0       0       0
       0       0       0       0       0       0       0       0       0       0
       0       0       0       0       0       0       0       0       0       0
       0       0       0       0       0       0       0       0       0       0
       0       0       0       0       0       0       0       0       0       0
       0       0       0       0       0       0       0       0       0       0
       0       0       0       0       0       0       0       0       0       0
       0       0       0       0       0       0       0       0       0       0
       0       0       0       0       0       0       0       0       0       0
       0       0       0       0       0       0       0       0       0       0
       0       0       0       0       0       0       0       0       0       0
       0       0       0       0       0       0       0       0       0       0
       0       0       0       0       0       0       0       0       0       0
       0       0       0       0       0       0       0       0       0       0
       0       0       0       0       0       0       0       0       0       0
       0       0       0       0       0       0       0       0       0       0
       0       0       0       0       0       0       0       0       0       0
       0       0       0       0       0       0       0       0       0       0
       0       0       0       0       0       0       0       0       0       0
       0       0       0       0       0       0       0       0       0       0
       0       0       0       0       0       0       0       0       0       0
       0       0       0       0       0       0       0       0       0       0
       0       0       0       0       0       0       0       0       0       0
       0       0       0       0       0       0       0       0       0       0
       0       0       0       0       0       0       0       0       0       0
       0       0       0       0       0       0       0       0       0       0
       0       0       0       0       0       0       0       0       0       0
       0       0       0       0       0       0       0       0       0       0
       0       0       0       0       0       0       0       0       0       0
       0       0       0       0       0       0       0       0       0       0
       0       0       0       0       0       0       0       0       0       0
       0       0       0       0       0       0       0       0       0       0
       0       0       0       0       0       0       0       0       0       0
       0       0       0       0       0       0       0       0       0       0
       0       0       0       0       0       0       0       0       0       0
       0       0       0       0       0       0       0       0       0       0
       0       0       0       0       0       0       0       0       0       0
       0       0       0       0       0       0       0       0       0       0
       0       0       0       0       0       0       0       0       0       0
       0       0       0       0       0       0       0       0       0       0
       0       0       0       0       0       0       0       0       0       0
       0       0       0       0       0       0       0       0       0       0
       0       0       0       0       0       0       0       0       0       0
       0       0       0       0       0       0       0       0       0       0
       0       0       0       0       0       0       0       0       0       0
       0       0       0       0       0       0       0       0       0       0
       0       0       0       0       0       0       0       0       0       0
       0       0       0       0       0       0       0       0       0       0
       0       0       0       0       0       0       0       0       0       0
       0       0       0       0       0       0       0       0       0       0
       0       0       0       0       0       0       0       0       0       0
       0       0       0       0       0       0       0       0       0       0
       0       0       0       0       0       0       0       0       0       0
       0       0       0       0       0       0       0       0       0       0
       0       0       0       0       0       0       0       0       0       0
       0       0       0       0       0       0       0       0       0       0
       0       0       0       0       0       0       0       0       0       0
       0       0       0       0       0       0       0       0       0       0
       0       0       0       0       0       0       0       0       0       0
       0       0       0       0       0       0       0       0       0       0
       0       0       0       0       0       0       0       0       0       0
       0       0       0       0       0       0       0       0       0       0
       0       0       0       0       0       0       0       0       0       0
       0       0       0       0       0       0       0       0       0       0
       0       0       0       0       0       0       0       0       0       0
       0       0       0       0       0       0       0       0       0       0
       0       0       0       0       0       0       0       0       0       0
       0       0       0       0       0       0       0       0       0       0
       0       0       0       0       0       0       0       0       0       0
       0       0       0       0       0       0       0       0       0       0
       0       0       0       0       0       0       0       0       0       0
       0       0       0       0       0       0       0       0       0       0
       0       0       0       0       0       0       0       0       0       0
       0       0       0       0       0       0       0       0       0       0
       0       0       0       0       0       0       0       0       0       0
       0       0       0       0       0       0       0       0       0       0
       0       0       0       0       0       0       0       0       0       0
       0       0       0       0       0       0       0       0       0       0
       0       0       0       0       0       0       0       0       0       0
       0       0       0       0       0       0       0       0       0       0
       0       0       0       0       0       0       0       0       0       0
       0       0       0       0       0       0       0       0       0       0
       0       0       0       0       0       0       0       0       0       0
       0       0       0       0       0       0       0       0       0       0
       0       0       0       0       0       0       0       0       0       0
       0       0       0       0       0       0       0       0       0       0
       0       0       0       0       0       0       0       0       0       0
       0       0       0       0       0       0       0       0       0       0
       0       0       0       0       0       0       0       0       0       0
       0       0       0       0       0       0       0       0       0       0
       0       0       0       0       0       0       0       0       0       0
       0       0       0       0       0       0       0       0       0       0
       0       0       0       0       0       0       0       0       0       0
       0       0       0       0       0       0       0       0       0       0
       0       0       0       0       0       0       0       0       0       0
       0       0       0       0       0       0       0       0       0       0
       0       0       0       0       0       0       0       0       0       0
       0       0       0       0       0       0       0       0       0       0
       0       0       0       0       0       0       0       0       0       0
       0       0       0       0       0       0       0       0       0       0
       0       0       0       0       0       0       0       0       0       0
       0       0       0       0       0       0       0       0       0       0
       0       0       0       0       0       0       0       0       0       0
       0       0       0       0       0       0       0       0       0       0
       0       0       0       0       0       0       0       0       0       0
       0       0       0       0       0       0       0       0       0       0
       0       0       0       0       0       0       0       0       0       0
       0       0       0       0       0       0       0       0       0       0
       0       0       0       0       0       0       0       0       0       0
       0       0       0       0       0       0       0       0       0       0
       0       0       0       0       0       0       0       0       0       0
       0       0       0       0       0       0       0       0       0       0
       0       0       0       0       0       0       0       0       0       0
       0       0       0       0       0       0       0       0       0       0
       0       0       0       0       0       0       0       0       0       0
       0       0       0       0       0       0       0       0       0       0
       0       0       0       0       0       0       0       0       0       0
       0       0       0       0       0       0       0       0       0       0
       0       0       0       0       0       0       0       0       0       0
       0       0       0       0       0       0       0       0       0       0
       0       0       0       0       0       0       0       0       0       0
       0       0       0       0       0       0       0       0       0       0
       0       0       0       0       0       0       0       0       0       0
       0       0       0       0       0       0       0       0       0       0
       0       0       0       0       0       0       0       0       0       0
       0       0       0       0       0       0       0       0       0       0
       0       0       0       0       0       0       0       0       0       0
       0       0       0       0       0       0       0       0       0       0
       0       0       0       0       0       0       0       0       0       0
       0       0       0       0       0       0       0       0       0       0
       0       0       0       0       0       0       0       0       0       0
       0       0       0       0       0       0       0       0       0       0
       0       0       0       0       0       0       0       0       0       0
       0       0       0       0       0       0       0       0       0       0
       0       0       0       0       0       0       0       0       0       0
       0       0       0       0       0       0       0       0       0       0
       0       0       0       0       0       0       0       0       0       0
       0       0       0       0       0       0       0       0       0       0
       0       0       0       0       0       0       0       0       0       0
       0       0       0       0       0       0       0       0       0       0
       0       0       0       0       0       0       0       0       0       0
       0       0       0       0       0       0       0       0       0       0
       0       0       0       0       0       0       0       0       0       0
       0       0       0       0       0       0       0       0       0       0
       0       0       0       0       0       0       0       0       0       0
       0       0       0       0       0       0       0       0       0       0
       0       0       0       0       0       0       0       0       0       0
       0       0       0       0       0       0       0       0       0       0
       0       0       0       0       0       0       0       0       0       0
       0       0       0       0       0       0       0       0       0       0
       0       0       0       0       0       0       0       0       0       0
       0       0       0       0       0       0       0       0       0       0
       0       0       0       0       0       0       0       0       0       0
       0       0       0       0       0       0       0       0       0       0
       0       0       0       0       0       0       0       0       0       0
       0       0       0       0       0       0       0       0       0       0
       0       0       0       0       0       0       0       0       0       0
       0       0       0       0       0       0       0       0       0       0
       0       0       0       0       0       0       0       0       0       0
       0       0       0       0       0       0       0       0       0       0
       0       0       0       0       0       0       0       0       0       0
       0       0       0       0       0       0       0       0       0       0
       0       0       0       0       0       0       0       0       0       0
       0       0       0       0       0       0       0       0       0       0
       0       0       0       0       0       0       0       0       0       0
       0       0       0       0       0       0       0       0       0       0
       0       0       0       0       0       0       0       0       0       0
       0       0       0       0       0       0       0       0       0       0
       0       0       0       0       0       0       0       0       0       0
       0       0       0       0       0       0       0       0       0       0
       0       0       0       0       0       0       0       0       0       0
       0       0       0       0       0       0       0       0       0       0
       0       0       0       0       0       0       0       0       0       0
       0       0       0       0       0       0       0       0       0       0
       0       0       0       0       0       0       0       0       0       0
       0       0       0       0       0       0       0       0       0       0
       0       0       0       0       0       0       0       0       0       0
       0       0       0       0       0       0       0       0       0       0
       0       0       0       0       0       0       0       0       0       0
       0       0       0       0       0       0       0       0       0       0
       0       0       0       0       0       0       0       0       0       0
       0       0       0       0       0       0       0       0       0       0
       0       0       0       0       0       0       0       0       0       0
       0       0       0       0       0       0       0       0       0       0
       0       0       0       0       0       0       0       0       0       0
       0       0       0       0       0       0       0       0       0       0
       0       0       0       0       0       0       0       0       0       0
       0       0       0       0       0       0       0       0       0       0
       0       0       0       0       0       0       0       0       0       0
       0       0       0       0       0       0       0       0       0       0
       0       0       0       0       0       0       0       0       0       0
       0       0       0       0       0       0       0       0       0       0
       0       0       0       0       0       0       0       0       0       0
       0       0       0       0       0       0       0       0       0       0
       0       0       0       0       0       0       0       0       0       0
       0       0       0       0       0       0       0       0       0       0
       0       0       0       0       0       0       0       0       0       0
       0       0       0       0       0       0       0       0       0       0
       0       0       0       0       0       0       0       0       0       0
       0       0       0       0       0       0       0       0       0       0
       0       0       0       0       0       0       0       0       0       0
       0       0       0       0       0       0       0       0       0       0
       0       0       0       0       0       0       0       0       0       0
       0       0       0       0       0       0       0       0       0       0
       0       0       0       0       0       0       0       0       0       0
       0       0       0       0       0       0       0       0       0       0
       0       0       0       0       0       0       0       0       0       0
       0       0       0       0       0       0       0       0       0       0
       0       0       0       0       0       0       0       0       0       0
       0       0       0       0       0       0       0       0       0       0
       0       0       0       0       0       0       0       0       0       0
       0       0       0       0       0       0       0       0       0       0
       0       0       0       0       0       0       0       0       0       0
       0       0       0       0       0       0       0       0       0       0
       0       0       0       0       0       0       0       0       0       0
       0       0       0       0       0       0       0       0       0       0
       0       0       0       0       0       0       0       0       0       0
       0       0       0       0       0       0       0       0       0       0
       0       0       0       0       0       0       0       0       0       0
       0       0       0       0       0       0       0       0       0       0
       0       0       0       0       0       0       0       0       0       0
       0       0       0       0       0       0       0       0       0       0
       0       0       0       0       0       0       0       0       0       0
       0       0       0       0       0       0       0       0       0       0
       0       0       0       0       0       0       0       0       0       0
       0       0       0       0       0       0       0       0       0       0
       0       0       0       0       0       0       0       0       0       0
       0       0       0       0       0       0       0       0       0       0
       0       0       0       0       0       0       0       0       0       0
       0       0       0       0       0       0       0       0       0       0
       0       0       0       0       0       0       0       0       0       0
       0       0       0       0       0       0       0       0       0       0
       0       0       0       0       0       0       0       0       0       0
       0       0       0       0       0       0       0       0       0       0
       0       0       0       0       0       0       0       0       0       0
       0       0       0       0       0       0       0       0       0       0
       0       0       0       0       0       0       0       0       0       0
       0       0       0       0       0       0       0       0       0       0
       0       0       0       0       0       0       0       0       0       0
       0       0       0       0       0       0       0       0       0       0
       0       0       0       0       0       0       0       0       0       0
       0       0       0       0       0       0       0       0       0       0
       0       0       0       0       0       0       0       0       0       0
       0       0       0       0       0       0       0       0       0       0
       0       0       0       0       0       0       0       0       0       0
       0       0       0       0       0       0       0       0       0       0
       0       0       0       0       0       0       0       0       0       0
       0       0       0       0       0       0       0       0       0       0
       0       0       0       0       0       0       0       0       0       0
       0       0       0       0       0       0       0       0       0       0
       0       0       0       0       0       0       0       0       0       0
       0       0       0       0       0       0       0       0       0       0
       0       0       0       0       0       0       0       0       0       0
       0       0       0       0       0       0       0       0       0       0
       0       0       0       0       0       0       0       0       0       0
       0       0       0       0       0       0       0       0       0       0
       0       0       0       0       0       0       0       0       0       0
       0       0       0       0       0       0       0       0       0       0
       0       0       0       0       0       0       0       0       0       0
       0       0       0       0       0       0       0       0       0       0
       0       0       0       0       0       0       0       0       0       0
       0       0       0       0       0       0       0       0       0       0
       0       0       0       0       0       0       0       0       0       0
       0       0       0       0       0       0       0       0       0       0
       0       0       0       0       0       0       0       0       0       0
       0       0       0       0       0       0       0       0       0       0
       0       0       0       0       0       0       0       0       0       0
       0       0       0       0       0       0       0       0       0       0
       0       0       0       0       0       0       0       0       0       0
       0       0       0       0       0       0       0       0       0       0
       0       0       0       0       0       0       0       0       0       0
       0       0       0       0       0       0       0       0       0       0
       0       0       0       0       0       0       0       0       0       0
       0       0       0       0       0       0       0       0       0       0
       0       0       0       0       0       0       0       0       0       0
       0       0       0       0       0       0       0       0       0       0
       0       0       0       0       0       0       0       0       0       0
       0       0       0       0       0       0       0       0       0       0
       0       0       0       0       0       0       0       0       0       0
       0       0       0       0       0       0       0       0       0       0
       0       0       0       0       0       0       0       0       0       0
       0       0       0       0       0       0       0       0       0       0
       0       0       0       0       0       0       0       0       0       0
       0       0       0       0       0       0       0       0       0       0
       0       0       0       0       0       0       0       0       0       0
       0       0       0       0       0       0       0       0       0       0
       0       0       0       0       0       0       0       0       0       0
       0       0       0       0       0       0       0       0       0       0
       0       0       0       0       0       0       0       0       0       0
       0       0       0       0       0       0       0       0       0       0
       0       0       0       0       0       0       0       0       0       0
       0       0       0       0       0       0       0       0       0       0
       0       0       0       0       0       0       0       0       0       0
       0       0       0       0       0       0       0       0       0       0
       0       0       0       0       0       0       0       0       0       0
       0       0       0       0       0       0       0       0       0       0
       0       0       0       0       0       0       0       0       0       0
       0       0       0       0       0       0       0       0       0       0
       0       0       0       0       0       0       0       0       0       0
       0       0       0       0       0       0       0       0       0       0
       0       0       0       0       0       0       0       0       0       0
       0       0       0       0       0       0       0       0       0       0
       0       0       0       0       0       0       0       0       0       0
       0       0       0       0       0       0       0       0       0       0
       0       0       0       0       0       0       0       0       0       0
       0       0       0       0       0       0       0       0       0       0
       0       0       0       0       0       0       0       0       0       0
       0       0       0       0       0       0       0       0       0       0
       0       0       0       0       0       0       0       0       0       0
       0       0       0       0       0       0       0       0       0       0
       0       0       0       0       0       0       0       0       0       0
       0       0       0       0       0       0       0       0       0       0
       0       0       0       0       0       0       0       0       0       0
       0       0       0       0       0       0       0       0       0       0
       0       0       0       0       0       0       0       0       0       0
       0       0       0       0       0       0       0       0       0       0
       0       0       0       0       0       0       0       0       0       0
       0       0       0       0       0       0       0       0       0       0
       0       0       0       0       0       0       0       0       0       0
       0       0       0       0       0       0       0       0       0       0
       0       0       0       0       0       0       0       0       0       0
       0       0       0       0       0       0       0       0       0       0
       0       0       0       0       0       0       0       0       0       0
       0       0       0       0       0       0       0       0       0       0
       0       0       0       0       0       0       0       0       0       0
       0       0       0       0       0       0       0       0       0       0
       0       0       0       0       0       0       0       0       0       0
       0       0       0       0       0       0       0       0       0       0
       0       0       0       0       0       0       0       0       0       0
       0       0       0       0       0       0       0       0       0       0
       0       0       0       0       0       0       0       0       0       0
       0       0       0       0       0       0       0       0       0       0
       0       0       0       0       0       0       0       0       0       0
       0       0       0       0       0       0       0       0       0       0
       0       0       0       0       0       0       0       0       0       0
       0       0       0       0       0       0       0       0       0       0
       0       0       0       0       0       0       0       0       0       0
       0       0       0       0       0       0       0       0       0       0
       0       0       0       0       0       0       0       0       0       0
       0       0       0       0       0       0       0       0       0       0
       0       0       0       0       0       0       0       0       0       0
       0       0       0       0       0       0       0       0       0       0
       0       0       0       0       0       0       0       0       0       0
       0       0       0       0       0       0       0       0       0       0
       0       0       0       0       0       0       0       0       0       0
       0       0       0       0       0       0       0       0       0       0
       0       0       0       0       0       0       0       0       0       0
       0       0       0       0       0       0       0       0       0       0
       0       0       0       0       0       0       0       0       0       0
       0       0       0       0       0       0       0       0       0       0
       0       0       0       0       0       0       0       0       0       0
       0       0       0       0       0       0       0       0       0       0
       0       0       0       0       0       0       0       0       0       0
       0       0       0       0       0       0       0       0       0       0
       0       0       0       0       0       0       0       0       0       0
       0       0       0       0       0       0       0       0       0       0
       0       0       0       0       0       0       0       0       0       0
       0       0       0       0       0       0       0       0       0       0
       0       0       0       0       0       0       0       0       0       0
       0       0       0       0       0       0       0       0       0       0
       0       0       0       0       0       0       0       0       0       0
       0       0       0       0       0       0       0       0       0       0
       0       0       0       0       0       0       0       0       0       0
       0       0       0       0       0       0       0       0       0       0
       0       0       0       0       0       0       0       0       0       0
       0       0       0       0       0       0       0       0       0       0
       0       0       0       0       0       0       0       0       0       0
       0       0       0       0       0       0       0       0       0       0
       0       0       0       0       0       0       0       0       0       0
       0       0       0       0       0       0       0       0       0       0
       0       0       0       0       0       0       0       0       0       0
       0       0       0       0       0       0       0       0       0       0
       0       0       0       0       0       0       0       0       0       0
       0       0       0       0       0       0       0       0       0       0
       0       0       0       0       0       0       0       0       0       0
       0       0       0       0       0       0       0       0       0       0
       0       0       0       0       0       0       0       0       0       0
       0       0       0       0       0       0       0       0       0       0
       0       0       0       0       0       0       0       0       0       0
       0       0       0       0       0       0       0       0       0       0
       0       0       0       0       0       0       0       0       0       0
       0       0       0       0       0       0       0       0       0       0
       0       0       0       0       0       0       0       0       0       0
       0       0       0       0       0       0       0       0       0       0
       0       0       0       0       0       0       0       0       0       0
       0       0       0       0       0       0       0       0       0       0
       0       0       0       0       0       0       0       0       0       0
       0       0       0       0       0       0       0       0       0       0
       0       0       0       0       0       0       0       0       0       0
       0       0       0       0       0       0       0       0       0       0
       0       0       0       0       0       0       0       0       0       0
       0       0       0       0       0       0       0       0       0       0
       0       0       0       0       0       0       0       0       0       0
       0       0       0       0       0       0       0       0       0       0
       0       0       0       0       0       0       0       0       0       0
       0       0       0       0       0       0       0       0       0       0
       0       0       0       0       0       0       0       0       0       0
       0       0       0       0       0       0       0       0       0       0
       0       0       0       0       0       0       0       0       0       0
       0       0       0       0       0       0       0       0       0       0
       0       0       0       0       0       0       0       0       0       0
       0       0       0       0       0       0       0       0       0       0
       0       0       0       0       0       0       0       0       0       0
       0       0       0       0       0       0       0       0       0       0
       0       0       0       0       0       0       0       0       0       0
       0       0       0       0       0       0       0       0       0       0
       0       0       0       0       0       0       0       0       0       0
       0       0       0       0       0       0       0       0       0       0
       0       0       0       0       0       0       0       0       0       0
       0       0       0       0       0       0       0       0       0       0
       0       0       0       0       0       0       0       0       0       0
       0       0       0       0       0       0       0       0       0       0
       0       0       0       0       0       0       0       0       0       0
       0       0       0       0       0       0       0       0       0       0
       0       0       0       0       0       0       0       0       0       0
       0       0       0       0       0       0       0       0       0       0
       0       0       0       0       0       0       0       0       0       0
       0       0       0       0       0       0       0       0       0       0
       0       0       0       0       0       0       0       0       0       0
       0       0       0       0       0       0       0       0       0       0
       0       0       0       0       0       0       0       0       0       0
       0       0       0       0       0       0       0       0       0       0
       0       0       0       0       0       0       0       0       0       0
       0       0       0       0       0       0       0       0       0       0
       0       0       0       0       0       0       0       0       0       0
       0       0       0       0       0       0       0       0       0       0
       0       0       0       0       0       0       0       0       0       0
       0       0       0       0       0       0       0       0       0       0
       0       0       0       0       0       0       0       0       0       0
       0       0       0       0       0       0       0       0       0       0
       0       0       0       0       0       0       0       0       0       0
       0       0       0       0       0       0       0       0       0       0
       0       0       0       0       0       0       0       0       0       0
       0       0       0       0       0       0       0       0       0       0
       0       0       0       0       0       0       0       0       0       0
       0       0       0       0       0       0       0       0       0       0
       0       0       0       0       0       0       0       0       0       0
       0       0       0       0       0       0       0       0       0       0
       0       0       0       0       0       0       0       0       0       0
       0       0       0       0       0       0       0       0       0       0
       0       0       0       0       0       0       0       0       0       0
       0       0       0       0       0       0       0       0       0       0
       0       0       0       0       0       0       0       0       0       0
       0       0       0       0       0       0       0       0       0       0
       0       0       0       0       0       0       0       0       0       0
       0       0       0       0       0       0       0       0       0       0
       0       0       0       0       0       0       0       0       0       0
       0       0       0       0       0       0       0       0       0       0
       0       0       0       0       0       0       0       0       0       0
       0       0       0       0       0       0       0       0       0       0
       0       0       0       0       0       0       0       0       0       0
       0       0       0       0       0       0       0       0       0       0
       0       0       0       0       0       0       0       0       0       0
       0       0       0       0       0       0       0       0       0       0
       0       0       0       0       0       0       0       0       0       0
       0       0       0       0       0       0       0       0       0       0
       0       0       0       0       0       0       0       0       0       0
       0       0       0       0       0       0       0       0       0       0
       0       0       0       0       0       0       0       0       0       0
       0       0       0       0       0       0       0       0       0       0
       0       0       0       0       0       0       0       0       0       0
       0       0       0       0       0       0       0       0       0       0
       0       0       0       0       0       0       0       0       0       0
       0       0       0       0       0       0       0       0       0       0
       0       0       0       0       0       0       0       0       0       0
       0       0       0       0       0       0       0       0       0       0
       0       0       0       0       0       0       0       0       0       0
       0       0       0       0       0       0       0       0       0       0
       0       0       0       0       0       0       0       0       0       0
       0       0       0       0       0       0       0       0       0       0
       0       0       0       0       0       0       0       0       0       0
       0       0       0       0       0       0       0       0       0       0
       0       0       0       0       0       0       0       0       0       0
       0       0       0       0       0       0       0       0       0       0
       0       0       0       0       0       0       0       0       0       0
       0       0       0       0       0       0       0       0       0       0
       0       0       0       0       0       0       0       0       0       0
       0       0       0       0       0       0       0       0       0       0
       0       0       0       0       0       0       0       0       0       0
       0       0       0       0       0       0       0       0       0       0
       0       0       0       0       0       0       0       0       0       0
       0       0       0       0       0       0       0       0       0       0
       0       0       0       0       0       0       0       0       0       0
       0       0       0       0       0       0       0       0       0       0
       0       0       0       0       0       0       0       0       0       0
       0       0       0       0       0       0       0       0       0       0
       0       0       0       0       0       0       0       0       0       0
       0       0       0       0       0       0       0       0       0       0
       0       0       0       0       0       0       0       0       0       0
       0       0       0       0       0       0       0       0       0       0
       0       0       0       0       0       0       0       0       0       0
       0       0       0       0       0       0       0       0       0       0
       0       0       0       0       0       0       0       0       0       0
       0       0       0       0       0       0       0       0       0       0
       0       0       0       0       0       0       0       0       0       0
       0       0       0       0       0       0       0       0       0       0
       0       0       0       0       0       0       0       0       0       0
       0       0       0       0       0       0       0       0       0       0
       0       0       0       0       0       0       0       0       0       0
       0       0       0       0       0       0       0       0       0       0
       0       0       0       0       0       0       0       0       0       0
       0       0       0       0       0       0       0       0       0       0
       0       0       0       0       0       0       0       0       0       0
       0       0       0       0       0       0       0       0       0       0
       0       0       0       0       0       0       0       0       0       0
       0       0       0       0       0       0       0       0       0       0
       0       0       0       0       0       0       0       0       0       0
       0       0       0       0       0       0       0       0       0       0
       0       0       0       0       0       0       0       0       0       0
       0       0       0       0       0       0       0       0       0       0
       0       0       0       0       0       0       0       0       0       0
       0       0       0       0       0       0       0       0       0       0
       0       0       0       0       0       0       0       0       0       0
       0       0       0       0       0       0       0       0       0       0
       0       0       0       0       0       0       0       0       0       0
       0       0       0       0       0       0       0       0       0       0
       0       0       0       0       0       0       0       0       0       0
       0       0       0       0       0       0       0       0       0       0
       0       0       0       0       0       0       0       0       0       0
       0       0       0       0       0       0       0       0       0       0
       0       0       0       0       0       0       0       0       0       0
       0       0       0       0       0       0       0       0       0       0
       0       0       0       0       0       0       0       0       0       0
       0       0       0       0       0       0       0       0       0       0
       0       0       0       0       0       0       0       0       0       0
       0       0       0       0       0       0       0       0       0       0
       0       0       0       0       0       0       0       0       0       0
       0       0       0       0       0       0       0       0       0       0
       0       0       0       0       0       0       0       0       0       0
       0       0       0       0       0       0       0       0       0       0
       0       0       0       0       0       0       0       0       0       0
       0       0       0       0       0       0       0       0       0       0
       0       0       0       0       0       0       0       0       0       0
       0       0       0       0       0       0       0       0       0       0
       0       0       0       0       0       0       0       0       0       0
       0       0       0       0       0       0       0       0       0       0
       0       0       0       0       0       0       0       0       0       0
       0       0       0       0       0       0       0       0       0       0
       0       0       0       0       0       0       0       0       0       0
       0       0       0       0       0       0       0       0       0       0
       0       0       0       0       0       0       0       0       0       0
       0       0       0       0       0       0       0       0       0       0
       0       0       0       0       0       0       0       0       0       0
       0       0       0       0       0       0       0       0       0       0
       0       0       0       0       0       0       0       0       0       0
       0       0       0       0       0       0       0       0       0       0
       0       0       0       0       0       0       0       0       0       0
       0       0       0       0       0       0       0       0       0       0
       0       0       0       0       0       0       0       0       0       0
       0       0       0       0       0       0       0       0       0       0
       0       0       0       0       0       0       0       0       0       0
       0       0       0       0       0       0       0       0       0       0
       0       0       0       0       0       0       0       0       0       0
       0       0       0       0       0       0       0       0       0       0
       0       0       0       0       0       0       0       0       0       0
       0       0       0       0       0       0       0       0       0       0
       0       0       0       0       0       0       0       0       0       0
       0       0       0       0       0       0       0       0       0       0
       0       0       0       0       0       0       0       0       0       0
       0       0       0       0       0       0       0       0       0       0
       0       0       0       0       0       0       0       0       0       0
       0       0       0       0       0       0       0       0       0       0
       0       0       0       0       0       0       0       0       0       0
       0       0       0       0       0       0       0       0       0       0
       0       0       0       0       0       0       0       0       0       0
       0       0       0       0       0       0       0       0       0       0
       0       0       0       0       0       0       0       0       0       0
       0       0       0       0       0       0       0       0       0       0
       0       0       0       0       0       0       0       0       0       0
       0       0       0       0       0       0       0       0       0       0
       0       0       0       0       0       0       0       0       0       0
       0       0       0       0       0       0       0       0       0       0
       0       0       0       0       0       0       0       0       0       0
       0       0       0       0       0       0       0       0       0       0
       0       0       0       0       0       0       0       0       0       0
       0       0       0       0       0       0       0       0       0       0
       0       0       0       0       0       0       0       0       0       0
       0       0       0       0       0       0       0       0       0       0
       0       0       0       0       0       0       0       0       0       0
       0       0       0       0       0       0       0       0       0       0
       0       0       0       0       0       0       0       0       0       0
       0       0       0       0       0       0       0       0       0       0
       0       0       0       0       0       0       0       0       0       0
       0       0       0       0       0       0       0       0       0       0
       0       0       0       0       0       0       0       0       0       0
       0       0       0       0       0       0       0       0       0       0
       0       0       0       0       0       0       0       0       0       0
       0       0       0       0       0       0       0       0       0       0
       0       0       0       0       0       0       0       0       0       0
       0       0       0       0       0       0       0       0       0       0
       0       0       0       0       0       0       0       0       0       0
       0       0       0       0       0       0       0       0       0       0
       0       0       0       0       0       0       0       0       0       0
       0       0       0       0       0       0       0       0       0       0
       0       0       0       0       0       0       0       0       0       0
       0       0       0       0       0       0       0       0       0       0
       0       0       0       0       0       0       0       0       0       0
       0       0       0       0       0       0       0       0       0       0
       0       0       0       0       0       0       0       0       0       0
       0       0       0       0       0       0       0       0       0       0
       0       0       0       0       0       0       0       0       0       0
       0       0       0       0       0       0       0       0       0       0
       0       0       0       0       0       0       0       0       0       0
       0       0       0       0       0       0       0       0       0       0
       0       0       0       0       0       0       0       0       0       0
       0       0       0       0       0       0       0       0       0       0
       0       0       0       0       0       0
%FLAG IROTAT                                                                    
%FORMAT(10I8)                                                                   
       0       0       0       0       0       0       0       0       0       0
       0       0       0       0       0       0       0       0       0       0
       0       0       0       0       0       0       0       0       0       0
       0       0       0       0       0       0       0       0       0       0
       0       0       0       0       0       0       0       0       0       0
       0       0       0       0       0       0       0       0       0       0
       0       0       0       0       0       0       0       0       0       0
       0       0       0       0       0       0       0       0       0       0
       0       0       0       0       0       0       0       0       0       0
       0       0       0       0       0       0       0       0       0       0
       0       0       0       0       0       0       0       0       0       0
       0       0       0       0       0       0       0       0       0       0
       0       0       0       0       0       0       0       0       0       0
       0       0       0       0       0       0       0       0       0       0
       0       0       0       0       0       0       0       0       0       0
       0       0       0       0       0       0       0       0       0       0
       0       0       0       0       0       0       0       0       0       0
       0       0       0       0       0       0       0       0       0       0
       0       0       0       0       0       0       0       0       0       0
       0       0       0       0       0       0       0       0       0       0
       0       0       0       0       0       0       0       0       0       0
       0       0       0       0       0       0       0       0       0       0
       0       0       0       0       0       0       0       0       0       0
       0       0       0       0       0       0       0       0       0       0
       0       0       0       0       0       0       0       0       0       0
       0       0       0       0       0       0       0       0       0       0
       0       0       0       0       0       0       0       0       0       0
       0       0       0       0       0       0       0       0       0       0
       0       0       0       0       0       0       0       0       0       0
       0       0       0       0       0       0       0       0       0       0
       0       0       0       0       0       0       0       0       0       0
       0       0       0       0       0       0       0       0       0       0
       0       0       0       0       0       0       0       0       0       0
       0       0       0       0       0       0       0       0       0       0
       0       0       0       0       0       0       0       0       0       0
       0       0       0       0       0       0       0       0       0       0
       0       0       0       0       0       0       0       0       0       0
       0       0       0       0       0       0       0       0       0       0
       0       0       0       0       0       0       0       0       0       0
       0       0       0       0       0       0       0       0       0       0
       0       0       0       0       0       0       0       0       0       0
       0       0       0       0       0       0       0       0       0       0
       0       0       0       0       0       0       0       0       0       0
       0       0       0       0       0       0       0       0       0       0
       0       0       0       0       0       0       0       0       0       0
       0       0       0       0       0       0       0       0       0       0
       0       0       0       0       0       0       0       0       0       0
       0       0       0       0       0       0       0       0       0       0
       0       0       0       0       0       0       0       0       0       0
       0       0       0       0       0       0       0       0       0       0
       0       0       0       0       0       0       0       0       0       0
       0       0       0       0       0       0       0       0       0       0
       0       0       0       0       0       0       0       0       0       0
       0       0       0       0       0       0       0       0       0       0
       0       0       0       0       0       0       0       0       0       0
       0       0       0       0       0       0       0       0       0       0
       0       0       0       0       0       0       0       0       0       0
       0       0       0       0       0       0       0       0       0       0
       0       0       0       0       0       0       0       0       0       0
       0       0       0       0       0       0       0       0       0       0
       0       0       0       0       0       0       0       0       0       0
       0       0       0       0       0       0       0       0       0       0
       0       0       0       0       0       0       0       0       0       0
       0       0       0       0       0       0       0       0       0       0
       0       0       0       0       0       0       0       0       0       0
       0       0       0       0       0       0       0       0       0       0
       0       0       0       0       0       0       0       0       0       0
       0       0       0       0       0       0       0       0       0       0
       0       0       0       0       0       0       0       0       0       0
       0       0       0       0       0       0       0       0       0       0
       0       0       0       0       0       0       0       0       0       0
       0       0       0       0       0       0       0       0       0       0
       0       0       0       0       0       0       0       0       0       0
       0       0       0       0       0       0       0       0       0       0
       0       0       0       0       0       0       0       0       0       0
       0       0       0       0       0       0       0       0       0       0
       0       0       0       0       0       0       0       0       0       0
       0       0       0       0       0       0       0       0       0       0
       0       0       0       0       0       0       0       0       0       0
       0       0       0       0       0       0       0       0       0       0
       0       0       0       0       0       0       0       0       0       0
       0       0       0       0       0       0       0       0       0       0
       0       0       0       0       0       0       0       0       0       0
       0       0       0       0       0       0       0       0       0       0
       0       0       0       0       0       0       0       0       0       0
       0       0       0       0       0       0       0       0       0       0
       0       0       0       0       0       0       0       0       0       0
       0       0       0       0       0       0       0       0       0       0
       0       0       0       0       0       0       0       0       0       0
       0       0       0       0       0       0       0       0       0       0
       0       0       0       0       0       0       0       0       0       0
       0       0       0       0       0       0       0       0       0       0
       0       0       0       0       0       0       0       0       0       0
       0       0       0       0       0       0       0       0       0       0
       0       0       0       0       0       0       0       0       0       0
       0       0       0       0       0       0       0       0       0       0
       0       0       0       0       0       0       0       0       0       0
       0       0       0       0       0       0       0       0       0       0
       0       0       0       0       0       0       0       0       0       0
       0       0       0       0       0       0       0       0       0       0
       0       0       0       0       0       0       0       0       0       0
       0       0       0       0       0       0       0       0       0       0
       0       0       0       0       0       0       0       0       0       0
       0       0       0       0       0       0       0       0       0       0
       0       0       0       0       0       0       0       0       0       0
       0       0       0       0       0       0       0       0       0       0
       0       0       0       0       0       0       0       0       0       0
       0       0       0       0       0       0       0       0       0       0
       0       0       0       0       0       0       0       0       0       0
       0       0       0       0       0       0       0       0       0       0
       0       0       0       0       0       0       0       0       0       0
       0       0       0       0       0       0       0       0       0       0
       0       0       0       0       0       0       0       0       0       0
       0       0       0       0       0       0       0       0       0       0
       0       0       0       0       0       0       0       0       0       0
       0       0       0       0       0       0       0       0       0       0
       0       0       0       0       0       0       0       0       0       0
       0       0       0       0       0       0       0       0       0       0
       0       0       0       0       0       0       0       0       0       0
       0       0       0       0       0       0       0       0       0       0
       0       0       0       0       0       0       0       0       0       0
       0       0       0       0       0       0       0       0       0       0
       0       0       0       0       0       0       0       0       0       0
       0       0       0       0       0       0       0       0       0       0
       0       0       0       0       0       0       0       0       0       0
       0       0       0       0       0       0       0       0       0       0
       0       0       0       0       0       0       0       0       0       0
       0       0       0       0       0       0       0       0       0       0
       0       0       0       0       0       0       0       0       0       0
       0       0       0       0       0       0       0       0       0       0
       0       0       0       0       0       0       0       0       0       0
       0       0       0       0       0       0       0       0       0       0
       0       0       0       0       0       0       0       0       0       0
       0       0       0       0       0       0       0       0       0       0
       0       0       0       0       0       0       0       0       0       0
       0       0       0       0       0       0       0       0       0       0
       0       0       0       0       0       0       0       0       0       0
       0       0       0       0       0       0       0       0       0       0
       0       0       0       0       0       0       0       0       0       0
       0       0       0       0       0       0       0       0       0       0
       0       0       0       0       0       0       0       0       0       0
       0       0       0       0       0       0       0       0       0       0
       0       0       0       0       0       0       0       0       0       0
       0       0       0       0       0       0       0       0       0       0
       0       0       0       0       0       0       0       0       0       0
       0       0       0       0       0       0       0       0       0       0
       0       0       0       0       0       0       0       0       0       0
       0       0       0       0       0       0       0       0       0       0
       0       0       0       0       0       0       0       0       0       0
       0       0       0       0       0       0       0       0       0       0
       0       0       0       0       0       0       0       0       0       0
       0       0       0       0       0       0       0       0       0       0
       0       0       0       0       0       0       0       0       0       0
       0       0       0       0       0       0       0       0       0       0
       0       0       0       0       0       0       0       0       0       0
       0       0       0       0       0       0       0       0       0       0
       0       0       0       0       0       0       0       0       0       0
       0       0       0       0       0       0       0       0       0       0
       0       0       0       0       0       0       0       0       0       0
       0       0       0       0       0       0       0       0       0       0
       0       0       0       0       0       0       0       0       0       0
       0       0       0       0       0       0       0       0       0       0
       0       0       0       0       0       0       0       0       0       0
       0       0       0       0       0       0       0       0       0       0
       0       0       0       0       0       0       0       0       0       0
       0       0       0       0       0       0       0       0       0       0
       0       0       0       0       0       0       0       0       0       0
       0       0       0       0       0       0       0       0       0       0
       0       0       0       0       0       0       0       0       0       0
       0       0       0       0       0       0       0       0       0       0
       0       0       0       0       0       0       0       0       0       0
       0       0       0       0       0       0       0       0       0       0
       0       0       0       0       0       0       0       0       0       0
       0       0       0       0       0       0       0       0       0       0
       0       0       0       0       0       0       0       0       0       0
       0       0       0       0       0       0       0       0       0       0
       0       0       0       0       0       0       0       0       0       0
       0       0       0       0       0       0       0       0       0       0
       0       0       0       0       0       0       0       0       0       0
       0       0       0       0       0       0       0       0       0       0
       0       0       0       0       0       0       0       0       0       0
       0       0       0       0       0       0       0       0       0       0
       0       0       0       0       0       0       0       0       0       0
       0       0       0       0       0       0       0       0       0       0
       0       0       0       0       0       0       0       0       0       0
       0       0       0       0       0       0       0       0       0       0
       0       0       0       0       0       0       0       0       0       0
       0       0       0       0       0       0       0       0       0       0
       0       0       0       0       0       0       0       0       0       0
       0       0       0       0       0       0       0       0       0       0
       0       0       0       0       0       0       0       0       0       0
       0       0       0       0       0       0       0       0       0       0
       0       0       0       0       0       0       0       0       0       0
       0       0       0       0       0       0       0       0       0       0
       0       0       0       0       0       0       0       0       0       0
       0       0       0       0       0       0       0       0       0       0
       0       0       0       0       0       0       0       0       0       0
       0       0       0       0       0       0       0       0       0       0
       0       0       0       0       0       0       0       0       0       0
       0       0       0       0       0       0       0       0       0       0
       0       0       0       0       0       0       0       0       0       0
       0       0       0       0       0       0       0       0       0       0
       0       0       0       0       0       0       0       0       0       0
       0       0       0       0       0       0       0       0       0       0
       0       0       0       0       0       0       0       0       0       0
       0       0       0       0       0       0       0       0       0       0
       0       0       0       0       0       0       0       0       0       0
       0       0       0       0       0       0       0       0       0       0
       0       0       0       0       0       0       0       0       0       0
       0       0       0       0       0       0       0       0       0       0
       0       0       0       0       0       0       0       0       0       0
       0       0       0       0       0       0       0       0       0       0
       0       0       0       0       0       0       0       0       0       0
       0       0       0       0       0       0       0       0       0       0
       0       0       0       0       0       0       0       0       0       0
       0       0       0       0       0       0       0       0       0       0
       0       0       0       0       0       0       0       0       0       0
       0       0       0       0       0       0       0       0       0       0
       0       0       0       0       0       0       0       0       0       0
       0       0       0       0       0       0       0       0       0       0
       0       0       0       0       0       0       0       0       0       0
       0       0       0       0       0       0       0       0       0       0
       0       0       0       0       0       0       0       0       0       0
       0       0       0       0       0       0       0       0       0       0
       0       0       0       0       0       0       0       0       0       0
       0       0       0       0       0       0       0       0       0       0
       0       0       0       0       0       0       0       0       0       0
       0       0       0       0       0       0       0       0       0       0
       0       0       0       0       0       0       0       0       0       0
       0       0       0       0       0       0       0       0       0       0
       0       0       0       0       0       0       0       0       0       0
       0       0       0       0       0       0       0       0       0       0
       0       0       0       0       0       0       0       0       0       0
       0       0       0       0       0       0       0       0       0       0
       0       0       0       0       0       0       0       0       0       0
       0       0       0       0       0       0       0       0       0       0
       0       0       0       0       0       0       0       0       0       0
       0       0       0       0       0       0       0       0       0       0
       0       0       0       0       0       0       0       0       0       0
       0       0       0       0       0       0       0       0       0       0
       0       0       0       0       0       0       0       0       0       0
       0       0       0       0       0       0       0       0       0       0
       0       0       0       0       0       0       0       0       0       0
       0       0       0       0       0       0       0       0       0       0
       0       0       0       0       0       0       0       0       0       0
       0       0       0       0       0       0       0       0       0       0
       0       0       0       0       0       0       0       0       0       0
       0       0       0       0       0       0       0       0       0       0
       0       0       0       0       0       0       0       0       0       0
       0       0       0       0       0       0       0       0       0       0
       0       0       0       0       0       0       0       0       0       0
       0       0       0       0       0       0       0       0       0       0
       0       0       0       0       0       0       0       0       0       0
       0       0       0       0       0       0       0       0       0       0
       0       0       0       0       0       0       0       0       0       0
       0       0       0       0       0       0       0       0       0       0
       0       0       0       0       0       0       0       0       0       0
       0       0       0       0       0       0       0       0       0       0
       0       0       0       0       0       0       0       0       0       0
       0       0       0       0       0       0       0       0       0       0
       0       0       0       0       0       0       0       0       0       0
       0       0       0       0       0       0       0       0       0       0
       0       0       0       0       0       0       0       0       0       0
       0       0       0       0       0       0       0       0       0       0
       0       0       0       0       0       0       0       0       0       0
       0       0       0       0       0       0       0       0       0       0
       0       0       0       0       0       0       0       0       0       0
       0       0       0       0       0       0       0       0       0       0
       0       0       0       0       0       0       0       0       0       0
       0       0       0       0       0       0       0       0       0       0
       0       0       0       0       0       0       0       0       0       0
       0       0       0       0       0       0       0       0       0       0
       0       0       0       0       0       0       0       0       0       0
       0       0       0       0       0       0       0       0       0       0
       0       0       0       0       0       0       0       0       0       0
       0       0       0       0       0       0       0       0       0       0
       0       0       0       0       0       0       0       0       0       0
       0       0       0       0       0       0       0       0       0       0
       0       0       0       0       0       0       0       0       0       0
       0       0       0       0       0       0       0       0       0       0
       0       0       0       0       0       0       0       0       0       0
       0       0       0       0       0       0       0       0       0       0
       0       0       0       0       0       0       0       0       0       0
       0       0       0       0       0       0       0       0       0       0
       0       0       0       0       0       0       0       0       0       0
       0       0       0       0       0       0       0       0       0       0
       0       0       0       0       0       0       0       0       0       0
       0       0       0       0       0       0       0       0       0       0
       0       0       0       0       0       0       0       0       0       0
       0       0       0       0       0       0       0       0       0       0
       0       0       0       0       0       0       0       0       0       0
       0       0       0       0       0       0       0       0       0       0
       0       0       0       0       0       0       0       0       0       0
       0       0       0       0       0       0       0       0       0       0
       0       0       0       0       0       0       0       0       0       0
       0       0       0       0       0       0       0       0       0       0
       0       0       0       0       0       0       0       0       0       0
       0       0       0       0       0       0       0       0       0       0
       0       0       0       0       0       0       0       0       0       0
       0       0       0       0       0       0       0       0       0       0
       0       0       0       0       0       0       0       0       0       0
       0       0       0       0       0       0       0       0       0       0
       0       0       0       0       0       0       0       0       0       0
       0       0       0       0       0       0       0       0       0       0
       0       0       0       0       0       0       0       0       0       0
       0       0       0       0       0       0       0       0       0       0
       0       0       0       0       0       0       0       0       0       0
       0       0       0       0       0       0       0       0       0       0
       0       0       0       0       0       0       0       0       0       0
       0       0       0       0       0       0       0       0       0       0
       0       0       0       0       0       0       0       0       0       0
       0       0       0       0       0       0       0       0       0       0
       0       0       0       0       0       0       0       0       0       0
       0       0       0       0       0       0       0       0       0       0
       0       0       0       0       0       0       0       0       0       0
       0       0       0       0       0       0       0       0       0       0
       0       0       0       0       0       0       0       0       0       0
       0       0       0       0       0       0       0       0       0       0
       0       0       0       0       0       0       0       0       0       0
       0       0       0       0       0       0       0       0       0       0
       0       0       0       0       0       0       0       0       0       0
       0       0       0       0       0       0       0       0       0       0
       0       0       0       0       0       0       0       0       0       0
       0       0       0       0       0       0       0       0       0       0
       0       0       0       0       0       0       0       0       0       0
       0       0       0       0       0       0       0       0       0       0
       0       0       0       0       0       0       0       0       0       0
       0       0       0       0       0       0       0       0       0       0
       0       0       0       0       0       0       0       0       0       0
       0       0       0       0       0       0       0       0       0       0
       0       0       0       0       0       0       0       0       0       0
       0       0       0       0       0       0       0       0       0       0
       0       0       0       0       0       0       0       0       0       0
       0       0       0       0       0       0       0       0       0       0
       0       0       0       0       0       0       0       0       0       0
       0       0       0       0       0       0       0       0       0       0
       0       0       0       0       0       0       0       0       0       0
       0       0       0       0       0       0       0       0       0       0
       0       0       0       0       0       0       0       0       0       0
       0       0       0       0       0       0       0       0       0       0
       0       0       0       0       0       0       0       0       0       0
       0       0       0       0       0       0       0       0       0       0
       0       0       0       0       0       0       0       0       0       0
       0       0       0       0       0       0       0       0       0       0
       0       0       0       0       0       0       0       0       0       0
       0       0       0       0       0       0       0       0       0       0
       0       0       0       0       0       0       0       0       0       0
       0       0       0       0       0       0       0       0       0       0
       0       0       0       0       0       0       0       0       0       0
       0       0       0       0       0       0       0       0       0       0
       0       0       0       0       0       0       0       0       0       0
       0       0       0       0       0       0       0       0       0       0
       0       0       0       0       0       0       0       0       0       0
       0       0       0       0       0       0       0       0       0       0
       0       0       0       0       0       0       0       0       0       0
       0       0       0       0       0       0       0       0       0       0
       0       0       0       0       0       0       0       0       0       0
       0       0       0       0       0       0       0       0       0       0
       0       0       0       0       0       0       0       0       0       0
       0       0       0       0       0       0       0       0       0       0
       0       0       0       0       0       0       0       0       0       0
       0       0       0       0       0       0       0       0       0       0
       0       0       0       0       0       0       0       0       0       0
       0       0       0       0       0       0       0       0       0       0
       0       0       0       0       0       0       0       0       0       0
       0       0       0       0       0       0       0       0       0       0
       0       0       0       0       0       0       0       0       0       0
       0       0       0       0       0       0       0       0       0       0
       0       0       0       0       0       0       0       0       0       0
       0       0       0       0       0       0       0       0       0       0
       0       0       0       0       0       0       0       0       0       0
       0       0       0       0       0       0       0       0       0       0
       0       0       0       0       0       0       0       0       0       0
       0       0       0       0       0       0       0       0       0       0
       0       0       0       0       0       0       0       0       0       0
       0       0       0       0       0       0       0       0       0       0
       0       0       0       0       0       0       0       0       0       0
       0       0       0       0       0       0       0       0       0       0
       0       0       0       0       0       0       0       0       0       0
       0       0       0       0       0       0       0       0       0       0
       0       0       0       0       0       0       0       0       0       0
       0       0       0       0       0       0       0       0       0       0
       0       0       0       0       0       0       0       0       0       0
       0       0       0       0       0       0       0       0       0       0
       0       0       0       0       0       0       0       0       0       0
       0       0       0       0       0       0       0       0       0       0
       0       0       0       0       0       0       0       0       0       0
       0       0       0       0       0       0       0       0       0       0
       0       0       0       0       0       0       0       0       0       0
       0       0       0       0       0       0       0       0       0       0
       0       0       0       0       0       0       0       0       0       0
       0       0       0       0       0       0       0       0       0       0
       0       0       0       0       0       0       0       0       0       0
       0       0       0       0       0       0       0       0       0       0
       0       0       0       0       0       0       0       0       0       0
       0       0       0       0       0       0       0       0       0       0
       0       0       0       0       0       0       0       0       0       0
       0       0       0       0       0       0       0       0       0       0
       0       0       0       0       0       0       0       0       0       0
       0       0       0       0       0       0       0       0       0       0
       0       0       0       0       0       0       0       0       0       0
       0       0       0       0       0       0       0       0       0       0
       0       0       0       0       0       0       0       0       0       0
       0       0       0       0       0       0       0       0       0       0
       0       0       0       0       0       0       0       0       0       0
       0       0       0       0       0       0       0       0       0       0
       0       0       0       0       0       0       0       0       0       0
       0       0       0       0       0       0       0       0       0       0
       0       0       0       0       0       0       0       0       0       0
       0       0       0       0       0       0       0       0       0       0
       0       0       0       0       0       0       0       0       0       0
       0       0       0       0       0       0       0       0       0       0
       0       0       0       0       0       0       0       0       0       0
       0       0       0       0       0       0       0       0       0       0
       0       0       0       0       0       0       0       0       0       0
       0       0       0       0       0       0       0       0       0       0
       0       0       0       0       0       0       0       0       0       0
       0       0       0       0       0       0       0       0       0       0
       0       0       0       0       0       0       0       0       0       0
       0       0       0       0       0       0       0       0       0       0
       0       0       0       0       0       0       0       0       0       0
       0       0       0       0       0       0       0       0       0       0
       0       0       0       0       0       0       0       0       0       0
       0       0       0       0       0       0       0       0       0       0
       0       0       0       0       0       0       0       0       0       0
       0       0       0       0       0       0       0       0       0       0
       0       0       0       0       0       0       0       0       0       0
       0       0       0       0       0       0       0       0       0       0
       0       0       0       0       0       0       0       0       0       0
       0       0       0       0       0       0       0       0       0       0
       0       0       0       0       0       0       0       0       0       0
       0       0       0       0       0       0       0       0       0       0
       0       0       0       0       0       0       0       0       0       0
       0       0       0       0       0       0       0       0       0       0
       0       0       0       0       0       0       0       0       0       0
       0       0       0       0       0       0       0       0       0       0
       0       0       0       0       0       0       0       0       0       0
       0       0       0       0       0       0       0       0       0       0
       0       0       0       0       0       0       0       0       0       0
       0       0       0       0       0       0       0       0       0       0
       0       0       0       0       0       0       0       0       0       0
       0       0       0       0       0       0       0       0       0       0
       0       0       0       0       0       0       0       0       0       0
       0       0       0       0       0       0       0       0       0       0
       0       0       0       0       0       0       0       0       0       0
       0       0       0       0       0       0       0       0       0       0
       0       0       0       0       0       0       0       0       0       0
       0       0       0       0       0       0       0       0       0       0
       0       0       0       0       0       0       0       0       0       0
       0       0       0       0       0       0       0       0       0       0
       0       0       0       0       0       0       0       0       0       0
       0       0       0       0       0       0       0       0       0       0
       0       0       0       0       0       0       0       0       0       0
       0       0       0       0       0       0       0       0       0       0
       0       0       0       0       0       0       0       0       0       0
       0       0       0       0       0       0       0       0       0       0
       0       0       0       0       0       0       0       0       0       0
       0       0       0       0       0       0       0       0       0       0
       0       0       0       0       0       0       0       0       0       0
       0       0       0       0       0       0       0       0       0       0
       0       0       0       0       0       0       0       0       0       0
       0       0       0       0       0       0       0       0       0       0
       0       0       0       0       0       0       0       0       0       0
       0       0       0       0       0       0       0       0       0       0
       0       0       0       0       0       0       0       0       0       0
       0       0       0       0       0       0       0       0       0       0
       0       0       0       0       0       0       0       0       0       0
       0       0       0       0       0       0       0       0       0       0
       0       0       0       0       0       0       0       0       0       0
       0       0       0       0       0       0       0       0       0       0
       0       0       0       0       0       0       0       0       0       0
       0       0       0       0       0       0       0       0       0       0
       0       0       0       0       0       0       0       0       0       0
       0       0       0       0       0       0       0       0       0       0
       0       0       0       0       0       0       0       0       0       0
       0       0       0       0       0       0       0       0       0       0
       0       0       0       0       0       0       0       0       0       0
       0       0       0       0       0       0       0       0       0       0
       0       0       0       0       0       0       0       0       0       0
       0       0       0       0       0       0       0       0       0       0
       0       0       0       0       0       0       0       0       0       0
       0       0       0       0       0       0       0       0       0       0
       0       0       0       0       0       0       0       0       0       0
       0       0       0       0       0       0       0       0       0       0
       0       0       0       0       0       0       0       0       0       0
       0       0       0       0       0       0       0       0       0       0
       0       0       0       0       0       0       0       0       0       0
       0       0       0       0       0       0       0       0       0       0
       0       0       0       0       0       0       0       0       0       0
       0       0       0       0       0       0       0       0       0       0
       0       0       0       0       0       0       0       0       0       0
       0       0       0       0       0       0       0       0       0       0
       0       0       0       0       0       0       0       0       0       0
       0       0       0       0       0       0       0       0       0       0
       0       0       0       0       0       0       0       0       0       0
       0       0       0       0       0       0       0       0       0       0
       0       0       0       0       0       0       0       0       0       0
       0       0       0       0       0       0       0       0       0       0
       0       0       0       0       0       0       0       0       0       0
       0       0       0       0       0       0       0       0       0       0
       0       0       0       0       0       0       0       0       0       0
       0       0       0       0       0       0       0       0       0       0
       0       0       0       0       0       0       0       0       0       0
       0       0       0       0       0       0       0       0       0       0
       0       0       0       0       0       0       0       0       0       0
       0       0       0       0       0       0       0       0       0       0
       0       0       0       0       0       0       0       0       0       0
       0       0       0       0       0       0       0       0       0       0
       0       0       0       0       0       0       0       0       0       0
       0       0       0       0       0       0       0       0       0       0
       0       0       0       0       0       0       0       0       0       0
       0       0       0       0       0       0       0       0       0       0
       0       0       0       0       0       0       0       0       0       0
       0       0       0       0       0       0       0       0       0       0
       0       0       0       0       0       0       0       0       0       0
       0       0       0       0       0       0       0       0       0       0
       0       0       0       0       0       0       0       0       0       0
       0       0       0       0       0       0       0       0       0       0
       0       0       0       0       0       0       0       0       0       0
       0       0       0       0       0       0       0       0       0       0
       0       0       0       0       0       0       0       0       0       0
       0       0       0       0       0       0       0       0       0       0
       0       0       0       0       0       0       0       0       0       0
       0       0       0       0       0       0       0       0       0       0
       0       0       0       0       0       0       0       0       0       0
       0       0       0       0       0       0       0       0       0       0
       0       0       0       0       0       0       0       0       0       0
       0       0       0       0       0       0       0       0       0       0
       0       0       0       0       0       0       0       0       0       0
       0       0       0       0       0       0       0       0       0       0
       0       0       0       0       0       0       0       0       0       0
       0       0       0       0       0       0       0       0       0       0
       0       0       0       0       0       0       0       0       0       0
       0       0       0       0       0       0       0       0       0       0
       0       0       0       0       0       0       0       0       0       0
       0       0       0       0       0       0       0       0       0       0
       0       0       0       0       0       0       0       0       0       0
       0       0       0       0       0       0       0       0       0       0
       0       0       0       0       0       0       0       0       0       0
       0       0       0       0       0       0       0       0       0       0
       0       0       0       0       0       0       0       0       0       0
       0       0       0       0       0       0       0       0       0       0
       0       0       0       0       0       0       0       0       0       0
       0       0       0       0       0       0       0       0       0       0
       0       0       0       0       0       0       0       0       0       0
       0       0       0       0       0       0       0       0       0       0
       0       0       0       0       0       0       0       0       0       0
       0       0       0       0       0       0       0       0       0       0
       0       0       0       0       0       0       0       0       0       0
       0       0       0       0       0       0       0       0       0       0
       0       0       0       0       0       0       0       0       0       0
       0       0       0       0       0       0       0       0       0       0
       0       0       0       0       0       0       0       0       0       0
       0       0       0       0       0       0       0       0       0       0
       0       0       0       0       0       0       0       0       0       0
       0       0       0       0       0       0       0       0       0       0
       0       0       0       0       0       0       0       0       0       0
       0       0       0       0       0       0       0       0       0       0
       0       0       0       0       0       0       0       0       0       0
       0       0       0       0       0       0       0       0       0       0
       0       0       0       0       0       0       0       0       0       0
       0       0       0       0       0       0       0       0       0       0
       0       0       0       0       0       0       0       0       0       0
       0       0       0       0       0       0       0       0       0       0
       0       0       0       0       0       0       0       0       0       0
       0       0       0       0       0       0       0       0       0       0
       0       0       0       0       0       0       0       0       0       0
       0       0       0       0       0       0       0       0       0       0
       0       0       0       0       0       0       0       0       0       0
       0       0       0       0       0       0       0       0       0       0
       0       0       0       0       0       0       0       0       0       0
       0       0       0       0       0       0       0       0       0       0
       0       0       0       0       0       0       0       0       0       0
       0       0       0       0       0       0       0       0       0       0
       0       0       0       0       0       0       0       0       0       0
       0       0       0       0       0       0       0       0       0       0
       0       0       0       0       0       0       0       0       0       0
       0       0       0       0       0       0       0       0       0       0
       0       0       0       0       0       0       0       0       0       0
       0       0       0       0       0       0       0       0       0       0
       0       0       0       0       0       0       0       0       0       0
       0       0       0       0       0       0       0       0       0       0
       0       0       0       0       0       0       0       0       0       0
       0       0       0       0       0       0       0       0       0       0
       0       0       0       0       0       0       0       0       0       0
       0       0       0       0       0       0       0       0       0       0
       0       0       0       0       0       0       0       0       0       0
       0       0       0       0       0       0       0       0       0       0
       0       0       0       0       0       0       0       0       0       0
       0       0       0       0       0       0       0       0       0       0
       0       0       0       0       0       0       0       0       0       0
       0       0       0       0       0       0       0       0       0       0
       0       0       0       0       0       0       0       0       0       0
       0       0       0       0       0       0       0       0       0       0
       0       0       0       0       0       0       0       0       0       0
       0       0       0       0       0       0       0       0       0       0
       0       0       0       0       0       0       0       0       0       0
       0       0       0       0       0       0       0       0       0       0
       0       0       0       0       0       0       0       0       0       0
       0       0       0       0       0       0       0       0       0       0
       0       0       0       0       0       0       0       0       0       0
       0       0       0       0       0       0       0       0       0       0
       0       0       0       0       0       0       0       0       0       0
       0       0       0       0       0       0       0       0       0       0
       0       0       0       0       0       0       0       0       0       0
       0       0       0       0       0       0       0       0       0       0
       0       0       0       0       0       0       0       0       0       0
       0       0       0       0       0       0       0       0       0       0
       0       0       0       0       0       0       0       0       0       0
       0       0       0       0       0       0       0       0       0       0
       0       0       0       0       0       0       0       0       0       0
       0       0       0       0       0       0       0       0       0       0
       0       0       0       0       0       0       0       0       0       0
       0       0       0       0       0       0       0       0       0       0
       0       0       0       0       0       0       0       0       0       0
       0       0       0       0       0       0       0       0       0       0
       0       0       0       0       0       0       0       0       0       0
       0       0       0       0       0       0       0       0       0       0
       0       0       0       0       0       0       0       0       0       0
       0       0       0       0       0       0       0       0       0       0
       0       0       0       0       0       0       0       0       0       0
       0       0       0       0       0       0       0       0       0       0
       0       0       0       0       0       0       0       0       0       0
       0       0       0       0       0       0       0       0       0       0
       0       0       0       0       0       0       0       0       0       0
       0       0       0       0       0       0       0       0       0       0
       0       0       0       0       0       0       0       0       0       0
       0       0       0       0       0       0       0       0       0       0
       0       0       0       0       0       0       0       0       0       0
       0       0       0       0       0       0       0       0       0       0
       0       0       0       0       0       0       0       0       0       0
       0       0       0       0       0       0       0       0       0       0
       0       0       0       0       0       0       0       0       0       0
       0       0       0       0       0       0       0       0       0       0
       0       0       0       0       0       0       0       0       0       0
       0       0       0       0       0       0       0       0       0       0
       0       0       0       0       0       0       0       0       0       0
       0       0       0       0       0       0       0       0       0       0
       0       0       0       0       0       0       0       0       0       0
       0       0       0       0       0       0       0       0       0       0
       0       0       0       0       0       0       0       0       0       0
       0       0       0       0       0       0       0       0       0       0
       0       0       0       0       0       0       0       0       0       0
       0       0       0       0       0       0       0       0       0       0
       0       0       0       0       0       0       0       0       0       0
       0       0       0       0       0       0       0       0       0       0
       0       0       0       0       0       0       0       0       0       0
       0       0       0       0       0       0       0       0       0       0
       0       0       0       0       0       0       0       0       0       0
       0       0       0       0       0       0       0       0       0       0
       0       0       0       0       0       0       0       0       0       0
       0       0       0       0       0       0       0       0       0       0
       0       0       0       0       0       0       0       0       0       0
       0       0       0       0       0       0       0       0       0       0
       0       0       0       0       0       0       0       0       0       0
       0       0       0       0       0       0       0       0       0       0
       0       0       0       0       0       0       0       0       0       0
       0       0       0       0       0       0       0       0       0       0
       0       0       0       0       0       0       0       0       0       0
       0       0       0       0       0       0       0       0       0       0
       0       0       0       0       0       0       0       0       0       0
       0       0       0       0       0       0       0       0       0       0
       0       0       0       0       0       0       0       0       0       0
       0       0       0       0       0       0       0       0       0       0
       0       0       0       0       0       0       0       0       0       0
       0       0       0       0       0       0       0       0       0       0
       0       0       0       0       0       0       0       0       0       0
       0       0       0       0       0       0       0       0       0       0
       0       0       0       0       0       0       0       0       0       0
       0       0       0       0       0       0       0       0       0       0
       0       0       0       0       0       0       0       0       0       0
       0       0       0       0       0       0       0       0       0       0
       0       0       0       0       0       0       0       0       0       0
       0       0       0       0       0       0       0       0       0       0
       0       0       0       0       0       0       0       0       0       0
       0       0       0       0       0       0       0       0       0       0
       0       0       0       0       0       0       0       0       0       0
       0       0       0       0       0       0       0       0       0       0
       0       0       0       0       0       0       0       0       0       0
       0       0       0       0       0       0       0       0       0       0
       0       0       0       0       0       0       0       0       0       0
       0       0       0       0       0       0       0       0       0       0
       0       0       0       0       0       0       0       0       0       0
       0       0       0       0       0       0       0       0       0       0
       0       0       0       0       0       0       0       0       0       0
       0       0       0       0       0       0       0       0       0       0
       0       0       0       0       0       0       0       0       0       0
       0       0       0       0       0       0       0       0       0       0
       0       0       0       0       0       0       0       0       0       0
       0       0       0       0       0       0       0       0       0       0
       0       0       0       0       0       0       0       0       0       0
       0       0       0       0       0       0       0       0       0       0
       0       0       0       0       0       0       0       0       0       0
       0       0       0       0       0       0       0       0       0       0
       0       0       0       0       0       0       0       0       0       0
       0       0       0       0       0       0       0       0       0       0
       0       0       0       0       0       0       0       0       0       0
       0       0       0       0       0       0       0       0       0       0
       0       0       0       0       0       0       0       0       0       0
       0       0       0       0       0       0       0       0       0       0
       0       0       0       0       0       0       0       0       0       0
       0       0       0       0       0       0       0       0       0       0
       0       0       0       0       0       0       0       0       0       0
       0       0       0       0       0       0       0       0       0       0
       0       0       0       0       0       0       0       0       0       0
       0       0       0       0       0       0       0       0       0       0
       0       0       0       0       0       0       0       0       0       0
       0       0       0       0       0       0       0       0       0       0
       0       0       0       0       0       0       0       0       0       0
       0       0       0       0       0       0       0       0       0       0
       0       0       0       0       0       0       0       0       0       0
       0       0       0       0       0       0       0       0       0       0
       0       0       0       0       0       0       0       0       0       0
       0       0       0       0       0       0       0       0       0       0
       0       0       0       0       0       0       0       0       0       0
       0       0       0       0       0       0       0       0       0       0
       0       0       0       0       0       0       0       0       0       0
       0       0       0       0       0       0       0       0       0       0
       0       0       0       0       0       0       0       0       0       0
       0       0       0       0       0       0       0       0       0       0
       0       0       0       0       0       0       0       0       0       0
       0       0       0       0       0       0       0       0       0       0
       0       0       0       0       0       0       0       0       0       0
       0       0       0       0       0       0       0       0       0       0
       0       0       0       0       0       0       0       0       0       0
       0       0       0       0       0       0       0       0       0       0
       0       0       0       0       0       0       0       0       0       0
       0       0       0       0       0       0       0       0       0       0
       0       0       0       0       0       0       0       0       0       0
       0       0       0       0       0       0       0       0       0       0
       0       0       0       0       0       0       0       0       0       0
       0       0       0       0       0       0       0       0       0       0
       0       0       0       0       0       0       0       0       0       0
       0       0       0       0       0       0       0       0       0       0
       0       0       0       0       0       0       0       0       0       0
       0       0       0       0       0       0       0       0       0       0
       0       0       0       0       0       0       0       0       0       0
       0       0       0       0       0       0       0       0       0       0
       0       0       0       0       0       0       0       0       0       0
       0       0       0       0       0       0       0       0       0       0
       0       0       0       0       0       0       0       0       0       0
       0       0       0       0       0       0       0       0       0       0
       0       0       0       0       0       0       0       0       0       0
       0       0       0       0       0       0       0       0       0       0
       0       0       0       0       0       0       0       0       0       0
       0       0       0       0       0       0       0       0       0       0
       0       0       0       0       0       0       0       0       0       0
       0       0       0       0       0       0       0       0       0       0
       0       0       0       0       0       0       0       0       0       0
       0       0       0       0       0       0       0       0       0       0
       0       0       0       0       0       0       0       0       0       0
       0       0       0       0       0       0       0       0       0       0
       0       0       0       0       0       0       0       0       0       0
       0       0       0       0       0       0       0       0       0       0
       0       0       0       0       0       0       0       0       0       0
       0       0       0       0       0       0       0       0       0       0
       0       0       0       0       0       0       0       0       0       0
       0       0       0       0       0       0       0       0       0       0
       0       0       0       0       0       0       0       0       0       0
       0       0       0       0       0       0       0       0       0       0
       0       0       0       0       0       0       0       0       0       0
       0       0       0       0       0       0       0       0       0       0
       0       0       0       0       0       0       0       0       0       0
       0       0       0       0       0       0       0       0       0       0
       0       0       0       0       0       0       0       0       0       0
       0       0       0       0       0       0       0       0       0       0
       0       0       0       0       0       0       0       0       0       0
       0       0       0       0       0       0       0       0       0       0
       0       0       0       0       0       0       0       0       0       0
       0       0       0       0       0       0       0       0       0       0
       0       0       0       0       0       0       0       0       0       0
       0       0       0       0       0       0       0       0       0       0
       0       0       0       0       0       0       0       0       0       0
       0       0       0       0       0       0       0       0       0       0
       0       0       0       0       0       0       0       0       0       0
       0       0       0       0       0       0       0       0       0       0
       0       0       0       0       0       0       0       0       0       0
       0       0       0       0       0       0       0       0       0       0
       0       0       0       0       0       0       0       0       0       0
       0       0       0       0       0       0       0       0       0       0
       0       0       0       0       0       0       0       0       0       0
       0       0       0       0       0       0       0       0       0       0
       0       0       0       0       0       0       0       0       0       0
       0       0       0       0       0       0       0       0       0       0
       0       0       0       0       0       0       0       0       0       0
       0       0       0       0       0       0       0       0       0       0
       0       0       0       0       0       0       0       0       0       0
       0       0       0       0       0       0       0       0       0       0
       0       0       0       0       0       0       0       0       0       0
       0       0       0       0       0       0       0       0       0       0
       0       0       0       0       0       0       0       0       0       0
       0       0       0       0       0       0       0       0       0       0
       0       0       0       0       0       0       0       0       0       0
       0       0       0       0       0       0       0       0       0       0
       0       0       0       0       0       0       0       0       0       0
       0       0       0       0       0       0       0       0       0       0
       0       0       0       0       0       0       0       0       0       0
       0       0       0       0       0       0       0       0       0       0
       0       0       0       0       0       0       0       0       0       0
       0       0       0       0       0       0       0       0       0       0
       0       0       0       0       0       0       0       0       0       0
       0       0       0       0       0       0       0       0       0       0
       0       0       0       0       0       0       0       0       0       0
       0       0       0       0       0       0       0       0       0       0
       0       0       0       0       0       0       0       0       0       0
       0       0       0       0       0       0       0       0       0       0
       0       0       0       0       0       0       0       0       0       0
       0       0       0       0       0       0       0       0       0       0
       0       0       0       0       0       0       0       0       0       0
       0       0       0       0       0       0       0       0       0       0
       0       0       0       0       0       0       0       0       0       0
       0       0       0       0       0       0       0       0       0       0
       0       0       0       0       0       0       0       0       0       0
       0       0       0       0       0       0       0       0       0       0
       0       0       0       0       0       0       0       0       0       0
       0       0       0       0       0       0       0       0       0       0
       0       0       0       0       0       0       0       0       0       0
       0       0       0       0       0       0       0       0       0       0
       0       0       0       0       0       0       0       0       0       0
       0       0       0       0       0       0       0       0       0       0
       0       0       0       0       0       0       0       0       0       0
       0       0       0       0       0       0       0       0       0       0
       0       0       0       0       0       0       0       0       0       0
       0       0       0       0       0       0       0       0       0       0
       0       0       0       0       0       0       0       0       0       0
       0       0       0       0       0       0       0       0       0       0
       0       0       0       0       0       0       0       0       0       0
       0       0       0       0       0       0       0       0       0       0
       0       0       0       0       0       0       0       0       0       0
       0       0       0       0       0       0       0       0       0       0
       0       0       0       0       0       0       0       0       0       0
       0       0       0       0       0       0       0       0       0       0
       0       0       0       0       0       0       0       0       0       0
       0       0       0       0       0       0       0       0       0       0
       0       0       0       0       0       0       0       0       0       0
       0       0       0       0       0       0       0       0       0       0
       0       0       0       0       0       0       0       0       0       0
       0       0       0       0       0       0       0       0       0       0
       0       0       0       0       0       0       0       0       0       0
       0       0       0       0       0       0       0       0       0       0
       0       0       0       0       0       0       0       0       0       0
       0       0       0       0       0       0       0       0       0       0
       0       0       0       0       0       0       0       0       0       0
       0       0       0       0       0       0       0       0       0       0
       0       0       0       0       0       0       0       0       0       0
       0       0       0       0       0       0       0       0       0       0
       0       0       0       0       0       0       0       0       0       0
       0       0       0       0       0       0       0       0       0       0
       0       0       0       0       0       0       0       0       0       0
       0       0       0       0       0       0       0       0       0       0
       0       0       0       0       0       0       0       0       0       0
       0       0       0       0       0       0       0       0       0       0
       0       0       0       0       0       0       0       0       0       0
       0       0       0       0       0       0       0       0       0       0
       0       0       0       0       0       0       0       0       0       0
       0       0       0       0       0       0       0       0       0       0
       0       0       0       0       0       0       0       0       0       0
       0       0       0       0       0       0       0       0       0       0
       0       0       0       0       0       0       0       0       0       0
       0       0       0       0       0       0       0       0       0       0
       0       0       0       0       0       0       0       0       0       0
       0       0       0       0       0       0       0       0       0       0
       0       0       0       0       0       0       0       0       0       0
       0       0       0       0       0       0       0       0       0       0
       0       0       0       0       0       0       0       0       0       0
       0       0       0       0       0       0       0       0       0       0
       0       0       0       0       0       0       0       0       0       0
       0       0       0       0       0       0       0       0       0       0
       0       0       0       0       0       0       0       0       0       0
       0       0       0       0       0       0       0       0       0       0
       0       0       0       0       0       0       0       0       0       0
       0       0       0       0       0       0       0       0       0       0
       0       0       0       0       0       0       0       0       0       0
       0       0       0       0       0       0       0       0       0       0
       0       0       0       0       0       0       0       0       0       0
       0       0       0       0       0       0       0       0       0       0
       0       0       0       0       0       0       0       0       0       0
       0       0       0       0       0       0       0       0       0       0
       0       0       0       0       0       0       0       0       0       0
       0       0       0       0       0       0       0       0       0       0
       0       0       0       0       0       0       0       0       0       0
       0       0       0       0       0       0       0       0       0       0
       0       0       0       0       0       0       0       0       0       0
       0       0       0       0       0       0       0       0       0       0
       0       0       0       0       0       0       0       0       0       0
       0       0       0       0       0       0       0       0       0       0
       0       0       0       0       0       0       0       0       0       0
       0       0       0       0       0       0       0       0       0       0
       0       0       0       0       0       0       0       0       0       0
       0       0       0       0       0       0       0       0       0       0
       0       0       0       0       0       0       0       0       0       0
       0       0       0       0       0       0       0       0       0       0
       0       0       0       0       0       0       0       0       0       0
       0       0       0       0       0       0       0       0       0       0
       0       0       0       0       0       0       0       0       0       0
       0       0       0       0       0       0       0       0       0       0
       0       0       0       0       0       0       0       0       0       0
       0       0       0       0       0       0       0       0       0       0
       0       0       0       0       0       0       0       0       0       0
       0       0       0       0       0       0       0       0       0       0
       0       0       0       0       0       0       0       0       0       0
       0       0       0       0       0       0       0       0       0       0
       0       0       0       0       0       0       0       0       0       0
       0       0       0       0       0       0       0       0       0       0
       0       0       0       0       0       0       0       0       0       0
       0       0       0       0       0       0       0       0       0       0
       0       0       0       0       0       0       0       0       0       0
       0       0       0       0       0       0       0       0       0       0
       0       0       0       0       0       0       0       0       0       0
       0       0       0       0       0       0       0       0       0       0
       0       0       0       0       0       0       0       0       0       0
       0       0       0       0       0       0       0       0       0       0
       0       0       0       0       0       0       0       0       0       0
       0       0       0       0       0       0       0       0       0       0
       0       0       0       0       0       0       0       0       0       0
       0       0       0       0       0       0       0       0       0       0
       0       0       0       0       0       0       0       0       0       0
       0       0       0       0       0       0       0       0       0       0
       0       0       0       0       0       0       0       0       0       0
       0       0       0       0       0       0       0       0       0       0
       0       0       0       0       0       0       0       0       0       0
       0       0       0       0       0       0       0       0       0       0
       0       0       0       0       0       0       0       0       0       0
       0       0       0       0       0       0       0       0       0       0
       0       0       0       0       0       0       0       0       0       0
       0       0       0       0       0       0       0       0       0       0
       0       0       0       0       0       0       0       0       0       0
       0       0       0       0       0       0       0       0       0       0
       0       0       0       0       0       0       0       0       0       0
       0       0       0       0       0       0       0       0       0       0
       0       0       0       0       0       0       0       0       0       0
       0       0       0       0       0       0       0       0       0       0
       0       0       0       0       0       0       0       0       0       0
       0       0       0       0       0       0       0       0       0       0
       0       0       0       0       0       0       0       0       0       0
       0       0       0       0       0       0       0       0       0       0
       0       0       0       0       0       0       0       0       0       0
       0       0       0       0       0       0       0       0       0       0
       0       0       0       0       0       0       0       0       0       0
       0       0       0       0       0       0       0       0       0       0
       0       0       0       0       0       0       0       0       0       0
       0       0       0       0       0       0       0       0       0       0
       0       0       0       0       0       0       0       0       0       0
       0       0       0       0       0       0       0       0       0       0
       0       0       0       0       0       0       0       0       0       0
       0       0       0       0       0       0       0       0       0       0
       0       0       0       0       0       0       0       0       0       0
       0       0       0       0       0       0       0       0       0       0
       0       0       0       0       0       0       0       0       0       0
       0       0       0       0       0       0       0       0       0       0
       0       0       0       0       0       0       0       0       0       0
       0       0       0       0       0       0       0       0       0       0
       0       0       0       0       0       0       0       0       0       0
       0       0       0       0       0       0       0       0       0       0
       0       0       0       0       0       0       0       0       0       0
       0       0       0       0       0       0       0       0       0       0
       0       0       0       0       0       0       0       0       0       0
       0       0       0       0       0       0       0       0       0       0
       0       0       0       0       0       0       0       0       0       0
       0       0       0       0       0       0       0       0       0       0
       0       0       0       0       0       0       0       0       0       0
       0       0       0       0       0       0       0       0       0       0
       0       0       0       0       0       0       0       0       0       0
       0       0       0       0       0       0       0       0       0       0
       0       0       0       0       0       0       0       0       0       0
       0       0       0       0       0       0       0       0       0       0
       0       0       0       0       0       0       0       0       0       0
       0       0       0       0       0       0       0       0       0       0
       0       0       0       0       0       0       0       0       0       0
       0       0       0       0       0       0       0       0       0       0
       0       0       0       0       0       0       0       0       0       0
       0       0       0       0       0       0       0       0       0       0
       0       0       0       0       0       0       0       0       0       0
       0       0       0       0       0       0       0       0       0       0
       0       0       0       0       0       0       0       0       0       0
       0       0       0       0       0       0       0       0       0       0
       0       0       0       0       0       0       0       0       0       0
       0       0       0       0       0       0       0       0       0       0
       0       0       0       0       0       0       0       0       0       0
       0       0       0       0       0       0       0       0       0       0
       0       0       0       0       0       0       0       0       0       0
       0       0       0       0       0       0       0       0       0       0
       0       0       0       0       0       0       0       0       0       0
       0       0       0       0       0       0       0       0       0       0
       0       0       0       0       0       0       0       0       0       0
       0       0       0       0       0       0       0       0       0       0
       0       0       0       0       0       0       0       0       0       0
       0       0       0       0       0       0       0       0       0       0
       0       0       0       0       0       0       0       0       0       0
       0       0       0       0       0       0       0       0       0       0
       0       0       0       0       0       0       0       0       0       0
       0       0       0       0       0       0       0       0       0       0
       0       0       0       0       0       0       0       0       0       0
       0       0       0       0       0       0       0       0       0       0
       0       0       0       0       0       0       0       0       0       0
       0       0       0       0       0       0       0       0       0       0
       0       0       0       0       0       0       0       0       0       0
       0       0       0       0       0       0       0       0       0       0
       0       0       0       0       0       0       0       0       0       0
       0       0       0       0       0       0       0       0       0       0
       0       0       0       0       0       0       0       0       0       0
       0       0       0       0       0       0       0       0       0       0
       0       0       0       0       0       0       0       0       0       0
       0       0       0       0       0       0       0       0       0       0
       0       0       0       0       0       0       0       0       0       0
       0       0       0       0       0       0       0       0       0       0
       0       0       0       0       0       0       0       0       0       0
       0       0       0       0       0       0       0       0       0       0
       0       0       0       0       0       0       0       0       0       0
       0       0       0       0       0       0       0       0       0       0
       0       0       0       0       0       0       0       0       0       0
       0       0       0       0       0       0       0       0       0       0
       0       0       0       0       0       0       0       0       0       0
       0       0       0       0       0       0       0       0       0       0
       0       0       0       0       0       0       0       0       0       0
       0       0       0       0       0       0       0       0       0       0
       0       0       0       0       0       0       0       0       0       0
       0       0       0       0       0       0       0       0       0       0
       0       0       0       0       0       0       0       0       0       0
       0       0       0       0       0       0       0       0       0       0
       0       0       0       0       0       0       0       0       0       0
       0       0       0       0       0       0       0       0       0       0
       0       0       0       0       0       0       0       0       0       0
       0       0       0       0       0       0       0       0       0       0
       0       0       0       0       0       0       0       0       0       0
       0       0       0       0       0       0       0       0       0       0
       0       0       0       0       0       0       0       0       0       0
       0       0       0       0       0       0       0       0       0       0
       0       0       0       0       0       0       0       0       0       0
       0       0       0       0       0       0       0       0       0       0
       0       0       0       0       0       0       0       0       0       0
       0       0       0       0       0       0       0       0       0       0
       0       0       0       0       0       0       0       0       0       0
       0       0       0       0       0       0       0       0       0       0
       0       0       0       0       0       0       0       0       0       0
       0       0       0       0       0       0       0       0       0       0
       0       0       0       0       0       0       0       0       0       0
       0       0       0       0       0       0       0       0       0       0
       0       0       0       0       0       0       0       0       0       0
       0       0       0       0       0       0       0       0       0       0
       0       0       0       0       0       0       0       0       0       0
       0       0       0       0       0       0       0       0       0       0
       0       0       0       0       0       0       0       0       0       0
       0       0       0       0       0       0       0       0       0       0
       0       0       0       0       0       0       0       0       0       0
       0       0       0       0       0       0       0       0       0       0
       0       0       0       0       0       0       0       0       0       0
       0       0       0       0       0       0       0       0       0       0
       0       0       0       0       0       0       0       0       0       0
       0       0       0       0       0       0       0       0       0       0
       0       0       0       0       0       0       0       0       0       0
       0       0       0       0       0       0       0       0       0       0
       0       0       0       0       0       0       0       0       0       0
       0       0       0       0       0       0       0       0       0       0
       0       0       0       0       0       0       0       0       0       0
       0       0       0       0       0       0       0       0       0       0
       0       0       0       0       0       0       0       0       0       0
       0       0       0       0       0       0       0       0       0       0
       0       0       0       0       0       0       0       0       0       0
       0       0       0       0       0       0       0       0       0       0
       0       0       0       0       0       0       0       0       0       0
       0       0       0       0       0       0       0       0       0       0
       0       0       0       0       0       0       0       0       0       0
       0       0       0       0       0       0       0       0       0       0
       0       0       0       0       0       0       0       0       0       0
       0       0       0       0       0       0       0       0       0       0
       0       0       0       0       0       0       0       0       0       0
       0       0       0       0       0       0       0       0       0       0
       0       0       0       0       0       0       0       0       0       0
       0       0       0       0       0       0       0       0       0       0
       0       0       0       0       0       0       0       0       0       0
       0       0       0       0       0       0       0       0       0       0
       0       0       0       0       0       0       0       0       0       0
       0       0       0       0       0       0       0       0       0       0
       0       0       0       0       0       0       0       0       0       0
       0       0       0       0       0       0       0       0       0       0
       0       0       0       0       0       0       0       0       0       0
       0       0       0       0       0       0       0       0       0       0
       0       0       0       0       0       0       0       0       0       0
       0       0       0       0       0       0       0       0       0       0
       0       0       0       0       0       0       0       0       0       0
       0       0       0       0       0       0       0       0       0       0
       0       0       0       0       0       0       0       0       0       0
       0       0       0       0       0       0       0       0       0       0
       0       0       0       0       0       0       0       0       0       0
       0       0       0       0       0       0       0       0       0       0
       0       0       0       0       0       0       0       0       0       0
       0       0       0       0       0       0       0       0       0       0
       0       0       0       0       0       0       0       0       0       0
       0       0       0       0       0       0       0       0       0       0
       0       0       0       0       0       0       0       0       0       0
       0       0       0       0       0       0       0       0       0       0
       0       0       0       0       0       0       0       0       0       0
       0       0       0       0       0       0       0       0       0       0
       0       0       0       0       0       0       0       0       0       0
       0       0       0       0       0       0       0       0       0       0
       0       0       0       0       0       0       0       0       0       0
       0       0       0       0       0       0       0       0       0       0
       0       0       0       0       0       0       0       0       0       0
       0       0       0       0       0       0       0       0       0       0
       0       0       0       0       0       0       0       0       0       0
       0       0       0       0       0       0       0       0       0       0
       0       0       0       0       0       0       0       0       0       0
       0       0       0       0       0       0       0       0       0       0
       0       0       0       0       0       0       0       0       0       0
       0       0       0       0       0       0       0       0       0       0
       0       0       0       0       0       0       0       0       0       0
       0       0       0       0       0       0       0       0       0       0
       0       0       0       0       0       0       0       0       0       0
       0       0       0       0       0       0       0       0       0       0
       0       0       0       0       0       0       0       0       0       0
       0       0       0       0       0       0       0       0       0       0
       0       0       0       0       0       0       0       0       0       0
       0       0       0       0       0       0       0       0       0       0
       0       0       0       0       0       0       0       0       0       0
       0       0       0       0       0       0       0       0       0       0
       0       0       0       0       0       0       0       0       0       0
       0       0       0       0       0       0       0       0       0       0
       0       0       0       0       0       0       0       0       0       0
       0       0       0       0       0       0       0       0       0       0
       0       0       0       0       0       0       0       0       0       0
       0       0       0       0       0       0       0       0       0       0
       0       0       0       0       0       0       0       0       0       0
       0       0       0       0       0       0       0       0       0       0
       0       0       0       0       0       0       0       0       0       0
       0       0       0       0       0       0       0       0       0       0
       0       0       0       0       0       0       0       0       0       0
       0       0       0       0       0       0       0       0       0       0
       0       0       0       0       0       0       0       0       0       0
       0       0       0       0       0       0       0       0       0       0
       0       0       0       0       0       0       0       0       0       0
       0       0       0       0       0       0       0       0       0       0
       0       0       0       0       0       0       0       0       0       0
       0       0       0       0       0       0       0       0       0       0
       0       0       0       0       0       0       0       0       0       0
       0       0       0       0       0       0       0       0       0       0
       0       0       0       0       0       0       0       0       0       0
       0       0       0       0       0       0       0       0       0       0
       0       0       0       0       0       0       0       0       0       0
       0       0       0       0       0       0       0       0       0       0
       0       0       0       0       0       0       0       0       0       0
       0       0       0       0       0       0       0       0       0       0
       0       0       0       0       0       0       0       0       0       0
       0       0       0       0       0       0       0       0       0       0
       0       0       0       0       0       0       0       0       0       0
       0       0       0       0       0       0       0       0       0       0
       0       0       0       0       0       0       0       0       0       0
       0       0       0       0       0       0       0       0       0       0
       0       0       0       0       0       0       0       0       0       0
       0       0       0       0       0       0       0       0       0       0
       0       0       0       0       0       0       0       0       0       0
       0       0       0       0       0       0       0       0       0       0
       0       0       0       0       0       0       0       0       0       0
       0       0       0       0       0       0       0       0       0       0
       0       0       0       0       0       0       0       0       0       0
       0       0       0       0       0       0       0       0       0       0
       0       0       0       0       0       0       0       0       0       0
       0       0       0       0       0       0       0       0       0       0
       0       0       0       0       0       0       0       0       0       0
       0       0       0       0       0       0       0       0       0       0
       0       0       0       0       0       0       0       0       0       0
       0       0       0       0       0       0       0       0       0       0
       0       0       0       0       0       0       0       0       0       0
       0       0       0       0       0       0       0       0       0       0
       0       0       0       0       0       0       0       0       0       0
       0       0       0       0       0       0       0       0       0       0
       0       0       0       0       0       0       0       0       0       0
       0       0       0       0       0       0       0       0       0       0
       0       0       0       0       0       0       0       0       0       0
       0       0       0       0       0       0       0       0       0       0
       0       0       0       0       0       0       0       0       0       0
       0       0       0       0       0       0       0       0       0       0
       0       0       0       0       0       0       0       0       0       0
       0       0       0       0       0       0       0       0       0       0
       0       0       0       0       0       0       0       0       0       0
       0       0       0       0       0       0       0       0       0       0
       0       0       0       0       0       0       0       0       0       0
       0       0       0       0       0       0       0       0       0       0
       0       0       0       0       0       0       0       0       0       0
       0       0       0       0       0       0       0       0       0       0
       0       0       0       0       0       0       0       0       0       0
       0       0       0       0       0       0       0       0       0       0
       0       0       0       0       0       0       0       0       0       0
       0       0       0       0       0       0       0       0       0       0
       0       0       0       0       0       0       0       0       0       0
       0       0       0       0       0       0       0       0       0       0
       0       0       0       0       0       0       0       0       0       0
       0       0       0       0       0       0       0       0       0       0
       0       0       0       0       0       0       0       0       0       0
       0       0       0       0       0       0       0       0       0       0
       0       0       0       0       0       0       0       0       0       0
       0       0       0       0       0       0       0       0       0       0
       0       0       0       0       0       0       0       0       0       0
       0       0       0       0       0       0       0       0       0       0
       0       0       0       0       0       0       0       0       0       0
       0       0       0       0       0       0       0       0       0       0
       0       0       0       0       0       0       0       0       0       0
       0       0       0       0       0       0       0       0       0       0
       0       0       0       0       0       0       0       0       0       0
       0       0       0       0       0       0       0       0       0       0
       0       0       0       0       0       0       0       0       0       0
       0       0       0       0       0       0       0       0       0       0
       0       0       0       0       0       0       0       0       0       0
       0       0       0       0       0       0       0       0       0       0
       0       0       0       0       0       0       0       0       0       0
       0       0       0       0       0       0       0       0       0       0
       0       0       0       0       0       0       0       0       0       0
       0       0       0       0       0       0       0       0       0       0
       0       0       0       0       0       0       0       0       0       0
       0       0       0       0       0       0       0       0       0       0
       0       0       0       0       0       0       0       0       0       0
       0       0       0       0       0       0       0       0       0       0
       0       0       0       0       0       0       0       0       0       0
       0       0       0       0       0       0       0       0       0       0
       0       0       0       0       0       0       0       0       0       0
       0       0       0       0       0       0       0       0       0       0
       0       0       0       0       0       0       0       0       0       0
       0       0       0       0       0       0       0       0       0       0
       0       0       0       0       0       0       0       0       0       0
       0       0       0       0       0       0       0       0       0       0
       0       0       0       0       0       0       0       0       0       0
       0       0       0       0       0       0       0       0       0       0
       0       0       0       0       0       0       0       0       0       0
       0       0       0       0       0       0       0       0       0       0
       0       0       0       0       0       0       0       0       0       0
       0       0       0       0       0       0       0       0       0       0
       0       0       0       0       0       0       0       0       0       0
       0       0       0       0       0       0       0       0       0       0
       0       0       0       0       0       0       0       0       0       0
       0       0       0       0       0       0       0       0       0       0
       0       0       0       0       0       0       0       0       0       0
       0       0       0       0       0       0       0       0       0       0
       0       0       0       0       0       0       0       0       0       0
       0       0       0       0       0       0       0       0       0       0
       0       0       0       0       0       0       0       0       0       0
       0       0       0       0       0       0       0       0       0       0
       0       0       0       0       0       0       0       0       0       0
       0       0       0       0       0       0       0       0       0       0
       0       0       0       0       0       0       0       0       0       0
       0       0       0       0       0       0       0       0       0       0
       0       0       0       0       0       0       0       0       0       0
       0       0       0       0       0       0       0       0       0       0
       0       0       0       0       0       0       0       0       0       0
       0       0       0       0       0       0       0       0       0       0
       0       0       0       0       0       0       0       0       0       0
       0       0       0       0       0       0       0       0       0       0
       0       0       0       0       0       0       0       0       0       0
       0       0       0       0       0       0       0       0       0       0
       0       0       0       0       0       0       0       0       0       0
       0       0       0       0       0       0       0       0       0       0
       0       0       0       0       0       0       0       0       0       0
       0       0       0       0       0       0       0       0       0       0
       0       0       0       0       0       0       0       0       0       0
       0       0       0       0       0       0       0       0       0       0
       0       0       0       0       0       0       0       0       0       0
       0       0       0       0       0       0       0       0       0       0
       0       0       0       0       0       0       0       0       0       0
       0       0       0       0       0       0       0       0       0       0
       0       0       0       0       0       0       0       0       0       0
       0       0       0       0       0       0       0       0       0       0
       0       0       0       0       0       0       0       0       0       0
       0       0       0       0       0       0       0       0       0       0
       0       0       0       0       0       0       0       0       0       0
       0       0       0       0       0       0       0       0       0       0
       0       0       0       0       0       0       0       0       0       0
       0       0       0       0       0       0       0       0       0       0
       0       0       0       0       0       0       0       0       0       0
       0       0       0       0       0       0       0       0       0       0
       0       0       0       0       0       0       0       0       0       0
       0       0       0       0       0       0       0       0       0       0
       0       0       0       0       0       0       0       0       0       0
       0       0       0       0       0       0       0       0       0       0
       0       0       0       0       0       0       0       0       0       0
       0       0       0       0       0       0       0       0       0       0
       0       0       0       0       0       0       0       0       0       0
       0       0       0       0       0       0       0       0       0       0
       0       0       0       0       0       0       0       0       0       0
       0       0       0       0       0       0       0       0       0       0
       0       0       0       0       0       0       0       0       0       0
       0       0       0       0       0       0       0       0       0       0
       0       0       0       0       0       0       0       0       0       0
       0       0       0       0       0       0       0       0       0       0
       0       0       0       0       0       0       0       0       0       0
       0       0       0       0       0       0       0       0       0       0
       0       0       0       0       0       0       0       0       0       0
       0       0       0       0       0       0       0       0       0       0
       0       0       0       0       0       0       0       0       0       0
       0       0       0       0       0       0       0       0       0       0
       0       0       0       0       0       0       0       0       0       0
       0       0       0       0       0       0       0       0       0       0
       0       0       0       0       0       0       0       0       0       0
       0       0       0       0       0       0       0       0       0       0
       0       0       0       0       0       0       0       0       0       0
       0       0       0       0       0       0       0       0       0       0
       0       0       0       0       0       0       0       0       0       0
       0       0       0       0       0       0       0       0       0       0
       0       0       0       0       0       0       0       0       0       0
       0       0       0       0       0       0       0       0       0       0
       0       0       0       0       0       0       0       0       0       0
       0       0       0       0       0       0       0       0       0       0
       0       0       0       0       0       0       0       0       0       0
       0       0       0       0       0       0       0       0       0       0
       0       0       0       0       0       0       0       0       0       0
       0       0       0       0       0       0       0       0       0       0
       0       0       0       0       0       0       0       0       0       0
       0       0       0       0       0       0       0       0       0       0
       0       0       0       0       0       0       0       0       0       0
       0       0       0       0       0       0       0       0       0       0
       0       0       0       0       0       0       0       0       0       0
       0       0       0       0       0       0       0       0       0       0
       0       0       0       0       0       0       0       0       0       0
       0       0       0       0       0       0       0       0       0       0
       0       0       0       0       0       0       0       0       0       0
       0       0       0       0       0       0       0       0       0       0
       0       0       0       0       0       0       0       0       0       0
       0       0       0       0       0       0       0       0       0       0
       0       0       0       0       0       0       0       0       0       0
       0       0       0       0       0       0       0       0       0       0
       0       0       0       0       0       0       0       0       0       0
       0       0       0       0       0       0       0       0       0       0
       0       0       0       0       0       0       0       0       0       0
       0       0       0       0       0       0       0       0       0       0
       0       0       0       0       0       0       0       0       0       0
       0       0       0       0       0       0       0       0       0       0
       0       0       0       0       0       0       0       0       0       0
       0       0       0       0       0       0       0       0       0       0
       0       0       0       0       0       0       0       0       0       0
       0       0       0       0       0       0       0       0       0       0
       0       0       0       0       0       0       0       0       0       0
       0       0       0       0       0       0       0       0       0       0
       0       0       0       0       0       0       0       0       0       0
       0       0       0       0       0       0       0       0       0       0
       0       0       0       0       0       0       0       0       0       0
       0       0       0       0       0       0       0       0       0       0
       0       0       0       0       0       0       0       0       0       0
       0       0       0       0       0       0       0       0       0       0
       0       0       0       0       0       0       0       0       0       0
       0       0       0       0       0       0       0       0       0       0
       0       0       0       0       0       0       0       0       0       0
       0       0       0       0       0       0       0       0       0       0
       0       0       0       0       0       0       0       0       0       0
       0       0       0       0       0       0       0       0       0       0
       0       0       0       0       0       0       0       0       0       0
       0       0       0       0       0       0       0       0       0       0
       0       0       0       0       0       0       0       0       0       0
       0       0       0       0       0       0       0       0       0       0
       0       0       0       0       0       0       0       0       0       0
       0       0       0       0       0       0       0       0       0       0
       0       0       0       0       0       0       0       0       0       0
       0       0       0       0       0       0       0       0       0       0
       0       0       0       0       0       0       0       0       0       0
       0       0       0       0       0       0       0       0       0       0
       0       0       0       0       0       0       0       0       0       0
       0       0       0       0       0       0       0       0       0       0
       0       0       0       0       0       0       0       0       0       0
       0       0       0       0       0       0       0       0       0       0
       0       0       0       0       0       0       0       0       0       0
       0       0       0       0       0       0       0       0       0       0
       0       0       0       0       0       0       0       0       0       0
       0       0       0       0       0       0       0       0       0       0
       0       0       0       0       0       0       0       0       0       0
       0       0       0       0       0       0       0       0       0       0
       0       0       0       0       0       0       0       0       0       0
       0       0       0       0       0       0       0       0       0       0
       0       0       0       0       0       0       0       0       0       0
       0       0       0       0       0       0       0       0       0       0
       0       0       0       0       0       0       0       0       0       0
       0       0       0       0       0       0       0       0       0       0
       0       0       0       0       0       0       0       0       0       0
       0       0       0       0       0       0       0       0       0       0
       0       0       0       0       0       0       0       0       0       0
       0       0       0       0       0       0       0       0       0       0
       0       0       0       0       0       0       0       0       0       0
       0       0       0       0       0       0       0       0       0       0
       0       0       0       0       0       0       0       0       0       0
       0       0       0       0       0       0       0       0       0       0
       0       0       0       0       0       0       0       0       0       0
       0       0       0       0       0       0       0       0       0       0
       0       0       0       0       0       0       0       0       0       0
       0       0       0       0       0       0       0       0       0       0
       0       0       0       0       0       0       0       0       0       0
       0       0       0       0       0       0       0       0       0       0
       0       0       0       0       0       0       0       0       0       0
       0       0       0       0       0       0       0       0       0       0
       0       0       0       0       0       0       0       0       0       0
       0       0       0       0       0       0       0       0       0       0
       0       0       0       0       0       0       0       0       0       0
       0       0       0       0       0       0       0       0       0       0
       0       0       0       0       0       0       0       0       0       0
       0       0       0       0       0       0       0       0       0       0
       0       0       0       0       0       0       0       0       0       0
       0       0       0       0       0       0       0       0       0       0
       0       0       0       0       0       0       0       0       0       0
       0       0       0       0       0       0       0       0       0       0
       0       0       0       0       0       0       0       0       0       0
       0       0       0       0       0       0       0       0       0       0
       0       0       0       0       0       0       0       0       0       0
       0       0       0       0       0       0       0       0       0       0
       0       0       0       0       0       0       0       0       0       0
       0       0       0       0       0       0       0       0       0       0
       0       0       0       0       0       0       0       0       0       0
       0       0       0       0       0       0       0       0       0       0
       0       0       0       0       0       0       0       0       0       0
       0       0       0       0       0       0       0       0       0       0
       0       0       0       0       0       0       0       0       0       0
       0       0       0       0       0       0       0       0       0       0
       0       0       0       0       0       0       0       0       0       0
       0       0       0       0       0       0       0       0       0       0
       0       0       0       0       0       0       0       0       0       0
       0       0       0       0       0       0       0       0       0       0
       0       0       0       0       0       0       0       0       0       0
       0       0       0       0       0       0       0       0       0       0
       0       0       0       0       0       0       0       0       0       0
       0       0       0       0       0       0       0       0       0       0
       0       0       0       0       0       0       0       0       0       0
       0       0       0       0       0       0       0       0       0       0
       0       0       0       0       0       0       0       0       0       0
       0       0       0       0       0       0       0       0       0       0
       0       0       0       0       0       0       0       0       0       0
       0       0       0       0       0       0       0       0       0       0
       0       0       0       0       0       0       0       0       0       0
       0       0       0       0       0       0       0       0       0       0
       0       0       0       0       0       0       0       0       0       0
       0       0       0       0       0       0       0       0       0       0
       0       0       0       0       0       0       0       0       0       0
       0       0       0       0       0       0       0       0       0       0
       0       0       0       0       0       0       0       0       0       0
       0       0       0       0       0       0       0       0       0       0
       0       0       0       0       0       0       0       0       0       0
       0       0       0       0       0       0       0       0       0       0
       0       0       0       0       0       0       0       0       0       0
       0       0       0       0       0       0       0       0       0       0
       0       0       0       0       0       0       0       0       0       0
       0       0       0       0       0       0       0       0       0       0
       0       0       0       0       0       0       0       0       0       0
       0       0       0       0       0       0       0       0       0       0
       0       0       0       0       0       0       0       0       0       0
       0       0       0       0       0       0       0       0       0       0
       0       0       0       0       0       0       0       0       0       0
       0       0       0       0       0       0       0       0       0       0
       0       0       0       0       0       0       0       0       0       0
       0       0       0       0       0       0       0       0       0       0
       0       0       0       0       0       0       0       0       0       0
       0       0       0       0       0       0       0       0       0       0
       0       0       0       0       0       0       0       0       0       0
       0       0       0       0       0       0       0       0       0       0
       0       0       0       0       0       0       0       0       0       0
       0       0       0       0       0       0       0       0       0       0
       0       0       0       0       0       0       0       0       0       0
       0       0       0       0       0       0       0       0       0       0
       0       0       0       0       0       0       0       0       0       0
       0       0       0       0       0       0       0       0       0       0
       0       0       0       0       0       0       0       0       0       0
       0       0       0       0       0       0       0       0       0       0
       0       0       0       0       0       0       0       0       0       0
       0       0       0       0       0       0       0       0       0       0
       0       0       0       0       0       0       0       0       0       0
       0       0       0       0       0       0       0       0       0       0
       0       0       0       0       0       0       0       0       0       0
       0       0       0       0       0       0       0       0       0       0
       0       0       0       0       0       0       0       0       0       0
       0       0       0       0       0       0       0       0       0       0
       0       0       0       0       0       0       0       0       0       0
       0       0       0       0       0       0       0       0       0       0
       0       0       0       0       0       0       0       0       0       0
       0       0       0       0       0       0       0       0       0       0
       0       0       0       0       0       0       0       0       0       0
       0       0       0       0       0       0       0       0       0       0
       0       0       0       0       0       0       0       0       0       0
       0       0       0       0       0       0       0       0       0       0
       0       0       0       0       0       0       0       0       0       0
       0       0       0       0       0       0       0       0       0       0
       0       0       0       0       0       0       0       0       0       0
       0       0       0       0       0       0       0       0       0       0
       0       0       0       0       0       0       0       0       0       0
       0       0       0       0       0       0       0       0       0       0
       0       0       0       0       0       0       0       0       0       0
       0       0       0       0       0       0       0       0       0       0
       0       0       0       0       0       0       0       0       0       0
       0       0       0       0       0       0       0       0       0       0
       0       0       0       0       0       0       0       0       0       0
       0       0       0       0       0       0       0       0       0       0
       0       0       0       0       0       0       0       0       0       0
       0       0       0       0       0       0       0       0       0       0
       0       0       0       0       0       0       0       0       0       0
       0       0       0       0       0       0       0       0       0       0
       0       0       0       0       0       0       0       0       0       0
       0       0       0       0       0       0       0       0       0       0
       0       0       0       0       0       0       0       0       0       0
       0       0       0       0       0       0       0       0       0       0
       0       0       0       0       0       0       0       0       0       0
       0       0       0       0       0       0       0       0       0       0
       0       0       0       0       0       0       0       0       0       0
       0       0       0       0       0       0       0       0       0       0
       0       0       0       0       0       0       0       0       0       0
       0       0       0       0       0       0       0       0       0       0
       0       0       0       0       0       0       0       0       0       0
       0       0       0       0       0       0       0       0       0       0
       0       0       0       0       0       0       0       0       0       0
       0       0       0       0       0       0       0       0       0       0
       0       0       0       0       0       0       0       0       0       0
       0       0       0       0       0       0       0       0       0       0
       0       0       0       0       0       0       0       0       0       0
       0       0       0       0       0       0       0       0       0       0
       0       0       0       0       0       0       0       0       0       0
       0       0       0       0       0       0       0       0       0       0
       0       0       0       0       0       0       0       0       0       0
       0       0       0       0       0       0       0       0       0       0
       0       0       0       0       0       0       0       0       0       0
       0       0       0       0       0       0       0       0       0       0
       0       0       0       0       0       0       0       0       0       0
       0       0       0       0       0       0       0       0       0       0
       0       0       0       0       0       0       0       0       0       0
       0       0       0       0       0       0       0       0       0       0
       0       0       0       0       0       0       0       0       0       0
       0       0       0       0       0       0       0       0       0       0
       0       0       0       0       0       0       0       0       0       0
       0       0       0       0       0       0       0       0       0       0
       0       0       0       0       0       0       0       0       0       0
       0       0       0       0       0       0       0       0       0       0
       0       0       0       0       0       0       0       0       0       0
       0       0       0       0       0       0       0       0       0       0
       0       0       0       0       0       0       0       0       0       0
       0       0       0       0       0       0       0       0       0       0
       0       0       0       0       0       0       0       0       0       0
       0       0       0       0       0       0       0       0       0       0
       0       0       0       0       0       0       0       0       0       0
       0       0       0       0       0       0       0       0       0       0
       0       0       0       0       0       0       0       0       0       0
       0       0       0       0       0       0       0       0       0       0
       0       0       0       0       0       0       0       0       0       0
       0       0       0       0       0       0       0       0       0       0
       0       0       0       0       0       0       0       0       0       0
       0       0       0       0       0       0       0       0       0       0
       0       0       0       0       0       0       0       0       0       0
       0       0       0       0       0       0       0       0       0       0
       0       0       0       0       0       0       0       0       0       0
       0       0       0       0       0       0       0       0       0       0
       0       0       0       0       0       0       0       0       0       0
       0       0       0       0       0       0       0       0       0       0
       0       0       0       0       0       0       0       0       0       0
       0       0       0       0       0       0       0       0       0       0
       0       0       0       0       0       0       0       0       0       0
       0       0       0       0       0       0       0       0       0       0
       0       0       0       0       0       0       0       0       0       0
       0       0       0       0       0       0       0       0       0       0
       0       0       0       0       0       0       0       0       0       0
       0       0       0       0       0       0       0       0       0       0
       0       0       0       0       0       0       0       0       0       0
       0       0       0       0       0       0       0       0       0       0
       0       0       0       0       0       0       0       0       0       0
       0       0       0       0       0       0       0       0       0       0
       0       0       0       0       0       0       0       0       0       0
       0       0       0       0       0       0       0       0       0       0
       0       0       0       0       0       0       0       0       0       0
       0       0       0       0       0       0       0       0       0       0
       0       0       0       0       0       0       0       0       0       0
       0       0       0       0       0       0       0       0       0       0
       0       0       0       0       0       0       0       0       0       0
       0       0       0       0       0       0       0       0       0       0
       0       0       0       0       0       0       0       0       0       0
       0       0       0       0       0       0       0       0       0       0
       0       0       0       0       0       0       0       0       0       0
       0       0       0       0       0       0       0       0       0       0
       0       0       0       0       0       0       0       0       0       0
       0       0       0       0       0       0       0       0       0       0
       0       0       0       0       0       0       0       0       0       0
       0       0       0       0       0       0       0       0       0       0
       0       0       0       0       0       0       0       0       0       0
       0       0       0       0       0       0       0       0       0       0
       0       0       0       0       0       0       0       0       0       0
       0       0       0       0       0       0       0       0       0       0
       0       0       0       0       0       0       0       0       0       0
       0       0       0       0       0       0       0       0       0       0
       0       0       0       0       0       0       0       0       0       0
       0       0       0       0       0       0       0       0       0       0
       0       0       0       0       0       0       0       0       0       0
       0       0       0       0       0       0       0       0       0       0
       0       0       0       0       0       0       0       0       0       0
       0       0       0       0       0       0       0       0       0       0
       0       0       0       0       0       0       0       0       0       0
       0       0       0       0       0       0       0       0       0       0
       0       0       0       0       0       0       0       0       0       0
       0       0       0       0       0       0       0       0       0       0
       0       0       0       0       0       0       0       0       0       0
       0       0       0       0       0       0       0       0       0       0
       0       0       0       0       0       0       0       0       0       0
       0       0       0       0       0       0       0       0       0       0
       0       0       0       0       0       0       0       0       0       0
       0       0       0       0       0       0       0       0       0       0
       0       0       0       0       0       0       0       0       0       0
       0       0       0       0       0       0       0       0       0       0
       0       0       0       0       0       0       0       0       0       0
       0       0       0       0       0       0       0       0       0       0
       0       0       0       0       0       0       0       0       0       0
       0       0       0       0       0       0       0       0       0       0
       0       0       0       0       0       0       0       0       0       0
       0       0       0       0       0       0       0       0       0       0
       0       0       0       0       0       0       0       0       0       0
       0       0       0       0       0       0       0       0       0       0
       0       0       0       0       0       0       0       0       0       0
       0       0       0       0       0       0       0       0       0       0
       0       0       0       0       0       0       0       0       0       0
       0       0       0       0       0       0       0       0       0       0
       0       0       0       0       0       0       0       0       0       0
       0       0       0       0       0       0       0       0       0       0
       0       0       0       0       0       0       0       0       0       0
       0       0       0       0       0       0       0       0       0       0
       0       0       0       0       0       0       0       0       0       0
       0       0       0       0       0       0       0       0       0       0
       0       0       0       0       0       0       0       0       0       0
       0       0       0       0       0       0       0       0       0       0
       0       0       0       0       0       0       0       0       0       0
       0       0       0       0       0       0       0       0       0       0
       0       0       0       0       0       0       0       0       0       0
       0       0       0       0       0       0       0       0       0       0
       0       0       0       0       0       0       0       0       0       0
       0       0       0       0       0       0       0       0       0       0
       0       0       0       0       0       0       0       0       0       0
       0       0       0       0       0       0       0       0       0       0
       0       0       0       0       0       0       0       0       0       0
       0       0       0       0       0       0       0       0       0       0
       0       0       0       0       0       0       0       0       0       0
       0       0       0       0       0       0       0       0       0       0
       0       0       0       0       0       0       0       0       0       0
       0       0       0       0       0       0       0       0       0       0
       0       0       0       0       0       0       0       0       0       0
       0       0       0       0       0       0       0       0       0       0
       0       0       0       0       0       0       0       0       0       0
       0       0       0       0       0       0       0       0       0       0
       0       0       0       0       0       0       0       0       0       0
       0       0       0       0       0       0       0       0       0       0
       0       0       0       0       0       0       0       0       0       0
       0       0       0       0       0       0       0       0       0       0
       0       0       0       0       0       0       0       0       0       0
       0       0       0       0       0       0       0       0       0       0
       0       0       0       0       0       0       0       0       0       0
       0       0       0       0       0       0       0       0       0       0
       0       0       0       0       0       0       0       0       0       0
       0       0       0       0       0       0       0       0       0       0
       0       0       0       0       0       0       0       0       0       0
       0       0       0       0       0       0       0       0       0       0
       0       0       0       0       0       0       0       0       0       0
       0       0       0       0       0       0       0       0       0       0
       0       0       0       0       0       0       0       0       0       0
       0       0       0       0       0       0       0       0       0       0
       0       0       0       0       0       0       0       0       0       0
       0       0       0       0       0       0       0       0       0       0
       0       0       0       0       0       0       0       0       0       0
       0       0       0       0       0       0       0       0       0       0
       0       0       0       0       0       0       0       0       0       0
       0       0       0       0       0       0       0       0       0       0
       0       0       0       0       0       0       0       0       0       0
       0       0       0       0       0       0       0       0       0       0
       0       0       0       0       0       0       0       0       0       0
       0       0       0       0       0       0       0       0       0       0
       0       0       0       0       0       0       0       0       0       0
       0       0       0       0       0       0       0       0       0       0
       0       0       0       0       0       0       0       0       0       0
       0       0       0       0       0       0       0       0       0       0
       0       0       0       0       0       0       0       0       0       0
       0       0       0       0       0       0       0       0       0       0
       0       0       0       0       0       0       0       0       0       0
       0       0       0       0       0       0       0       0       0       0
       0       0       0       0       0       0       0       0       0       0
       0       0       0       0       0       0       0       0       0       0
       0       0       0       0       0       0       0       0       0       0
       0       0       0       0       0       0       0       0       0       0
       0       0       0       0       0       0       0       0       0       0
       0       0       0       0       0       0       0       0       0       0
       0       0       0       0       0       0       0       0       0       0
       0       0       0       0       0       0       0       0       0       0
       0       0       0       0       0       0       0       0       0       0
       0       0       0       0       0       0       0       0       0       0
       0       0       0       0       0       0       0       0       0       0
       0       0       0       0       0       0       0       0       0       0
       0       0       0       0       0       0       0       0       0       0
       0       0       0       0       0       0       0       0       0       0
       0       0       0       0       0       0       0       0       0       0
       0       0       0       0       0       0       0       0       0       0
       0       0       0       0       0       0       0       0       0       0
       0       0       0       0       0       0       0       0       0       0
       0       0       0       0       0       0       0       0       0       0
       0       0       0       0       0       0       0       0       0       0
       0       0       0       0       0       0       0       0       0       0
       0       0       0       0       0       0       0       0       0       0
       0       0       0       0       0       0       0       0       0       0
       0       0       0       0       0       0       0       0       0       0
       0       0       0       0       0       0       0       0       0       0
       0       0       0       0       0       0       0       0       0       0
       0       0       0       0       0       0       0       0       0       0
       0       0       0       0       0       0       0       0       0       0
       0       0       0       0       0       0       0       0       0       0
       0       0       0       0       0       0       0       0       0       0
       0       0       0       0       0       0       0       0       0       0
       0       0       0       0       0       0       0       0       0       0
       0       0       0       0       0       0       0       0       0       0
       0       0       0       0       0       0       0       0       0       0
       0       0       0       0       0       0       0       0       0       0
       0       0       0       0       0       0       0       0       0       0
       0       0       0       0       0       0       0       0       0       0
       0       0       0       0       0       0       0       0       0       0
       0       0       0       0       0       0       0       0       0       0
       0       0       0       0       0       0       0       0       0       0
       0       0       0       0       0       0       0       0       0       0
       0       0       0       0       0       0       0       0       0       0
       0       0       0       0       0       0       0       0       0       0
       0       0       0       0       0       0       0       0       0       0
       0       0       0       0       0       0       0       0       0       0
       0       0       0       0       0       0       0       0       0       0
       0       0       0       0       0       0       0       0       0       0
       0       0       0       0       0       0       0       0       0       0
       0       0       0       0       0       0       0       0       0       0
       0       0       0       0       0       0       0       0       0       0
       0       0       0       0       0       0       0       0       0       0
       0       0       0       0       0       0       0       0       0       0
       0       0       0       0       0       0       0       0       0       0
       0       0       0       0       0       0       0       0       0       0
       0       0       0       0       0       0       0       0       0       0
       0       0       0       0       0       0       0       0       0       0
       0       0       0       0       0       0       0       0       0       0
       0       0       0       0       0       0       0       0       0       0
       0       0       0       0       0       0       0       0       0       0
       0       0       0       0       0       0       0       0       0       0
       0       0       0       0       0       0       0       0       0       0
       0       0       0       0       0       0       0       0       0       0
       0       0       0       0       0       0       0       0       0       0
       0       0       0       0       0       0       0       0       0       0
       0       0       0       0       0       0       0       0       0       0
       0       0       0       0       0       0       0       0       0       0
       0       0       0       0       0       0       0       0       0       0
       0       0       0       0       0       0       0       0       0       0
       0       0       0       0       0       0       0       0       0       0
       0       0       0       0       0       0       0       0       0       0
       0       0       0       0       0       0       0       0       0       0
       0       0       0       0       0       0       0       0       0       0
       0       0       0       0       0       0       0       0       0       0
       0       0       0       0       0       0       0       0       0       0
       0       0       0       0       0       0       0       0       0       0
       0       0       0       0       0       0       0       0       0       0
       0       0       0       0       0       0       0       0       0       0
       0       0       0       0       0       0       0       0       0       0
       0       0       0       0       0       0       0       0       0       0
       0       0       0       0       0       0       0       0       0       0
       0       0       0       0       0       0       0       0       0       0
       0       0       0       0       0       0       0       0       0       0
       0       0       0       0       0       0       0       0       0       0
       0       0       0       0       0       0       0       0       0       0
       0       0       0       0       0       0       0       0       0       0
       0       0       0       0       0       0       0       0       0       0
       0       0       0       0       0       0       0       0       0       0
       0       0       0       0       0       0       0       0       0       0
       0       0       0       0       0       0       0       0       0       0
       0       0       0       0       0       0       0       0       0       0
       0       0       0       0       0       0       0       0       0       0
       0       0       0       0       0       0       0       0       0       0
       0       0       0       0       0       0       0       0       0       0
       0       0       0       0       0       0       0       0       0       0
       0       0       0       0       0       0       0       0       0       0
       0       0       0       0       0       0       0       0       0       0
       0       0       0       0       0       0       0       0       0       0
       0       0       0       0       0       0       0       0       0       0
       0       0       0       0       0       0       0       0       0       0
       0       0       0       0       0       0       0       0       0       0
       0       0       0       0       0       0       0       0       0       0
       0       0       0       0       0       0       0       0       0       0
       0       0       0       0       0       0       0       0       0       0
       0       0       0       0       0       0       0       0       0       0
       0       0       0       0       0       0       0       0       0       0
       0       0       0       0       0       0       0       0       0       0
       0       0       0       0       0       0       0       0       0       0
       0       0       0       0       0       0       0       0       0       0
       0       0       0       0       0       0       0       0       0       0
       0       0       0       0       0       0       0       0       0       0
       0       0       0       0       0       0       0       0       0       0
       0       0       0       0       0       0       0       0       0       0
       0       0       0       0       0       0       0       0       0       0
       0       0       0       0       0       0       0       0       0       0
       0       0       0       0       0       0       0       0       0       0
       0       0       0       0       0       0       0       0       0       0
       0       0       0       0       0       0       0       0       0       0
       0       0       0       0       0       0       0       0       0       0
       0       0       0       0       0       0       0       0       0       0
       0       0       0       0       0       0       0       0       0       0
       0       0       0       0       0       0       0       0       0       0
       0       0       0       0       0       0       0       0       0       0
       0       0       0       0       0       0       0       0       0       0
       0       0       0       0       0       0       0       0       0       0
       0       0       0       0       0       0       0       0       0       0
       0       0       0       0       0       0       0       0       0       0
       0       0       0       0       0       0       0       0       0       0
       0       0       0       0       0       0       0       0       0       0
       0       0       0       0       0       0       0       0       0       0
       0       0       0       0       0       0       0       0       0       0
       0       0       0       0       0       0       0       0       0       0
       0       0       0       0       0       0       0       0       0       0
       0       0       0       0       0       0       0       0       0       0
       0       0       0       0       0       0       0       0       0       0
       0       0       0       0       0       0       0       0       0       0
       0       0       0       0       0       0       0       0       0       0
       0       0       0       0       0       0       0       0       0       0
       0       0       0       0       0       0       0       0       0       0
       0       0       0       0       0       0       0       0       0       0
       0       0       0       0       0       0       0       0       0       0
       0       0       0       0       0       0       0       0       0       0
       0       0       0       0       0       0       0       0       0       0
       0       0       0       0       0       0       0       0       0       0
       0       0       0       0       0       0       0       0       0       0
       0       0       0       0       0       0       0       0       0       0
       0       0       0       0       0       0       0       0       0       0
       0       0       0       0       0       0       0       0       0       0
       0       0       0       0       0       0       0       0       0       0
       0       0       0       0       0       0       0       0       0       0
       0       0       0       0       0       0       0       0       0       0
       0       0       0       0       0       0       0       0       0       0
       0       0       0       0       0       0       0       0       0       0
       0       0       0       0       0       0       0       0       0       0
       0       0       0       0       0       0       0       0       0       0
       0       0       0       0       0       0       0       0       0       0
       0       0       0       0       0       0       0       0       0       0
       0       0       0       0       0       0       0       0       0       0
       0       0       0       0       0       0       0       0       0       0
       0       0       0       0       0       0       0       0       0       0
       0       0       0       0       0       0       0       0       0       0
       0       0       0       0       0       0       0       0       0       0
       0       0       0       0       0       0       0       0       0       0
       0       0       0       0       0       0       0       0       0       0
       0       0       0       0       0       0       0       0       0       0
       0       0       0       0       0       0       0       0       0       0
       0       0       0       0       0       0       0       0       0       0
       0       0       0       0       0       0       0       0       0       0
       0       0       0       0       0       0       0       0       0       0
       0       0       0       0       0       0       0       0       0       0
       0       0       0       0       0       0       0       0       0       0
       0       0       0       0       0       0       0       0       0       0
       0       0       0       0       0       0       0       0       0       0
       0       0       0       0       0       0       0       0       0       0
       0       0       0       0       0       0       0       0       0       0
       0       0       0       0       0       0       0       0       0       0
       0       0       0       0       0       0       0       0       0       0
       0       0       0       0       0       0       0       0       0       0
       0       0       0       0       0       0       0       0       0       0
       0       0       0       0       0       0       0       0       0       0
       0       0       0       0       0       0       0       0       0       0
       0       0       0       0       0       0       0       0       0       0
       0       0       0       0       0       0       0       0       0       0
       0       0       0       0       0       0       0       0       0       0
       0       0       0       0       0       0       0       0       0       0
       0       0       0       0       0       0       0       0       0       0
       0       0       0       0       0       0       0       0       0       0
       0       0       0       0       0       0       0       0       0       0
       0       0       0       0       0       0       0       0       0       0
       0       0       0       0       0       0       0       0       0       0
       0       0       0       0       0       0       0       0       0       0
       0       0       0       0       0       0       0       0       0       0
       0       0       0       0       0       0       0       0       0       0
       0       0       0       0       0       0       0       0       0       0
       0       0       0       0       0       0       0       0       0       0
       0       0       0       0       0       0       0       0       0       0
       0       0       0       0       0       0       0       0       0       0
       0       0       0       0       0       0       0       0       0       0
       0       0       0       0       0       0       0       0       0       0
       0       0       0       0       0       0       0       0       0       0
       0       0       0       0       0       0       0       0       0       0
       0       0       0       0       0       0       0       0       0       0
       0       0       0       0       0       0       0       0       0       0
       0       0       0       0       0       0       0       0       0       0
       0       0       0       0       0       0       0       0       0       0
       0       0       0       0       0       0       0       0       0       0
       0       0       0       0       0       0       0       0       0       0
       0       0       0       0       0       0       0       0       0       0
       0       0       0       0       0       0       0       0       0       0
       0       0       0       0       0       0       0       0       0       0
       0       0       0       0       0       0       0       0       0       0
       0       0       0       0       0       0       0       0       0       0
       0       0       0       0       0       0       0       0       0       0
       0       0       0       0       0       0       0       0       0       0
       0       0       0       0       0       0       0       0       0       0
       0       0       0       0       0       0       0       0       0       0
       0       0       0       0       0       0       0       0       0       0
       0       0       0       0       0       0       0       0       0       0
       0       0       0       0       0       0       0       0       0       0
       0       0       0       0       0       0       0       0       0       0
       0       0       0       0       0       0       0       0       0       0
       0       0       0       0       0       0       0       0       0       0
       0       0       0       0       0       0       0       0       0       0
       0       0       0       0       0       0       0       0       0       0
       0       0       0       0       0       0       0       0       0       0
       0       0       0       0       0       0       0       0       0       0
       0       0       0       0       0       0       0       0       0       0
       0       0       0       0       0       0       0       0       0       0
       0       0       0       0       0       0       0       0       0       0
       0       0       0       0       0       0       0       0       0       0
       0       0       0       0       0       0       0       0       0       0
       0       0       0       0       0       0       0       0       0       0
       0       0       0       0       0       0       0       0       0       0
       0       0       0       0       0       0       0       0       0       0
       0       0       0       0       0       0       0       0       0       0
       0       0       0       0       0       0       0       0       0       0
       0       0       0       0       0       0       0       0       0       0
       0       0       0       0       0       0       0       0       0       0
       0       0       0       0       0       0       0       0       0       0
       0       0       0       0       0       0       0       0       0       0
       0       0       0       0       0       0       0       0       0       0
       0       0       0       0       0       0       0       0       0       0
       0       0       0       0       0       0       0       0       0       0
       0       0       0       0       0       0       0       0       0       0
       0       0       0       0       0       0       0       0       0       0
       0       0       0       0       0       0       0       0       0       0
       0       0       0       0       0       0       0       0       0       0
       0       0       0       0       0       0       0       0       0       0
       0       0       0       0       0       0       0       0       0       0
       0       0       0       0       0       0       0       0       0       0
       0       0       0       0       0       0       0       0       0       0
       0       0       0       0       0       0       0       0       0       0
       0       0       0       0       0       0       0       0       0       0
       0       0       0       0       0       0       0       0       0       0
       0       0       0       0       0       0       0       0       0       0
       0       0       0       0       0       0       0       0       0       0
       0       0       0       0       0       0       0       0       0       0
       0       0       0       0       0       0       0       0       0       0
       0       0       0       0       0       0       0       0       0       0
       0       0       0       0       0       0       0       0       0       0
       0       0       0       0       0       0       0       0       0       0
       0       0       0       0       0       0       0       0       0       0
       0       0       0       0       0       0       0       0       0       0
       0       0       0       0       0       0       0       0       0       0
       0       0       0       0       0       0       0       0       0       0
       0       0       0       0       0       0       0       0       0       0
       0       0       0       0       0       0       0       0       0       0
       0       0       0       0       0       0       0       0       0       0
       0       0       0       0       0       0       0       0       0       0
       0       0       0       0       0       0       0       0       0       0
       0       0       0       0       0       0       0       0       0       0
       0       0       0       0       0       0       0       0       0       0
       0       0       0       0       0       0       0       0       0       0
       0       0       0       0       0       0       0       0       0       0
       0       0       0       0       0       0       0       0       0       0
       0       0       0       0       0       0       0       0       0       0
       0       0       0       0       0       0       0       0       0       0
       0       0       0       0       0       0       0       0       0       0
       0       0       0       0       0       0       0       0       0       0
       0       0       0       0       0       0       0       0       0       0
       0       0       0       0       0       0       0       0       0       0
       0       0       0       0       0       0       0       0       0       0
       0       0       0       0       0       0       0       0       0       0
       0       0       0       0       0       0       0       0       0       0
       0       0       0       0       0       0       0       0       0       0
       0       0       0       0       0       0       0       0       0       0
       0       0       0       0       0       0       0       0       0       0
       0       0       0       0       0       0       0       0       0       0
       0       0       0       0       0       0       0       0       0       0
       0       0       0       0       0       0       0       0       0       0
       0       0       0       0       0       0       0       0       0       0
       0       0       0       0       0       0       0       0       0       0
       0       0       0       0       0       0       0       0       0       0
       0       0       0       0       0       0       0       0       0       0
       0       0       0       0       0       0       0       0       0       0
       0       0       0       0       0       0       0       0       0       0
       0       0       0       0       0       0       0       0       0       0
       0       0       0       0       0       0       0       0       0       0
       0       0       0       0       0       0       0       0       0       0
       0       0       0       0       0       0       0       0       0       0
       0       0       0       0       0       0       0       0       0       0
       0       0       0       0       0       0       0       0       0       0
       0       0       0       0       0       0       0       0       0       0
       0       0       0       0       0       0       0       0       0       0
       0       0       0       0       0       0       0       0       0       0
       0       0       0       0       0       0       0       0       0       0
       0       0       0       0       0       0       0       0       0       0
       0       0       0       0       0       0       0       0       0       0
       0       0       0       0       0       0       0       0       0       0
       0       0       0       0       0       0       0       0       0       0
       0       0       0       0       0       0       0       0       0       0
       0       0       0       0       0       0       0       0       0       0
       0       0       0       0       0       0       0       0       0       0
       0       0       0       0       0       0       0       0       0       0
       0       0       0       0       0       0       0       0       0       0
       0       0       0       0       0       0       0       0       0       0
       0       0       0       0       0       0       0       0       0       0
       0       0       0       0       0       0       0       0       0       0
       0       0       0       0       0       0       0       0       0       0
       0       0       0       0       0       0       0       0       0       0
       0       0       0       0       0       0       0       0       0       0
       0       0       0       0       0       0       0       0       0       0
       0       0       0       0       0       0       0       0       0       0
       0       0       0       0       0       0       0       0       0       0
       0       0       0       0       0       0       0       0       0       0
       0       0       0       0       0       0       0       0       0       0
       0       0       0       0       0       0       0       0       0       0
       0       0       0       0       0       0       0       0       0       0
       0       0       0       0       0       0       0       0       0       0
       0       0       0       0       0       0       0       0       0       0
       0       0       0       0       0       0       0       0       0       0
       0       0       0       0       0       0       0       0       0       0
       0       0       0       0       0       0       0       0       0       0
       0       0       0       0       0       0       0       0       0       0
       0       0       0       0       0       0       0       0       0       0
       0       0       0       0       0       0       0       0       0       0
       0       0       0       0       0       0       0       0       0       0
       0       0       0       0       0       0       0       0       0       0
       0       0       0       0       0       0       0       0       0       0
       0       0       0       0       0       0       0       0       0       0
       0       0       0       0       0       0       0       0       0       0
       0       0       0       0       0       0       0       0       0       0
       0       0       0       0       0       0       0       0       0       0
       0       0       0       0       0       0       0       0       0       0
       0       0       0       0       0       0       0       0       0       0
       0       0       0       0       0       0       0       0       0       0
       0       0       0       0       0       0       0       0       0       0
       0       0       0       0       0       0       0       0       0       0
       0       0       0       0       0       0       0       0       0       0
       0       0       0       0       0       0       0       0       0       0
       0       0       0       0       0       0       0       0       0       0
       0       0       0       0       0       0       0       0       0       0
       0       0       0       0       0       0       0       0       0       0
       0       0       0       0       0       0       0       0       0       0
       0       0       0       0       0       0       0       0       0       0
       0       0       0       0       0       0       0       0       0       0
       0       0       0       0       0       0       0       0       0       0
       0       0       0       0       0       0       0       0       0       0
       0       0       0       0       0       0       0       0       0       0
       0       0       0       0       0       0       0       0       0       0
       0       0       0       0       0       0       0       0       0       0
       0       0       0       0       0       0       0       0       0       0
       0       0       0       0       0       0       0       0       0       0
       0       0       0       0       0       0       0       0       0       0
       0       0       0       0       0       0       0       0       0       0
       0       0       0       0       0       0       0       0       0       0
       0       0       0       0       0       0       0       0       0       0
       0       0       0       0       0       0       0       0       0       0
       0       0       0       0       0       0       0       0       0       0
       0       0       0       0       0       0       0       0       0       0
       0       0       0       0       0       0       0       0       0       0
       0       0       0       0       0       0       0       0       0       0
       0       0       0       0       0       0       0       0       0       0
       0       0       0       0       0       0       0       0       0       0
       0       0       0       0       0       0       0       0       0       0
       0       0       0       0       0       0       0       0       0       0
       0       0       0       0       0       0       0       0       0       0
       0       0       0       0       0       0       0       0       0       0
       0       0       0       0       0       0       0       0       0       0
       0       0       0       0       0       0       0       0       0       0
       0       0       0       0       0       0       0       0       0       0
       0       0       0       0       0       0       0       0       0       0
       0       0       0       0       0       0       0       0       0       0
       0       0       0       0       0       0       0       0       0       0
       0       0       0       0       0       0       0       0       0       0
       0       0       0       0       0       0       0       0       0       0
       0       0       0       0       0       0       0       0       0       0
       0       0       0       0       0       0       0       0       0       0
       0       0       0       0       0       0       0       0       0       0
       0       0       0       0       0       0       0       0       0       0
       0       0       0       0       0       0       0       0       0       0
       0       0       0       0       0       0       0       0       0       0
       0       0       0       0       0       0       0       0       0       0
       0       0       0       0       0       0       0       0       0       0
       0       0       0       0       0       0       0       0       0       0
       0       0       0       0       0       0       0       0       0       0
       0       0       0       0       0       0       0       0       0       0
       0       0       0       0       0       0       0       0       0       0
       0       0       0       0       0       0       0       0       0       0
       0       0       0       0       0       0       0       0       0       0
       0       0       0       0       0       0       0       0       0       0
       0       0       0       0       0       0       0       0       0       0
       0       0       0       0       0       0       0       0       0       0
       0       0       0       0       0       0       0       0       0       0
       0       0       0       0       0       0       0       0       0       0
       0       0       0       0       0       0       0       0       0       0
       0       0       0       0       0       0       0       0       0       0
       0       0       0       0       0       0       0       0       0       0
       0       0       0       0       0       0       0       0       0       0
       0       0       0       0       0       0       0       0       0       0
       0       0       0       0       0       0       0       0       0       0
       0       0       0       0       0       0       0       0       0       0
       0       0       0       0       0       0       0       0       0       0
       0       0       0       0       0       0       0       0       0       0
       0       0       0       0       0       0       0       0       0       0
       0       0       0       0       0       0       0       0       0       0
       0       0       0       0       0       0       0       0       0       0
       0       0       0       0       0       0       0       0       0       0
       0       0       0       0       0       0       0       0       0       0
       0       0       0       0       0       0       0       0       0       0
       0       0       0       0       0       0       0       0       0       0
       0       0       0       0       0       0       0       0       0       0
       0       0       0       0       0       0       0       0       0       0
       0       0       0       0       0       0       0       0       0       0
       0       0       0       0       0       0       0       0       0       0
       0       0       0       0       0       0       0       0       0       0
       0       0       0       0       0       0       0       0       0       0
       0       0       0       0       0       0       0       0       0       0
       0       0       0       0       0       0       0       0       0       0
       0       0       0       0       0       0       0       0       0       0
       0       0       0       0       0       0       0       0       0       0
       0       0       0       0       0       0       0       0       0       0
       0       0       0       0       0       0       0       0       0       0
       0       0       0       0       0       0       0       0       0       0
       0       0       0       0       0       0       0       0       0       0
       0       0       0       0       0       0       0       0       0       0
       0       0       0       0       0       0       0       0       0       0
       0       0       0       0       0       0       0       0       0       0
       0       0       0       0       0       0       0       0       0       0
       0       0       0       0       0       0       0       0       0       0
       0       0       0       0       0       0       0       0       0       0
       0       0       0       0       0       0       0       0       0       0
       0       0       0       0       0       0       0       0       0       0
       0       0       0       0       0       0       0       0       0       0
       0       0       0       0       0       0       0       0       0       0
       0       0       0       0       0       0       0       0       0       0
       0       0       0       0       0       0       0       0       0       0
       0       0       0       0       0       0       0       0       0       0
       0       0       0       0       0       0       0       0       0       0
       0       0       0       0       0       0       0       0       0       0
       0       0       0       0       0       0       0       0       0       0
       0       0       0       0       0       0       0       0       0       0
       0       0       0       0       0       0       0       0       0       0
       0       0       0       0       0       0       0       0       0       0
       0       0       0       0       0       0       0       0       0       0
       0       0       0       0       0       0       0       0       0       0
       0       0       0       0       0       0       0       0       0       0
       0       0       0       0       0       0       0       0       0       0
       0       0       0       0       0       0       0       0       0       0
       0       0       0       0       0       0       0       0       0       0
       0       0       0       0       0       0       0       0       0       0
       0       0       0       0       0       0       0       0       0       0
       0       0       0       0       0       0       0       0       0       0
       0       0       0       0       0       0       0       0       0       0
       0       0       0       0       0       0       0       0       0       0
       0       0       0       0       0       0       0       0       0       0
       0       0       0       0       0       0       0       0       0       0
       0       0       0       0       0       0       0       0       0       0
       0       0       0       0       0       0       0       0       0       0
       0       0       0       0       0       0       0       0       0       0
       0       0       0       0       0       0       0       0       0       0
       0       0       0       0       0       0       0       0       0       0
       0       0       0       0       0       0       0       0       0       0
       0       0       0       0       0       0       0       0       0       0
       0       0       0       0       0       0       0       0       0       0
       0       0       0       0       0       0       0       0       0       0
       0       0       0       0       0       0       0       0       0       0
       0       0       0       0       0       0       0       0       0       0
       0       0       0       0       0       0       0       0       0       0
       0       0       0       0       0       0       0       0       0       0
       0       0       0       0       0       0       0       0       0       0
       0       0       0       0       0       0       0       0       0       0
       0       0       0       0       0       0       0       0       0       0
       0       0       0       0       0       0       0       0       0       0
       0       0       0       0       0       0       0       0       0       0
       0       0       0       0       0       0       0       0       0       0
       0       0       0       0       0       0       0       0       0       0
       0       0       0       0       0       0       0       0       0       0
       0       0       0       0       0       0       0       0       0       0
       0       0       0       0       0       0       0       0       0       0
       0       0       0       0       0       0       0       0       0       0
       0       0       0       0       0       0       0       0       0       0
       0       0       0       0       0       0       0       0       0       0
       0       0       0       0       0       0       0       0       0       0
       0       0       0       0       0       0       0       0       0       0
       0       0       0       0       0       0       0       0       0       0
       0       0       0       0       0       0       0       0       0       0
       0       0       0       0       0       0       0       0       0       0
       0       0       0       0       0       0       0       0       0       0
       0       0       0       0       0       0       0       0       0       0
       0       0       0       0       0       0       0       0       0       0
       0       0       0       0       0       0       0       0       0       0
       0       0       0       0       0       0       0       0       0       0
       0       0       0       0       0       0       0       0       0       0
       0       0       0       0       0       0       0       0       0       0
       0       0       0       0       0       0       0       0       0       0
       0       0       0       0       0       0       0       0       0       0
       0       0       0       0       0       0       0       0       0       0
       0       0       0       0       0       0       0       0       0       0
       0       0       0       0       0       0       0       0       0       0
       0       0       0       0       0       0       0       0       0       0
       0       0       0       0       0       0       0       0       0       0
       0       0       0       0       0       0       0       0       0       0
       0       0       0       0       0       0       0       0       0       0
       0       0       0       0       0       0       0       0       0       0
       0       0       0       0       0       0       0       0       0       0
       0       0       0       0       0       0       0       0       0       0
       0       0       0       0       0       0       0       0       0       0
       0       0       0       0       0       0       0       0       0       0
       0       0       0       0       0       0       0       0       0       0
       0       0       0       0       0       0       0       0       0       0
       0       0       0       0       0       0       0       0       0       0
       0       0       0       0       0       0       0       0       0       0
       0       0       0       0       0       0       0       0       0       0
       0       0       0       0       0       0       0       0       0       0
       0       0       0       0       0       0       0       0       0       0
       0       0       0       0       0       0       0       0       0       0
       0       0       0       0       0       0       0       0       0       0
       0       0       0       0       0       0       0       0       0       0
       0       0       0       0       0       0       0       0       0       0
       0       0       0       0       0       0       0       0       0       0
       0       0       0       0       0       0       0       0       0       0
       0       0       0       0       0       0       0       0       0       0
       0       0       0       0       0       0       0       0       0       0
       0       0       0       0       0       0       0       0       0       0
       0       0       0       0       0       0       0       0       0       0
       0       0       0       0       0       0       0       0       0       0
       0       0       0       0       0       0       0       0       0       0
       0       0       0       0       0       0       0       0       0       0
       0       0       0       0       0       0       0       0       0       0
       0       0       0       0       0       0       0       0       0       0
       0       0       0       0       0       0       0       0       0       0
       0       0       0       0       0       0       0       0       0       0
       0       0       0       0       0       0       0       0       0       0
       0       0       0       0       0       0       0       0       0       0
       0       0       0       0       0       0       0       0       0       0
       0       0       0       0       0       0       0       0       0       0
       0       0       0       0       0       0       0       0       0       0
       0       0       0       0       0       0       0       0       0       0
       0       0       0       0       0       0       0       0       0       0
       0       0       0       0       0       0       0       0       0       0
       0       0       0       0       0       0       0       0       0       0
       0       0       0       0       0       0       0       0       0       0
       0       0       0       0       0       0       0       0       0       0
       0       0       0       0       0       0       0       0       0       0
       0       0       0       0       0       0       0       0       0       0
       0       0       0       0       0       0       0       0       0       0
       0       0       0       0       0       0       0       0       0       0
       0       0       0       0       0       0       0       0       0       0
       0       0       0       0       0       0       0       0       0       0
       0       0       0       0       0       0       0       0       0       0
       0       0       0       0       0       0       0       0       0       0
       0       0       0       0       0       0       0       0       0       0
       0       0       0       0       0       0       0       0       0       0
       0       0       0       0       0       0       0       0       0       0
       0       0       0       0       0       0       0       0       0       0
       0       0       0       0       0       0       0       0       0       0
       0       0       0       0       0       0       0       0       0       0
       0       0       0       0       0       0       0       0       0       0
       0       0       0       0       0       0       0       0       0       0
       0       0       0       0       0       0       0       0       0       0
       0       0       0       0       0       0       0       0       0       0
       0       0       0       0       0       0       0       0       0       0
       0       0       0       0       0       0       0       0       0       0
       0       0       0       0       0       0       0       0       0       0
       0       0       0       0       0       0       0       0       0       0
       0       0       0       0       0       0       0       0       0       0
       0       0       0       0       0       0       0       0       0       0
       0       0       0       0       0       0       0       0       0       0
       0       0       0       0       0       0       0       0       0       0
       0       0       0       0       0       0       0       0       0       0
       0       0       0       0       0       0       0       0       0       0
       0       0       0       0       0       0       0       0       0       0
       0       0       0       0       0       0       0       0       0       0
       0       0       0       0       0       0       0       0       0       0
       0       0       0       0       0       0       0       0       0       0
       0       0       0       0       0       0       0       0       0       0
       0       0       0       0       0       0       0       0       0       0
       0       0       0       0       0       0       0       0       0       0
       0       0       0       0       0       0       0       0       0       0
       0       0       0       0       0       0       0       0       0       0
       0       0       0       0       0       0       0       0       0       0
       0       0       0       0       0       0       0       0       0       0
       0       0       0       0       0       0       0       0       0       0
       0       0       0       0       0       0       0       0       0       0
       0       0       0       0       0       0       0       0       0       0
       0       0       0       0       0       0       0       0       0       0
       0       0       0       0       0       0       0       0       0       0
       0       0       0       0       0       0       0       0       0       0
       0       0       0       0       0       0       0       0       0       0
       0       0       0       0       0       0       0       0       0       0
       0       0       0       0       0       0       0       0       0       0
       0       0       0       0       0       0       0       0       0       0
       0       0       0       0       0       0       0       0       0       0
       0       0       0       0       0       0       0       0       0       0
       0       0       0       0       0       0       0       0       0       0
       0       0       0       0       0       0       0       0       0       0
       0       0       0       0       0       0       0       0       0       0
       0       0       0       0       0       0       0       0       0       0
       0       0       0       0       0       0       0       0       0       0
       0       0       0       0       0       0       0       0       0       0
       0       0       0       0       0       0       0       0       0       0
       0       0       0       0       0       0       0       0       0       0
       0       0       0       0       0       0       0       0       0       0
       0       0       0       0       0       0       0       0       0       0
       0       0       0       0       0       0       0       0       0       0
       0       0       0       0       0       0       0       0       0       0
       0       0       0       0       0       0       0       0       0       0
       0       0       0       0       0       0       0       0       0       0
       0       0       0       0       0       0       0       0       0       0
       0       0       0       0       0       0       0       0       0       0
       0       0       0       0       0       0       0       0       0       0
       0       0       0       0       0       0       0       0       0       0
       0       0       0       0       0       0       0       0       0       0
       0       0       0       0       0       0       0       0       0       0
       0       0       0       0       0       0       0       0       0       0
       0       0       0       0       0       0       0       0       0       0
       0       0       0       0       0       0       0       0       0       0
       0       0       0       0       0       0       0       0       0       0
       0       0       0       0       0       0       0       0       0       0
       0       0       0       0       0       0       0       0       0       0
       0       0       0       0       0       0       0       0       0       0
       0       0       0       0       0       0       0       0       0       0
       0       0       0       0       0       0       0       0       0       0
       0       0       0       0       0       0       0       0       0       0
       0       0       0       0       0       0       0       0       0       0
       0       0       0       0       0       0       0       0       0       0
       0       0       0       0       0       0       0       0       0       0
       0       0       0       0       0       0       0       0       0       0
       0       0       0       0       0       0       0       0       0       0
       0       0       0       0       0       0       0       0       0       0
       0       0       0       0       0       0       0       0       0       0
       0       0       0       0       0       0       0       0       0       0
       0       0       0       0       0       0       0       0       0       0
       0       0       0       0       0       0       0       0       0       0
       0       0       0       0       0       0       0       0       0       0
       0       0       0       0       0       0       0       0       0       0
       0       0       0       0       0       0       0       0       0       0
       0       0       0       0       0       0       0       0       0       0
       0       0       0       0       0       0       0       0       0       0
       0       0       0       0       0       0       0       0       0       0
       0       0       0       0       0       0       0       0       0       0
       0       0       0       0       0       0       0       0       0       0
       0       0       0       0       0       0       0       0       0       0
       0       0       0       0       0       0       0       0       0       0
       0       0       0       0       0       0       0       0       0       0
       0       0       0       0       0       0       0       0       0       0
       0       0       0       0       0       0       0       0       0       0
       0       0       0       0       0       0       0       0       0       0
       0       0       0       0       0       0       0       0       0       0
       0       0       0       0       0       0       0       0       0       0
       0       0       0       0       0       0       0       0       0       0
       0       0       0       0       0       0       0       0       0       0
       0       0       0       0       0       0       0       0       0       0
       0       0       0       0       0       0       0       0       0       0
       0       0       0       0       0       0       0       0       0       0
       0       0       0       0       0       0       0       0       0       0
       0       0       0       0       0       0       0       0       0       0
       0       0       0       0       0       0       0       0       0       0
       0       0       0       0       0       0       0       0       0       0
       0       0       0       0       0       0       0       0       0       0
       0       0       0       0       0       0       0       0       0       0
       0       0       0       0       0       0       0       0       0       0
       0       0       0       0       0       0       0       0       0       0
       0       0       0       0       0       0       0       0       0       0
       0       0       0       0       0       0       0       0       0       0
       0       0       0       0       0       0       0       0       0       0
       0       0       0       0       0       0       0       0       0       0
       0       0       0       0       0       0       0       0       0       0
       0       0       0       0       0       0       0       0       0       0
       0       0       0       0       0       0       0       0       0       0
       0       0       0       0       0       0       0       0       0       0
       0       0       0       0       0       0       0       0       0       0
       0       0       0       0       0       0       0       0       0       0
       0       0       0       0       0       0       0       0       0       0
       0       0       0       0       0       0       0       0       0       0
       0       0       0       0       0       0       0       0       0       0
       0       0       0       0       0       0       0       0       0       0
       0       0       0       0       0       0       0       0       0       0
       0       0       0       0       0       0       0       0       0       0
       0       0       0       0       0       0       0       0       0       0
       0       0       0       0       0       0       0       0       0       0
       0       0       0       0       0       0       0       0       0       0
       0       0       0       0       0       0       0       0       0       0
       0       0       0       0       0       0       0       0       0       0
       0       0       0       0       0       0       0       0       0       0
       0       0       0       0       0       0       0       0       0       0
       0       0       0       0       0       0       0       0       0       0
       0       0       0       0       0       0       0       0       0       0
       0       0       0       0       0       0       0       0       0       0
       0       0       0       0       0       0       0       0       0       0
       0       0       0       0       0       0       0       0       0       0
       0       0       0       0       0       0       0       0       0       0
       0       0       0       0       0       0       0       0       0       0
       0       0       0       0       0       0       0       0       0       0
       0       0       0       0       0       0       0       0       0       0
       0       0       0       0       0       0       0       0       0       0
       0       0       0       0       0       0       0       0       0       0
       0       0       0       0       0       0       0       0       0       0
       0       0       0       0       0       0       0       0       0       0
       0       0       0       0       0       0       0       0       0       0
       0       0       0       0       0       0       0       0       0       0
       0       0       0       0       0       0       0       0       0       0
       0       0       0       0       0       0       0       0       0       0
       0       0       0       0       0       0       0       0       0       0
       0       0       0       0       0       0       0       0       0       0
       0       0       0       0       0       0       0       0       0       0
       0       0       0       0       0       0       0       0       0       0
       0       0       0       0       0       0       0       0       0       0
       0       0       0       0       0       0       0       0       0       0
       0       0       0       0       0       0       0       0       0       0
       0       0       0       0       0       0       0       0       0       0
       0       0       0       0       0       0       0       0       0       0
       0       0       0       0       0       0       0       0       0       0
       0       0       0       0       0       0       0       0       0       0
       0       0       0       0       0       0       0       0       0       0
       0       0       0       0       0       0       0       0       0       0
       0       0       0       0       0       0       0       0       0       0
       0       0       0       0       0       0       0       0       0       0
       0       0       0       0       0       0       0       0       0       0
       0       0       0       0       0       0       0       0       0       0
       0       0       0       0       0       0       0       0       0       0
       0       0       0       0       0       0       0       0       0       0
       0       0       0       0       0       0       0       0       0       0
       0       0       0       0       0       0       0       0       0       0
       0       0       0       0       0       0       0       0       0       0
       0       0       0       0       0       0       0       0       0       0
       0       0       0       0       0       0       0       0       0       0
       0       0       0       0       0       0       0       0       0       0
       0       0       0       0       0       0       0       0       0       0
       0       0       0       0       0       0       0       0       0       0
       0       0       0       0       0       0       0       0       0       0
       0       0       0       0       0       0       0       0       0       0
       0       0       0       0       0       0       0       0       0       0
       0       0       0       0       0       0       0       0       0       0
       0       0       0       0       0       0       0       0       0       0
       0       0       0       0       0       0       0       0       0       0
       0       0       0       0       0       0       0       0       0       0
       0       0       0       0       0       0       0       0       0       0
       0       0       0       0       0       0       0       0       0       0
       0       0       0       0       0       0       0       0       0       0
       0       0       0       0       0       0       0       0       0       0
       0       0       0       0       0       0       0       0       0       0
       0       0       0       0       0       0       0       0       0       0
       0       0       0       0       0       0       0       0       0       0
       0       0       0       0       0       0       0       0       0       0
       0       0       0       0       0       0       0       0       0       0
       0       0       0       0       0       0       0       0       0       0
       0       0       0       0       0       0       0       0       0       0
       0       0       0       0       0       0       0       0       0       0
       0       0       0       0       0       0       0       0       0       0
       0       0       0       0       0       0       0       0       0       0
       0       0       0       0       0       0       0       0       0       0
       0       0       0       0       0       0       0       0       0       0
       0       0       0       0       0       0       0       0       0       0
       0       0       0       0       0       0       0       0       0       0
       0       0       0       0       0       0       0       0       0       0
       0       0       0       0       0       0       0       0       0       0
       0       0       0       0       0       0       0       0       0       0
       0       0       0       0       0       0       0       0       0       0
       0       0       0       0       0       0       0       0       0       0
       0       0       0       0       0       0       0       0       0       0
       0       0       0       0       0       0       0       0       0       0
       0       0       0       0       0       0       0       0       0       0
       0       0       0       0       0       0       0       0       0       0
       0       0       0       0       0       0       0       0       0       0
       0       0       0       0       0       0       0       0       0       0
       0       0       0       0       0       0       0       0       0       0
       0       0       0       0       0       0       0       0       0       0
       0       0       0       0       0       0       0       0       0       0
       0       0       0       0       0       0       0       0       0       0
       0       0       0       0       0       0       0       0       0       0
       0       0       0       0       0       0       0       0       0       0
       0       0       0       0       0       0       0       0       0       0
       0       0       0       0       0       0       0       0       0       0
       0       0       0       0       0       0       0       0       0       0
       0       0       0       0       0       0       0       0       0       0
       0       0       0       0       0       0       0       0       0       0
       0       0       0       0       0       0       0       0       0       0
       0       0       0       0       0       0       0       0       0       0
       0       0       0       0       0       0       0       0       0       0
       0       0       0       0       0       0       0       0       0       0
       0       0       0       0       0       0       0       0       0       0
       0       0       0       0       0       0       0       0       0       0
       0       0       0       0       0       0       0       0       0       0
       0       0       0       0       0       0       0       0       0       0
       0       0       0       0       0       0       0       0       0       0
       0       0       0       0       0       0       0       0       0       0
       0       0       0       0       0       0       0       0       0       0
       0       0       0       0       0       0       0       0       0       0
       0       0       0       0       0       0       0       0       0       0
       0       0       0       0       0       0       0       0       0       0
       0       0       0       0       0       0       0       0       0       0
       0       0       0       0       0       0       0       0       0       0
       0       0       0       0       0       0       0       0       0       0
       0       0       0       0       0       0       0       0       0       0
       0       0       0       0       0       0       0       0       0       0
       0       0       0       0       0       0       0       0       0       0
       0       0       0       0       0       0       0       0       0       0
       0       0       0       0       0       0       0       0       0       0
       0       0       0       0       0       0       0       0       0       0
       0       0       0       0       0       0       0       0       0       0
       0       0       0       0       0       0       0       0       0       0
       0       0       0       0       0       0       0       0       0       0
       0       0       0       0       0       0       0       0       0       0
       0       0       0       0       0       0       0       0       0       0
       0       0       0       0       0       0       0       0       0       0
       0       0       0       0       0       0       0       0       0       0
       0       0       0       0       0       0       0       0       0       0
       0       0       0       0       0       0       0       0       0       0
       0       0       0       0       0       0       0       0       0       0
       0       0       0       0       0       0       0       0       0       0
       0       0       0       0       0       0       0       0       0       0
       0       0       0       0       0       0       0       0       0       0
       0       0       0       0       0       0       0       0       0       0
       0       0       0       0       0       0       0       0       0       0
       0       0       0       0       0       0       0       0       0       0
       0       0       0       0       0       0       0       0       0       0
       0       0       0       0       0       0       0       0       0       0
       0       0       0       0       0       0       0       0       0       0
       0       0       0       0       0       0       0       0       0       0
       0       0       0       0       0       0       0       0       0       0
       0       0       0       0       0       0       0       0       0       0
       0       0       0       0       0       0       0       0       0       0
       0       0       0       0       0       0       0       0       0       0
       0       0       0       0       0       0       0       0       0       0
       0       0       0       0       0       0       0       0       0       0
       0       0       0       0       0       0       0       0       0       0
       0       0       0       0       0       0       0       0       0       0
       0       0       0       0       0       0       0       0       0       0
       0       0       0       0       0       0       0       0       0       0
       0       0       0       0       0       0       0       0       0       0
       0       0       0       0       0       0       0       0       0       0
       0       0       0       0       0       0       0       0       0       0
       0       0       0       0       0       0       0       0       0       0
       0       0       0       0       0       0       0       0       0       0
       0       0       0       0       0       0       0       0       0       0
       0       0       0       0       0       0       0       0       0       0
       0       0       0       0       0       0       0       0       0       0
       0       0       0       0       0       0       0       0       0       0
       0       0       0       0       0       0       0       0       0       0
       0       0       0       0       0       0       0       0       0       0
       0       0       0       0       0       0       0       0       0       0
       0       0       0       0       0       0       0       0       0       0
       0       0       0       0       0       0       0       0       0       0
       0       0       0       0       0       0       0       0       0       0
       0       0       0       0       0       0       0       0       0       0
       0       0       0       0       0       0       0       0       0       0
       0       0       0       0       0       0       0       0       0       0
       0       0       0       0       0       0       0       0       0       0
       0       0       0       0       0       0       0       0       0       0
       0       0       0       0       0       0       0       0       0       0
       0       0       0       0       0       0       0       0       0       0
       0       0       0       0       0       0       0       0       0       0
       0       0       0       0       0       0       0       0       0       0
       0       0       0       0       0       0       0       0       0       0
       0       0       0       0       0       0       0       0       0       0
       0       0       0       0       0       0       0       0       0       0
       0       0       0       0       0       0       0       0       0       0
       0       0       0       0       0       0       0       0       0       0
       0       0       0       0       0       0       0       0       0       0
       0       0       0       0       0       0       0       0       0       0
       0       0       0       0       0       0       0       0       0       0
       0       0       0       0       0       0       0       0       0       0
       0       0       0       0       0       0       0       0       0       0
       0       0       0       0       0       0       0       0       0       0
       0       0       0       0       0       0       0       0       0       0
       0       0       0       0       0       0       0       0       0       0
       0       0       0       0       0       0       0       0       0       0
       0       0       0       0       0       0       0       0       0       0
       0       0       0       0       0       0       0       0       0       0
       0       0       0       0       0       0       0       0       0       0
       0       0       0       0       0       0       0       0       0       0
       0       0       0       0       0       0       0       0       0       0
       0       0       0       0       0       0       0       0       0       0
       0       0       0       0       0       0       0       0       0       0
       0       0       0       0       0       0       0       0       0       0
       0       0       0       0       0       0       0       0       0       0
       0       0       0       0       0       0       0       0       0       0
       0       0       0       0       0       0       0       0       0       0
       0       0       0       0       0       0       0       0       0       0
       0       0       0       0       0       0       0       0       0       0
       0       0       0       0       0       0       0       0       0       0
       0       0       0       0       0       0       0       0       0       0
       0       0       0       0       0       0       0       0       0       0
       0       0       0       0       0       0       0       0       0       0
       0       0       0       0       0       0       0       0       0       0
       0       0       0       0       0       0       0       0       0       0
       0       0       0       0       0       0       0       0       0       0
       0       0       0       0       0       0       0       0       0       0
       0       0       0       0       0       0       0       0       0       0
       0       0       0       0       0       0       0       0       0       0
       0       0       0       0       0       0       0       0       0       0
       0       0       0       0       0       0       0       0       0       0
       0       0       0       0       0       0       0       0       0       0
       0       0       0       0       0       0       0       0       0       0
       0       0       0       0       0       0       0       0       0       0
       0       0       0       0       0       0       0       0       0       0
       0       0       0       0       0       0       0       0       0       0
       0       0       0       0       0       0       0       0       0       0
       0       0       0       0       0       0       0       0       0       0
       0       0       0       0       0       0       0       0       0       0
       0       0       0       0       0       0       0       0       0       0
       0       0       0       0       0       0       0       0       0       0
       0       0       0       0       0       0       0       0       0       0
       0       0       0       0       0       0       0       0       0       0
       0       0       0       0       0       0       0       0       0       0
       0       0       0       0       0       0       0       0       0       0
       0       0       0       0       0       0       0       0       0       0
       0       0       0       0       0       0       0       0       0       0
       0       0       0       0       0       0       0       0       0       0
       0       0       0       0       0       0       0       0       0       0
       0       0       0       0       0       0       0       0       0       0
       0       0       0       0       0       0       0       0       0       0
       0       0       0       0       0       0       0       0       0       0
       0       0       0       0       0       0       0       0       0       0
       0       0       0       0       0       0       0       0       0       0
       0       0       0       0       0       0       0       0       0       0
       0       0       0       0       0       0       0       0       0       0
       0       0       0       0       0       0       0       0       0       0
       0       0       0       0       0       0       0       0       0       0
       0       0       0       0       0       0       0       0       0       0
       0       0       0       0       0       0       0       0       0       0
       0       0       0       0       0       0       0       0       0       0
       0       0       0       0       0       0       0       0       0       0
       0       0       0       0       0       0       0       0       0       0
       0       0       0       0       0       0       0       0       0       0
       0       0       0       0       0       0       0       0       0       0
       0       0       0       0       0       0       0       0       0       0
       0       0       0       0       0       0       0       0       0       0
       0       0       0       0       0       0       0       0       0       0
       0       0       0       0       0       0       0       0       0       0
       0       0       0       0       0       0       0       0       0       0
       0       0       0       0       0       0       0       0       0       0
       0       0       0       0       0       0       0       0       0       0
       0       0       0       0       0       0       0       0       0       0
       0       0       0       0       0       0       0       0       0       0
       0       0       0       0       0       0       0       0       0       0
       0       0       0       0       0       0       0       0       0       0
       0       0       0       0       0       0       0       0       0       0
       0       0       0       0       0       0       0       0       0       0
       0       0       0       0       0       0       0       0       0       0
       0       0       0       0       0       0       0       0       0       0
       0       0       0       0       0       0       0       0       0       0
       0       0       0       0       0       0       0       0       0       0
       0       0       0       0       0       0       0       0       0       0
       0       0       0       0       0       0       0       0       0       0
       0       0       0       0       0       0       0       0       0       0
       0       0       0       0       0       0       0       0       0       0
       0       0       0       0       0       0       0       0       0       0
       0       0       0       0       0       0       0       0       0       0
       0       0       0       0       0       0       0       0       0       0
       0       0       0       0       0       0       0       0       0       0
       0       0       0       0       0       0       0       0       0       0
       0       0       0       0       0       0       0       0       0       0
       0       0       0       0       0       0       0       0       0       0
       0       0       0       0       0       0       0       0       0       0
       0       0       0       0       0       0       0       0       0       0
       0       0       0       0       0       0       0       0       0       0
       0       0       0       0       0       0       0       0       0       0
       0       0       0       0       0       0       0       0       0       0
       0       0       0       0       0       0       0       0       0       0
       0       0       0       0       0       0       0       0       0       0
       0       0       0       0       0       0       0       0       0       0
       0       0       0       0       0       0       0       0       0       0
       0       0       0       0       0       0       0       0       0       0
       0       0       0       0       0       0       0       0       0       0
       0       0       0       0       0       0       0       0       0       0
       0       0       0       0       0       0       0       0       0       0
       0       0       0       0       0       0       0       0       0       0
       0       0       0       0       0       0       0       0       0       0
       0       0       0       0       0       0       0       0       0       0
       0       0       0       0       0       0       0       0       0       0
       0       0       0       0       0       0       0       0       0       0
       0       0       0       0       0       0       0       0       0       0
       0       0       0       0       0       0       0       0       0       0
       0       0       0       0       0       0       0       0       0       0
       0       0       0       0       0       0       0       0       0       0
       0       0       0       0       0       0       0       0       0       0
       0       0       0       0       0       0       0       0       0       0
       0       0       0       0       0       0       0       0       0       0
       0       0       0       0       0       0       0       0       0       0
       0       0       0       0       0       0       0       0       0       0
       0       0       0       0       0       0       0       0       0       0
       0       0       0       0       0       0       0       0       0       0
       0       0       0       0       0       0       0       0       0       0
       0       0       0       0       0       0       0       0       0       0
       0       0       0       0       0       0       0       0       0       0
       0       0       0       0       0       0       0       0       0       0
       0       0       0       0       0       0       0       0       0       0
       0       0       0       0       0       0       0       0       0       0
       0       0       0       0       0       0       0       0       0       0
       0       0       0       0       0       0       0       0       0       0
       0       0       0       0       0       0       0       0       0       0
       0       0       0       0       0       0       0       0       0       0
       0       0       0       0       0       0       0       0       0       0
       0       0       0       0       0       0       0       0       0       0
       0       0       0       0       0       0       0       0       0       0
       0       0       0       0       0       0       0       0       0       0
       0       0       0       0       0       0       0       0       0       0
       0       0       0       0       0       0       0       0       0       0
       0       0       0       0       0       0       0       0       0       0
       0       0       0       0       0       0       0       0       0       0
       0       0       0       0       0       0       0       0       0       0
       0       0       0       0       0       0       0       0       0       0
       0       0       0       0       0       0       0       0       0       0
       0       0       0       0       0       0       0       0       0       0
       0       0       0       0       0       0       0       0       0       0
       0       0       0       0       0       0       0       0       0       0
       0       0       0       0       0       0       0       0       0       0
       0       0       0       0       0       0       0       0       0       0
       0       0       0       0       0       0       0       0       0       0
       0       0       0       0       0       0       0       0       0       0
       0       0       0       0       0       0       0       0       0       0
       0       0       0       0       0       0       0       0       0       0
       0       0       0       0       0       0       0       0       0       0
       0       0       0       0       0       0       0       0       0       0
       0       0       0       0       0       0       0       0       0       0
       0       0       0       0       0       0       0       0       0       0
       0       0       0       0       0       0       0       0       0       0
       0       0       0       0       0       0       0       0       0       0
       0       0       0       0       0       0       0       0       0       0
       0       0       0       0       0       0       0       0       0       0
       0       0       0       0       0       0       0       0       0       0
       0       0       0       0       0       0       0       0       0       0
       0       0       0       0       0       0       0       0       0       0
       0       0       0       0       0       0       0       0       0       0
       0       0       0       0       0       0       0       0       0       0
       0       0       0       0       0       0       0       0       0       0
       0       0       0       0       0       0       0       0       0       0
       0       0       0       0       0       0       0       0       0       0
       0       0       0       0       0       0       0       0       0       0
       0       0       0       0       0       0       0       0       0       0
       0       0       0       0       0       0       0       0       0       0
       0       0       0       0       0       0       0       0       0       0
       0       0       0       0       0       0       0       0       0       0
       0       0       0       0       0       0       0       0       0       0
       0       0       0       0       0       0       0       0       0       0
       0       0       0       0       0       0       0       0       0       0
       0       0       0       0       0       0       0       0       0       0
       0       0       0       0       0       0       0       0       0       0
       0       0       0       0       0       0       0       0       0       0
       0       0       0       0       0       0       0       0       0       0
       0       0       0       0       0       0       0       0       0       0
       0       0       0       0       0       0       0       0       0       0
       0       0       0       0       0       0       0       0       0       0
       0       0       0       0       0       0       0       0       0       0
       0       0       0       0       0       0       0       0       0       0
       0       0       0       0       0       0       0       0       0       0
       0       0       0       0       0       0       0       0       0       0
       0       0       0       0       0       0       0       0       0       0
       0       0       0       0       0       0       0       0       0       0
       0       0       0       0       0       0       0       0       0       0
       0       0       0       0       0       0       0       0       0       0
       0       0       0       0       0       0       0       0       0       0
       0       0       0       0       0       0       0       0       0       0
       0       0       0       0       0       0       0       0       0       0
       0       0       0       0       0       0       0       0       0       0
       0       0       0       0       0       0       0       0       0       0
       0       0       0       0       0       0       0       0       0       0
       0       0       0       0       0       0       0       0       0       0
       0       0       0       0       0       0       0       0       0       0
       0       0       0       0       0       0       0       0       0       0
       0       0       0       0       0       0       0       0       0       0
       0       0       0       0       0       0       0       0       0       0
       0       0       0       0       0       0       0       0       0       0
       0       0       0       0       0       0       0       0       0       0
       0       0       0       0       0       0       0       0       0       0
       0       0       0       0       0       0       0       0       0       0
       0       0       0       0       0       0       0       0       0       0
       0       0       0       0       0       0       0       0       0       0
       0       0       0       0       0       0       0       0       0       0
       0       0       0       0       0       0       0       0       0       0
       0       0       0       0       0       0       0       0       0       0
       0       0       0       0       0       0       0       0       0       0
       0       0       0       0       0       0       0       0       0       0
       0       0       0       0       0       0       0       0       0       0
       0       0       0       0       0       0       0       0       0       0
       0       0       0       0       0       0       0       0       0       0
       0       0       0       0       0       0       0       0       0       0
       0       0       0       0       0       0       0       0       0       0
       0       0       0       0       0       0       0       0       0       0
       0       0       0       0       0       0       0       0       0       0
       0       0       0       0       0       0       0       0       0       0
       0       0       0       0       0       0       0       0       0       0
       0       0       0       0       0       0       0       0       0       0
       0       0       0       0       0       0       0       0       0       0
       0       0       0       0       0       0       0       0       0       0
       0       0       0       0       0       0       0       0       0       0
       0       0       0       0       0       0       0       0       0       0
       0       0       0       0       0       0       0       0       0       0
       0       0       0       0       0       0       0       0       0       0
       0       0       0       0       0       0       0       0       0       0
       0       0       0       0       0       0       0       0       0       0
       0       0       0       0       0       0       0       0       0       0
       0       0       0       0       0       0       0       0       0       0
       0       0       0       0       0       0       0       0       0       0
       0       0       0       0       0       0       0       0       0       0
       0       0       0       0       0       0       0       0       0       0
       0       0       0       0       0       0       0       0       0       0
       0       0       0       0       0       0       0       0       0       0
       0       0       0       0       0       0       0       0       0       0
       0       0       0       0       0       0       0       0       0       0
       0       0       0       0       0       0       0       0       0       0
       0       0       0       0       0       0       0       0       0       0
       0       0       0       0       0       0       0       0       0       0
       0       0       0       0       0       0       0       0       0       0
       0       0       0       0       0       0       0       0       0       0
       0       0       0       0       0       0       0       0       0       0
       0       0       0       0       0       0       0       0       0       0
       0       0       0       0       0       0       0       0       0       0
       0       0       0       0       0       0       0       0       0       0
       0       0       0       0       0       0       0       0       0       0
       0       0       0       0       0       0       0       0       0       0
       0       0       0       0       0       0       0       0       0       0
       0       0       0       0       0       0       0       0       0       0
       0       0       0       0       0       0       0       0       0       0
       0       0       0       0       0       0       0       0       0       0
       0       0       0       0       0       0       0       0       0       0
       0       0       0       0       0       0       0       0       0       0
       0       0       0       0       0       0       0       0       0       0
       0       0       0       0       0       0       0       0       0       0
       0       0       0       0       0       0       0       0       0       0
       0       0       0       0       0       0       0       0       0       0
       0       0       0       0       0       0       0       0       0       0
       0       0       0       0       0       0       0       0       0       0
       0       0       0       0       0       0       0       0       0       0
       0       0       0       0       0       0       0       0       0       0
       0       0       0       0       0       0       0       0       0       0
       0       0       0       0       0       0       0       0       0       0
       0       0       0       0       0       0       0       0       0       0
       0       0       0       0       0       0       0       0       0       0
       0       0       0       0       0       0       0       0       0       0
       0       0       0       0       0       0       0       0       0       0
       0       0       0       0       0       0       0       0       0       0
       0       0       0       0       0       0       0       0       0       0
       0       0       0       0       0       0       0       0       0       0
       0       0       0       0       0       0       0       0       0       0
       0       0       0       0       0       0       0       0       0       0
       0       0       0       0       0       0       0       0       0       0
       0       0       0       0       0       0       0       0       0       0
       0       0       0       0       0       0       0       0       0       0
       0       0       0       0       0       0       0       0       0       0
       0       0       0       0       0       0       0       0       0       0
       0       0       0       0       0       0       0       0       0       0
       0       0       0       0       0       0       0       0       0       0
       0       0       0       0       0       0       0       0       0       0
       0       0       0       0       0       0       0       0       0       0
       0       0       0       0       0       0       0       0       0       0
       0       0       0       0       0       0       0       0       0       0
       0       0       0       0       0       0       0       0       0       0
       0       0       0       0       0       0       0       0       0       0
       0       0       0       0       0       0       0       0       0       0
       0       0       0       0       0       0       0       0       0       0
       0       0       0       0       0       0       0       0       0       0
       0       0       0       0       0       0       0       0       0       0
       0       0       0       0       0       0       0       0       0       0
       0       0       0       0       0       0       0       0       0       0
       0       0       0       0       0       0       0       0       0       0
       0       0       0       0       0       0       0       0       0       0
       0       0       0       0       0       0       0       0       0       0
       0       0       0       0       0       0       0       0       0       0
       0       0       0       0       0       0       0       0       0       0
       0       0       0       0       0       0       0       0       0       0
       0       0       0       0       0       0       0       0       0       0
       0       0       0       0       0       0       0       0       0       0
       0       0       0       0       0       0       0       0       0       0
       0       0       0       0       0       0       0       0       0       0
       0       0       0       0       0       0       0       0       0       0
       0       0       0       0       0       0       0       0       0       0
       0       0       0       0       0       0       0       0       0       0
       0       0       0       0       0       0       0       0       0       0
       0       0       0       0       0       0       0       0       0       0
       0       0       0       0       0       0       0       0       0       0
       0       0       0       0       0       0       0       0       0       0
       0       0       0       0       0       0       0       0       0       0
       0       0       0       0       0       0       0       0       0       0
       0       0       0       0       0       0       0       0       0       0
       0       0       0       0       0       0       0       0       0       0
       0       0       0       0       0       0       0       0       0       0
       0       0       0       0       0       0       0       0       0       0
       0       0       0       0       0       0       0       0       0       0
       0       0       0       0       0       0       0       0       0       0
       0       0       0       0       0       0       0       0       0       0
       0       0       0       0       0       0       0       0       0       0
       0       0       0       0       0       0       0       0       0       0
       0       0       0       0       0       0       0       0       0       0
       0       0       0       0       0       0       0       0       0       0
       0       0       0       0       0       0       0       0       0       0
       0       0       0       0       0       0       0       0       0       0
       0       0       0       0       0       0       0       0       0       0
       0       0       0       0       0       0       0       0       0       0
       0       0       0       0       0       0       0       0       0       0
       0       0       0       0       0       0       0       0       0       0
       0       0       0       0       0       0       0       0       0       0
       0       0       0       0       0       0       0       0       0       0
       0       0       0       0       0       0       0       0       0       0
       0       0       0       0       0       0       0       0       0       0
       0       0       0       0       0       0       0       0       0       0
       0       0       0       0       0       0       0       0       0       0
       0       0       0       0       0       0       0       0       0       0
       0       0       0       0       0       0       0       0       0       0
       0       0       0       0       0       0       0       0       0       0
       0       0       0       0       0       0       0       0       0       0
       0       0       0       0       0       0       0       0       0       0
       0       0       0       0       0       0       0       0       0       0
       0       0       0       0       0       0       0       0       0       0
       0       0       0       0       0       0       0       0       0       0
       0       0       0       0       0       0       0       0       0       0
       0       0       0       0       0       0       0       0       0       0
       0       0       0       0       0       0       0       0       0       0
       0       0       0       0       0       0       0       0       0       0
       0       0       0       0       0       0       0       0       0       0
       0       0       0       0       0       0       0       0       0       0
       0       0       0       0       0       0       0       0       0       0
       0       0       0       0       0       0       0       0       0       0
       0       0       0       0       0       0       0       0       0       0
       0       0       0       0       0       0       0       0       0       0
       0       0       0       0       0       0       0       0       0       0
       0       0       0       0       0       0       0       0       0       0
       0       0       0       0       0       0       0       0       0       0
       0       0       0       0       0       0       0       0       0       0
       0       0       0       0       0       0       0       0       0       0
       0       0       0       0       0       0       0       0       0       0
       0       0       0       0       0       0       0       0       0       0
       0       0       0       0       0       0       0       0       0       0
       0       0       0       0       0       0       0       0       0       0
       0       0       0       0       0       0       0       0       0       0
       0       0       0       0       0       0       0       0       0       0
       0       0       0       0       0       0       0       0       0       0
       0       0       0       0       0       0       0       0       0       0
       0       0       0       0       0       0       0       0       0       0
       0       0       0       0       0       0       0       0       0       0
       0       0       0       0       0       0       0       0       0       0
       0       0       0       0       0       0       0       0       0       0
       0       0       0       0       0       0       0       0       0       0
       0       0       0       0       0       0       0       0       0       0
       0       0       0       0       0       0       0       0       0       0
       0       0       0       0       0       0       0       0       0       0
       0       0       0       0       0       0       0       0       0       0
       0       0       0       0       0       0       0       0       0       0
       0       0       0       0       0       0       0       0       0       0
       0       0       0       0       0       0       0       0       0       0
       0       0       0       0       0       0       0       0       0       0
       0       0       0       0       0       0       0       0       0       0
       0       0       0       0       0       0       0       0       0       0
       0       0       0       0       0       0       0       0       0       0
       0       0       0       0       0       0       0       0       0       0
       0       0       0       0       0       0       0       0       0       0
       0       0       0       0       0       0       0       0       0       0
       0       0       0       0       0       0       0       0       0       0
       0       0       0       0       0       0       0       0       0       0
       0       0       0       0       0       0       0       0       0       0
       0       0       0       0       0       0       0       0       0       0
       0       0       0       0       0       0       0       0       0       0
       0       0       0       0       0       0       0       0       0       0
       0       0       0       0       0       0       0       0       0       0
       0       0       0       0       0       0       0       0       0       0
       0       0       0       0       0       0       0       0       0       0
       0       0       0       0       0       0       0       0       0       0
       0       0       0       0       0       0       0       0       0       0
       0       0       0       0       0       0       0       0       0       0
       0       0       0       0       0       0       0       0       0       0
       0       0       0       0       0       0       0       0       0       0
       0       0       0       0       0       0       0       0       0       0
       0       0       0       0       0       0       0       0       0       0
       0       0       0       0       0       0       0       0       0       0
       0       0       0       0       0       0       0       0       0       0
       0       0       0       0       0       0       0       0       0       0
       0       0       0       0       0       0       0       0       0       0
       0       0       0       0       0       0       0       0       0       0
       0       0       0       0       0       0       0       0       0       0
       0       0       0       0       0       0       0       0       0       0
       0       0       0       0       0       0       0       0       0       0
       0       0       0       0       0       0       0       0       0       0
       0       0       0       0       0       0       0       0       0       0
       0       0       0       0       0       0       0       0       0       0
       0       0       0       0       0       0       0       0       0       0
       0       0       0       0       0       0       0       0       0       0
       0       0       0       0       0       0       0       0       0       0
       0       0       0       0       0       0       0       0       0       0
       0       0       0       0       0       0       0       0       0       0
       0       0       0       0       0       0       0       0       0       0
       0       0       0       0       0       0       0       0       0       0
       0       0       0       0       0       0       0       0       0       0
       0       0       0       0       0       0       0       0       0       0
       0       0       0       0       0       0       0       0       0       0
       0       0       0       0       0       0       0       0       0       0
       0       0       0       0       0       0       0       0       0       0
       0       0       0       0       0       0       0       0       0       0
       0       0       0       0       0       0       0       0       0       0
       0       0       0       0       0       0       0       0       0       0
       0       0       0       0       0       0       0       0       0       0
       0       0       0       0       0       0       0       0       0       0
       0       0       0       0       0       0       0       0       0       0
       0       0       0       0       0       0       0       0       0       0
       0       0       0       0       0       0       0       0       0       0
       0       0       0       0       0       0       0       0       0       0
       0       0       0       0       0       0       0       0       0       0
       0       0       0       0       0       0       0       0       0       0
       0       0       0       0       0       0       0       0       0       0
       0       0       0       0       0       0       0       0       0       0
       0       0       0       0       0       0       0       0       0       0
       0       0       0       0       0       0       0       0       0       0
       0       0       0       0       0       0       0       0       0       0
       0       0       0       0       0       0       0       0       0       0
       0       0       0       0       0       0       0       0       0       0
       0       0       0       0       0       0       0       0       0       0
       0       0       0       0       0       0       0       0       0       0
       0       0       0       0       0       0       0       0       0       0
       0       0       0       0       0       0       0       0       0       0
       0       0       0       0       0       0       0       0       0       0
       0       0       0       0       0       0       0       0       0       0
       0       0       0       0       0       0       0       0       0       0
       0       0       0       0       0       0       0       0       0       0
       0       0       0       0       0       0       0       0       0       0
       0       0       0       0       0       0       0       0       0       0
       0       0       0       0       0       0       0       0       0       0
       0       0       0       0       0       0       0       0       0       0
       0       0       0       0       0       0       0       0       0       0
       0       0       0       0       0       0       0       0       0       0
       0       0       0       0       0       0       0       0       0       0
       0       0       0       0       0       0       0       0       0       0
       0       0       0       0       0       0       0       0       0       0
       0       0       0       0       0       0       0       0       0       0
       0       0       0       0       0       0       0       0       0       0
       0       0       0       0       0       0       0       0       0       0
       0       0       0       0       0       0       0       0       0       0
       0       0       0       0       0       0       0       0       0       0
       0       0       0       0       0       0       0       0       0       0
       0       0       0       0       0       0       0       0       0       0
       0       0       0       0       0       0       0       0       0       0
       0       0       0       0       0       0       0       0       0       0
       0       0       0       0       0       0       0       0       0       0
       0       0       0       0       0       0       0       0       0       0
       0       0       0       0       0       0       0       0       0       0
       0       0       0       0       0       0       0       0       0       0
       0       0       0       0       0       0       0       0       0       0
       0       0       0       0       0       0       0       0       0       0
       0       0       0       0       0       0       0       0       0       0
       0       0       0       0       0       0       0       0       0       0
       0       0       0       0       0       0       0       0       0       0
       0       0       0       0       0       0       0       0       0       0
       0       0       0       0       0       0       0       0       0       0
       0       0       0       0       0       0       0       0       0       0
       0       0       0       0       0       0       0       0       0       0
       0       0       0       0       0       0       0       0       0       0
       0       0       0       0       0       0       0       0       0       0
       0       0       0       0       0       0       0       0       0       0
       0       0       0       0       0       0       0       0       0       0
       0       0       0       0       0       0       0       0       0       0
       0       0       0       0       0       0       0       0       0       0
       0       0       0       0       0       0       0       0       0       0
       0       0       0       0       0       0       0       0       0       0
       0       0       0       0       0       0       0       0       0       0
       0       0       0       0       0       0       0       0       0       0
       0       0       0       0       0       0       0       0       0       0
       0       0       0       0       0       0       0       0       0       0
       0       0       0       0       0       0       0       0       0       0
       0       0       0       0       0       0       0       0       0       0
       0       0       0       0       0       0       0       0       0       0
       0       0       0       0       0       0       0       0       0       0
       0       0       0       0       0       0       0       0       0       0
       0       0       0       0       0       0       0       0       0       0
       0       0       0       0       0       0       0       0       0       0
       0       0       0       0       0       0       0       0       0       0
       0       0       0       0       0       0       0       0       0       0
       0       0       0       0       0       0       0       0       0       0
       0       0       0       0       0       0       0       0       0       0
       0       0       0       0       0       0       0       0       0       0
       0       0       0       0       0       0       0       0       0       0
       0       0       0       0       0       0       0       0       0       0
       0       0       0       0       0       0       0       0       0       0
       0       0       0       0       0       0       0       0       0       0
       0       0       0       0       0       0       0       0       0       0
       0       0       0       0       0       0       0       0       0       0
       0       0       0       0       0       0       0       0       0       0
       0       0       0       0       0       0       0       0       0       0
       0       0       0       0       0       0       0       0       0       0
       0       0       0       0       0       0       0       0       0       0
       0       0       0       0       0       0       0       0       0       0
       0       0       0       0       0       0       0       0       0       0
       0       0       0       0       0       0       0       0       0       0
       0       0       0       0       0       0       0       0       0       0
       0       0       0       0       0       0       0       0       0       0
       0       0       0       0       0       0       0       0       0       0
       0       0       0       0       0       0       0       0       0       0
       0       0       0       0       0       0       0       0       0       0
       0       0       0       0       0       0       0       0       0       0
       0       0       0       0       0       0       0       0       0       0
       0       0       0       0       0       0       0       0       0       0
       0       0       0       0       0       0       0       0       0       0
       0       0       0       0       0       0       0       0       0       0
       0       0       0       0       0       0       0       0       0       0
       0       0       0       0       0       0       0       0       0       0
       0       0       0       0       0       0       0       0       0       0
       0       0       0       0       0       0       0       0       0       0
       0       0       0       0       0       0       0       0       0       0
       0       0       0       0       0       0       0       0       0       0
       0       0       0       0       0       0       0       0       0       0
       0       0       0       0       0       0       0       0       0       0
       0       0       0       0       0       0       0       0       0       0
       0       0       0       0       0       0       0       0       0       0
       0       0       0       0       0       0       0       0       0       0
       0       0       0       0       0       0       0       0       0       0
       0       0       0       0       0       0       0       0       0       0
       0       0       0       0       0       0       0       0       0       0
       0       0       0       0       0       0       0       0       0       0
       0       0       0       0       0       0       0       0       0       0
       0       0       0       0       0       0       0       0       0       0
       0       0       0       0       0       0       0       0       0       0
       0       0       0       0       0       0       0       0       0       0
       0       0       0       0       0       0       0       0       0       0
       0       0       0       0       0       0       0       0       0       0
       0       0       0       0       0       0       0       0       0       0
       0       0       0       0       0       0       0       0       0       0
       0       0       0       0       0       0       0       0       0       0
       0       0       0       0       0       0       0       0       0       0
       0       0       0       0       0       0       0       0       0       0
       0       0       0       0       0       0       0       0       0       0
       0       0       0       0       0       0       0       0       0       0
       0       0       0       0       0       0       0       0       0       0
       0       0       0       0       0       0       0       0       0       0
       0       0       0       0       0       0       0       0       0       0
       0       0       0       0       0       0       0       0       0       0
       0       0       0       0       0       0       0       0       0       0
       0       0       0       0       0       0       0       0       0       0
       0       0       0       0       0       0       0       0       0       0
       0       0       0       0       0       0       0       0       0       0
       0       0       0       0       0       0       0       0       0       0
       0       0       0       0       0       0       0       0       0       0
       0       0       0       0       0       0       0       0       0       0
       0       0       0       0       0       0       0       0       0       0
       0       0       0       0       0       0       0       0       0       0
       0       0       0       0       0       0       0       0       0       0
       0       0       0       0       0       0       0       0       0       0
       0       0       0       0       0       0       0       0       0       0
       0       0       0       0       0       0       0       0       0       0
       0       0       0       0       0       0       0       0       0       0
       0       0       0       0       0       0       0       0       0       0
       0       0       0       0       0       0       0       0       0       0
       0       0       0       0       0       0       0       0       0       0
       0       0       0       0       0       0       0       0       0       0
       0       0       0       0       0       0       0       0       0       0
       0       0       0       0       0       0       0       0       0       0
       0       0       0       0       0       0       0       0       0       0
       0       0       0       0       0       0       0       0       0       0
       0       0       0       0       0       0       0       0       0       0
       0       0       0       0       0       0       0       0       0       0
       0       0       0       0       0       0       0       0       0       0
       0       0       0       0       0       0       0       0       0       0
       0       0       0       0       0       0       0       0       0       0
       0       0       0       0       0       0       0       0       0       0
       0       0       0       0       0       0       0       0       0       0
       0       0       0       0       0       0       0       0       0       0
       0       0       0       0       0       0       0       0       0       0
       0       0       0       0       0       0       0       0       0       0
       0       0       0       0       0       0       0       0       0       0
       0       0       0       0       0       0       0       0       0       0
       0       0       0       0       0       0       0       0       0       0
       0       0       0       0       0       0       0       0       0       0
       0       0       0       0       0       0       0       0       0       0
       0       0       0       0       0       0       0       0       0       0
       0       0       0       0       0       0       0       0       0       0
       0       0       0       0       0       0       0       0       0       0
       0       0       0       0       0       0       0       0       0       0
       0       0       0       0       0       0       0       0       0       0
       0       0       0       0       0       0       0       0       0       0
       0       0       0       0       0       0       0       0       0       0
       0       0       0       0       0       0       0       0       0       0
       0       0       0       0       0       0       0       0       0       0
       0       0       0       0       0       0       0       0       0       0
       0       0       0       0       0       0       0       0       0       0
       0       0       0       0       0       0       0       0       0       0
       0       0       0       0       0       0       0       0       0       0
       0       0       0       0       0       0       0       0       0       0
       0       0       0       0       0       0       0       0       0       0
       0       0       0       0       0       0       0       0       0       0
       0       0       0       0       0       0       0       0       0       0
       0       0       0       0       0       0       0       0       0       0
       0       0       0       0       0       0       0       0       0       0
       0       0       0       0       0       0       0       0       0       0
       0       0       0       0       0       0       0       0       0       0
       0       0       0       0       0       0       0       0       0       0
       0       0       0       0       0       0       0       0       0       0
       0       0       0       0       0       0       0       0       0       0
       0       0       0       0       0       0       0       0       0       0
       0       0       0       0       0       0       0       0       0       0
       0       0       0       0       0       0       0       0       0       0
       0       0       0       0       0       0       0       0       0       0
       0       0       0       0       0       0       0       0       0       0
       0       0       0       0       0       0       0       0       0       0
       0       0       0       0       0       0       0       0       0       0
       0       0       0       0       0       0       0       0       0       0
       0       0       0       0       0       0       0       0       0       0
       0       0       0       0       0       0       0       0       0       0
       0       0       0       0       0       0       0       0       0       0
       0       0       0       0       0       0       0       0       0       0
       0       0       0       0       0       0       0       0       0       0
       0       0       0       0       0       0       0       0       0       0
       0       0       0       0       0       0       0       0       0       0
       0       0       0       0       0       0       0       0       0       0
       0       0       0       0       0       0       0       0       0       0
       0       0       0       0       0       0       0       0       0       0
       0       0       0       0       0       0       0       0       0       0
       0       0       0       0       0       0       0       0       0       0
       0       0       0       0       0       0       0       0       0       0
       0       0       0       0       0       0       0       0       0       0
       0       0       0       0       0       0       0       0       0       0
       0       0       0       0       0       0       0       0       0       0
       0       0       0       0       0       0       0       0       0       0
       0       0       0       0       0       0       0       0       0       0
       0       0       0       0       0       0       0       0       0       0
       0       0       0       0       0       0       0       0       0       0
       0       0       0       0       0       0       0       0       0       0
       0       0       0       0       0       0       0       0       0       0
       0       0       0       0       0       0       0       0       0       0
       0       0       0       0       0       0       0       0       0       0
       0       0       0       0       0       0       0       0       0       0
       0       0       0       0       0       0       0       0       0       0
       0       0       0       0       0       0       0       0       0       0
       0       0       0       0       0       0       0       0       0       0
       0       0       0       0       0       0       0       0       0       0
       0       0       0       0       0       0       0       0       0       0
       0       0       0       0       0       0       0       0       0       0
       0       0       0       0       0       0       0       0       0       0
       0       0       0       0       0       0       0       0       0       0
       0       0       0       0       0       0       0       0       0       0
       0       0       0       0       0       0       0       0       0       0
       0       0       0       0       0       0       0       0       0       0
       0       0       0       0       0       0       0       0       0       0
       0       0       0       0       0       0       0       0       0       0
       0       0       0       0       0       0       0       0       0       0
       0       0       0       0       0       0       0       0       0       0
       0       0       0       0       0       0       0       0       0       0
       0       0       0       0       0       0       0       0       0       0
       0       0       0       0       0       0       0       0       0       0
       0       0       0       0       0       0       0       0       0       0
       0       0       0       0       0       0       0       0       0       0
       0       0       0       0       0       0       0       0       0       0
       0       0       0       0       0       0       0       0       0       0
       0       0       0       0       0       0       0       0       0       0
       0       0       0       0       0       0       0       0       0       0
       0       0       0       0       0       0       0       0       0       0
       0       0       0       0       0       0       0       0       0       0
       0       0       0       0       0       0       0       0       0       0
       0       0       0       0       0       0       0       0       0       0
       0       0       0       0       0       0       0       0       0       0
       0       0       0       0       0       0       0       0       0       0
       0       0       0       0       0       0       0       0       0       0
       0       0       0       0       0       0       0       0       0       0
       0       0       0       0       0       0       0       0       0       0
       0       0       0       0       0       0       0       0       0       0
       0       0       0       0       0       0       0       0       0       0
       0       0       0       0       0       0       0       0       0       0
       0       0       0       0       0       0       0       0       0       0
       0       0       0       0       0       0       0       0       0       0
       0       0       0       0       0       0       0       0       0       0
       0       0       0       0       0       0       0       0       0       0
       0       0       0       0       0       0       0       0       0       0
       0       0       0       0       0       0       0       0       0       0
       0       0       0       0       0       0       0       0       0       0
       0       0       0       0       0       0       0       0       0       0
       0       0       0       0       0       0       0       0       0       0
       0       0       0       0       0       0       0       0       0       0
       0       0       0       0       0       0       0       0       0       0
       0       0       0       0       0       0       0       0       0       0
       0       0       0       0       0       0       0       0       0       0
       0       0       0       0       0       0       0       0       0       0
       0       0       0       0       0       0       0       0       0       0
       0       0       0       0       0       0       0       0       0       0
       0       0       0       0       0       0       0       0       0       0
       0       0       0       0       0       0       0       0       0       0
       0       0       0       0       0       0       0       0       0       0
       0       0       0       0       0       0       0       0       0       0
       0       0       0       0       0       0       0       0       0       0
       0       0       0       0       0       0       0       0       0       0
       0       0       0       0       0       0       0       0       0       0
       0       0       0       0       0       0       0       0       0       0
       0       0       0       0       0       0       0       0       0       0
       0       0       0       0       0       0       0       0       0       0
       0       0       0       0       0       0       0       0       0       0
       0       0       0       0       0       0       0       0       0       0
       0       0       0       0       0       0       0       0       0       0
       0       0       0       0       0       0       0       0       0       0
       0       0       0       0       0       0       0       0       0       0
       0       0       0       0       0       0       0       0       0       0
       0       0       0       0       0       0       0       0       0       0
       0       0       0       0       0       0       0       0       0       0
       0       0       0       0       0       0       0       0       0       0
       0       0       0       0       0       0       0       0       0       0
       0       0       0       0       0       0       0       0       0       0
       0       0       0       0       0       0       0       0       0       0
       0       0       0       0       0       0       0       0       0       0
       0       0       0       0       0       0       0       0       0       0
       0       0       0       0       0       0       0       0       0       0
       0       0       0       0       0       0       0       0       0       0
       0       0       0       0       0       0       0       0       0       0
       0       0       0       0       0       0       0       0       0       0
       0       0       0       0       0       0       0       0       0       0
       0       0       0       0       0       0       0       0       0       0
       0       0       0       0       0       0       0       0       0       0
       0       0       0       0       0       0       0       0       0       0
       0       0       0       0       0       0       0       0       0       0
       0       0       0       0       0       0       0       0       0       0
       0       0       0       0       0       0       0       0       0       0
       0       0       0       0       0       0       0       0       0       0
       0       0       0       0       0       0       0       0       0       0
       0       0       0       0       0       0       0       0       0       0
       0       0       0       0       0       0       0       0       0       0
       0       0       0       0       0       0       0       0       0       0
       0       0       0       0       0       0       0       0       0       0
       0       0       0       0       0       0       0       0       0       0
       0       0       0       0       0       0       0       0       0       0
       0       0       0       0       0       0       0       0       0       0
       0       0       0       0       0       0       0       0       0       0
       0       0       0       0       0       0       0       0       0       0
       0       0       0       0       0       0       0       0       0       0
       0       0       0       0       0       0       0       0       0       0
       0       0       0       0       0       0       0       0       0       0
       0       0       0       0       0       0       0       0       0       0
       0       0       0       0       0       0       0       0       0       0
       0       0       0       0       0       0       0       0       0       0
       0       0       0       0       0       0       0       0       0       0
       0       0       0       0       0       0       0       0       0       0
       0       0       0       0       0       0       0       0       0       0
       0       0       0       0       0       0       0       0       0       0
       0       0       0       0       0       0       0       0       0       0
       0       0       0       0       0       0       0       0       0       0
       0       0       0       0       0       0       0       0       0       0
       0       0       0       0       0       0       0       0       0       0
       0       0       0       0       0       0       0       0       0       0
       0       0       0       0       0       0       0       0       0       0
       0       0       0       0       0       0       0       0       0       0
       0       0       0       0       0       0       0       0       0       0
       0       0       0       0       0       0       0       0       0       0
       0       0       0       0       0       0       0       0       0       0
       0       0       0       0       0       0       0       0       0       0
       0       0       0       0       0       0       0       0       0       0
       0       0       0       0       0       0       0       0       0       0
       0       0       0       0       0       0       0       0       0       0
       0       0       0       0       0       0       0       0       0       0
       0       0       0       0       0       0       0       0       0       0
       0       0       0       0       0       0       0       0       0       0
       0       0       0       0       0       0       0       0       0       0
       0       0       0       0       0       0       0       0       0       0
       0       0       0       0       0       0       0       0       0       0
       0       0       0       0       0       0       0       0       0       0
       0       0       0       0       0       0       0       0       0       0
       0       0       0       0       0       0       0       0       0       0
       0       0       0       0       0       0       0       0       0       0
       0       0       0       0       0       0       0       0       0       0
       0       0       0       0       0       0       0       0       0       0
       0       0       0       0       0       0       0       0       0       0
       0       0       0       0       0       0       0       0       0       0
       0       0       0       0       0       0       0       0       0       0
       0       0       0       0       0       0       0       0       0       0
       0       0       0       0       0       0       0       0       0       0
       0       0       0       0       0       0       0       0       0       0
       0       0       0       0       0       0       0       0       0       0
       0       0       0       0       0       0       0       0       0       0
       0       0       0       0       0       0       0       0       0       0
       0       0       0       0       0       0       0       0       0       0
       0       0       0       0       0       0       0       0       0       0
       0       0       0       0       0       0       0       0       0       0
       0       0       0       0       0       0       0       0       0       0
       0       0       0       0       0       0       0       0       0       0
       0       0       0       0       0       0       0       0       0       0
       0       0       0       0       0       0       0       0       0       0
       0       0       0       0       0       0       0       0       0       0
       0       0       0       0       0       0       0       0       0       0
       0       0       0       0       0       0       0       0       0       0
       0       0       0       0       0       0       0       0       0       0
       0       0       0       0       0       0       0       0       0       0
       0       0       0       0       0       0       0       0       0       0
       0       0       0       0       0       0       0       0       0       0
       0       0       0       0       0       0       0       0       0       0
       0       0       0       0       0       0       0       0       0       0
       0       0       0       0       0       0       0       0       0       0
       0       0       0       0       0       0       0       0       0       0
       0       0       0       0       0       0       0       0       0       0
       0       0       0       0       0       0       0       0       0       0
       0       0       0       0       0       0       0       0       0       0
       0       0       0       0       0       0       0       0       0       0
       0       0       0       0       0       0       0       0       0       0
       0       0       0       0       0       0       0       0       0       0
       0       0       0       0       0       0       0       0       0       0
       0       0       0       0       0       0       0       0       0       0
       0       0       0       0       0       0       0       0       0       0
       0       0       0       0       0       0       0       0       0       0
       0       0       0       0       0       0       0       0       0       0
       0       0       0       0       0       0       0       0       0       0
       0       0       0       0       0       0       0       0       0       0
       0       0       0       0       0       0       0       0       0       0
       0       0       0       0       0       0       0       0       0       0
       0       0       0       0       0       0       0       0       0       0
       0       0       0       0       0       0       0       0       0       0
       0       0       0       0       0       0       0       0       0       0
       0       0       0       0       0       0       0       0       0       0
       0       0       0       0       0       0       0       0       0       0
       0       0       0       0       0       0       0       0       0       0
       0       0       0       0       0       0       0       0       0       0
       0       0       0       0       0       0       0       0       0       0
       0       0       0       0       0       0       0       0       0       0
       0       0       0       0       0       0       0       0       0       0
       0       0       0       0       0       0       0       0       0       0
       0       0       0       0       0       0       0       0       0       0
       0       0       0       0       0       0       0       0       0       0
       0       0       0       0       0       0       0       0       0       0
       0       0       0       0       0       0       0       0       0       0
       0       0       0       0       0       0       0       0       0       0
       0       0       0       0       0       0       0       0       0       0
       0       0       0       0       0       0       0       0       0       0
       0       0       0       0       0       0       0       0       0       0
       0       0       0       0       0       0       0       0       0       0
       0       0       0       0       0       0       0       0       0       0
       0       0       0       0       0       0       0       0       0       0
       0       0       0       0       0       0       0       0       0       0
       0       0       0       0       0       0       0       0       0       0
       0       0       0       0       0       0       0       0       0       0
       0       0       0       0       0       0       0       0       0       0
       0       0       0       0       0       0       0       0       0       0
       0       0       0       0       0       0       0       0       0       0
       0       0       0       0       0       0       0       0       0       0
       0       0       0       0       0       0       0       0       0       0
       0       0       0       0       0       0       0       0       0       0
       0       0       0       0       0       0       0       0       0       0
       0       0       0       0       0       0       0       0       0       0
       0       0       0       0       0       0       0       0       0       0
       0       0       0       0       0       0       0       0       0       0
       0       0       0       0       0       0       0       0       0       0
       0       0       0       0       0       0       0       0       0       0
       0       0       0       0       0       0       0       0       0       0
       0       0       0       0       0       0       0       0       0       0
       0       0       0       0       0       0       0       0       0       0
       0       0       0       0       0       0       0       0       0       0
       0       0       0       0       0       0       0       0       0       0
       0       0       0       0       0       0       0       0       0       0
       0       0       0       0       0       0       0       0       0       0
       0       0       0       0       0       0       0       0       0       0
       0       0       0       0       0       0       0       0       0       0
       0       0       0       0       0       0       0       0       0       0
       0       0       0       0       0       0       0       0       0       0
       0       0       0       0       0       0       0       0       0       0
       0       0       0       0       0       0       0       0       0       0
       0       0       0       0       0       0       0       0       0       0
       0       0       0       0       0       0       0       0       0       0
       0       0       0       0       0       0       0       0       0       0
       0       0       0       0       0       0       0       0       0       0
       0       0       0       0       0       0       0       0       0       0
       0       0       0       0       0       0       0       0       0       0
       0       0       0       0       0       0       0       0       0       0
       0       0       0       0       0       0       0       0       0       0
       0       0       0       0       0       0       0       0       0       0
       0       0       0       0       0       0       0       0       0       0
       0       0       0       0       0       0       0       0       0       0
       0       0       0       0       0       0       0       0       0       0
       0       0       0       0       0       0       0       0       0       0
       0       0       0       0       0       0       0       0       0       0
       0       0       0       0       0       0       0       0       0       0
       0       0       0       0       0       0       0       0       0       0
       0       0       0       0       0       0       0       0       0       0
       0       0       0       0       0       0       0       0       0       0
       0       0       0       0       0       0       0       0       0       0
       0       0       0       0       0       0       0       0       0       0
       0       0       0       0       0       0       0       0       0       0
       0       0       0       0       0       0       0       0       0       0
       0       0       0       0       0       0       0       0       0       0
       0       0       0       0       0       0       0       0       0       0
       0       0       0       0       0       0       0       0       0       0
       0       0       0       0       0       0       0       0       0       0
       0       0       0       0       0       0       0       0       0       0
       0       0       0       0       0       0       0       0       0       0
       0       0       0       0       0       0       0       0       0       0
       0       0       0       0       0       0       0       0       0       0
       0       0       0       0       0       0       0       0       0       0
       0       0       0       0       0       0       0       0       0       0
       0       0       0       0       0       0       0       0       0       0
       0       0       0       0       0       0       0       0       0       0
       0       0       0       0       0       0       0       0       0       0
       0       0       0       0       0       0       0       0       0       0
       0       0       0       0       0       0       0       0       0       0
       0       0       0       0       0       0       0       0       0       0
       0       0       0       0       0       0       0       0       0       0
       0       0       0       0       0       0       0       0       0       0
       0       0       0       0       0       0       0       0       0       0
       0       0       0       0       0       0       0       0       0       0
       0       0       0       0       0       0       0       0       0       0
       0       0       0       0       0       0       0       0       0       0
       0       0       0       0       0       0       0       0       0       0
       0       0       0       0       0       0       0       0       0       0
       0       0       0       0       0       0       0       0       0       0
       0       0       0       0       0       0       0       0       0       0
       0       0       0       0       0       0       0       0       0       0
       0       0       0       0       0       0       0       0       0       0
       0       0       0       0       0       0       0       0       0       0
       0       0       0       0       0       0       0       0       0       0
       0       0       0       0       0       0       0       0       0       0
       0       0       0       0       0       0       0       0       0       0
       0       0       0       0       0       0       0       0       0       0
       0       0       0       0       0       0       0       0       0       0
       0       0       0       0       0       0       0       0       0       0
       0       0       0       0       0       0       0       0       0       0
       0       0       0       0       0       0       0       0       0       0
       0       0       0       0       0       0       0       0       0       0
       0       0       0       0       0       0       0       0       0       0
       0       0       0       0       0       0       0       0       0       0
       0       0       0       0       0       0       0       0       0       0
       0       0       0       0       0       0       0       0       0       0
       0       0       0       0       0       0       0       0       0       0
       0       0       0       0       0       0       0       0       0       0
       0       0       0       0       0       0       0       0       0       0
       0       0       0       0       0       0       0       0       0       0
       0       0       0       0       0       0       0       0       0       0
       0       0       0       0       0       0       0       0       0       0
       0       0       0       0       0       0       0       0       0       0
       0       0       0       0       0       0       0       0       0       0
       0       0       0       0       0       0       0       0       0       0
       0       0       0       0       0       0       0       0       0       0
       0       0       0       0       0       0       0       0       0       0
       0       0       0       0       0       0       0       0       0       0
       0       0       0       0       0       0       0       0       0       0
       0       0       0       0       0       0       0       0       0       0
       0       0       0       0       0       0       0       0       0       0
       0       0       0       0       0       0       0       0       0       0
       0       0       0       0       0       0       0       0       0       0
       0       0       0       0       0       0       0       0       0       0
       0       0       0       0       0       0       0       0       0       0
       0       0       0       0       0       0       0       0       0       0
       0       0       0       0       0       0       0       0       0       0
       0       0       0       0       0       0       0       0       0       0
       0       0       0       0       0       0       0       0       0       0
       0       0       0       0       0       0       0       0       0       0
       0       0       0       0       0       0       0       0       0       0
       0       0       0       0       0       0       0       0       0       0
       0       0       0       0       0       0       0       0       0       0
       0       0       0       0       0       0       0       0       0       0
       0       0       0       0       0       0       0       0       0       0
       0       0       0       0       0       0       0       0       0       0
       0       0       0       0       0       0       0       0       0       0
       0       0       0       0       0       0       0       0       0       0
       0       0       0       0       0       0       0       0       0       0
       0       0       0       0       0       0       0       0       0       0
       0       0       0       0       0       0       0       0       0       0
       0       0       0       0       0       0       0       0       0       0
       0       0       0       0       0       0       0       0       0       0
       0       0       0       0       0       0       0       0       0       0
       0       0       0       0       0       0       0       0       0       0
       0       0       0       0       0       0       0       0       0       0
       0       0       0       0       0       0       0       0       0       0
       0       0       0       0       0       0       0       0       0       0
       0       0       0       0       0       0       0       0       0       0
       0       0       0       0       0       0       0       0       0       0
       0       0       0       0       0       0       0       0       0       0
       0       0       0       0       0       0       0       0       0       0
       0       0       0       0       0       0       0       0       0       0
       0       0       0       0       0       0       0       0       0       0
       0       0       0       0       0       0       0       0       0       0
       0       0       0       0       0       0       0       0       0       0
       0       0       0       0       0       0       0       0       0       0
       0       0       0       0       0       0       0       0       0       0
       0       0       0       0       0       0       0       0       0       0
       0       0       0       0       0       0       0       0       0       0
       0       0       0       0       0       0       0       0       0       0
       0       0       0       0       0       0       0       0       0       0
       0       0       0       0       0       0       0       0       0       0
       0       0       0       0       0       0       0       0       0       0
       0       0       0       0       0       0       0       0       0       0
       0       0       0       0       0       0       0       0       0       0
       0       0       0       0       0       0       0       0       0       0
       0       0       0       0       0       0       0       0       0       0
       0       0       0       0       0       0       0       0       0       0
       0       0       0       0       0       0       0       0       0       0
       0       0       0       0       0       0       0       0       0       0
       0       0       0       0       0       0       0       0       0       0
       0       0       0       0       0       0       0       0       0       0
       0       0       0       0       0       0       0       0       0       0
       0       0       0       0       0       0       0       0       0       0
       0       0       0       0       0       0       0       0       0       0
       0       0       0       0       0       0       0       0       0       0
       0       0       0       0       0       0       0       0       0       0
       0       0       0       0       0       0       0       0       0       0
       0       0       0       0       0       0       0       0       0       0
       0       0       0       0       0       0       0       0       0       0
       0       0       0       0       0       0       0       0       0       0
       0       0       0       0       0       0       0       0       0       0
       0       0       0       0       0       0       0       0       0       0
       0       0       0       0       0       0       0       0       0       0
       0       0       0       0       0       0       0       0       0       0
       0       0       0       0       0       0       0       0       0       0
       0       0       0       0       0       0       0       0       0       0
       0       0       0       0       0       0       0       0       0       0
       0       0       0       0       0       0       0       0       0       0
       0       0       0       0       0       0       0       0       0       0
       0       0       0       0       0       0       0       0       0       0
       0       0       0       0       0       0       0       0       0       0
       0       0       0       0       0       0       0       0       0       0
       0       0       0       0       0       0       0       0       0       0
       0       0       0       0       0       0       0       0       0       0
       0       0       0       0       0       0       0       0       0       0
       0       0       0       0       0       0       0       0       0       0
       0       0       0       0       0       0       0       0       0       0
       0       0       0       0       0       0       0       0       0       0
       0       0       0       0       0       0       0       0       0       0
       0       0       0       0       0       0       0       0       0       0
       0       0       0       0       0       0       0       0       0       0
       0       0       0       0       0       0       0       0       0       0
       0       0       0       0       0       0       0       0       0       0
       0       0       0       0       0       0       0       0       0       0
       0       0       0       0       0       0       0       0       0       0
       0       0       0       0       0       0       0       0       0       0
       0       0       0       0       0       0       0       0       0       0
       0       0       0       0       0       0       0       0       0       0
       0       0       0       0       0       0       0       0       0       0
       0       0       0       0       0       0       0       0       0       0
       0       0       0       0       0       0       0       0       0       0
       0       0       0       0       0       0       0       0       0       0
       0       0       0       0       0       0       0       0       0       0
       0       0       0       0       0       0       0       0       0       0
       0       0       0       0       0       0       0       0       0       0
       0       0       0       0       0       0       0       0       0       0
       0       0       0       0       0       0       0       0       0       0
       0       0       0       0       0       0       0       0       0       0
       0       0       0       0       0       0       0       0       0       0
       0       0       0       0       0       0       0       0       0       0
       0       0       0       0       0       0       0       0       0       0
       0       0       0       0       0       0       0       0       0       0
       0       0       0       0       0       0       0       0       0       0
       0       0       0       0       0       0       0       0       0       0
       0       0       0       0       0       0       0       0       0       0
       0       0       0       0       0       0       0       0       0       0
       0       0       0       0       0       0       0       0       0       0
       0       0       0       0       0       0       0       0       0       0
       0       0       0       0       0       0       0       0       0       0
       0       0       0       0       0       0       0       0       0       0
       0       0       0       0       0       0       0       0       0       0
       0       0       0       0       0       0       0       0       0       0
       0       0       0       0       0       0       0       0       0       0
       0       0       0       0       0       0       0       0       0       0
       0       0       0       0       0       0       0       0       0       0
       0       0       0       0       0       0       0       0       0       0
       0       0       0       0       0       0       0       0       0       0
       0       0       0       0       0       0       0       0       0       0
       0       0       0       0       0       0       0       0       0       0
       0       0       0       0       0       0       0       0       0       0
       0       0       0       0       0       0       0       0       0       0
       0       0       0       0       0       0       0       0       0       0
       0       0       0       0       0       0       0       0       0       0
       0       0       0       0       0       0       0       0       0       0
       0       0       0       0       0       0       0       0       0       0
       0       0       0       0       0       0       0       0       0       0
       0       0       0       0       0       0       0       0       0       0
       0       0       0       0       0       0       0       0       0       0
       0       0       0       0       0       0       0       0       0       0
       0       0       0       0       0       0       0       0       0       0
       0       0       0       0       0       0       0       0       0       0
       0       0       0       0       0       0       0       0       0       0
       0       0       0       0       0       0       0       0       0       0
       0       0       0       0       0       0       0       0       0       0
       0       0       0       0       0       0       0       0       0       0
       0       0       0       0       0       0       0       0       0       0
       0       0       0       0       0       0       0       0       0       0
       0       0       0       0       0       0       0       0       0       0
       0       0       0       0       0       0       0       0       0       0
       0       0       0       0       0       0       0       0       0       0
       0       0       0       0       0       0       0       0       0       0
       0       0       0       0       0       0       0       0       0       0
       0       0       0       0       0       0       0       0       0       0
       0       0       0       0       0       0       0       0       0       0
       0       0       0       0       0       0       0       0       0       0
       0       0       0       0       0       0       0       0       0       0
       0       0       0       0       0       0       0       0       0       0
       0       0       0       0       0       0       0       0       0       0
       0       0       0       0       0       0       0       0       0       0
       0       0       0       0       0       0       0       0       0       0
       0       0       0       0       0       0       0       0       0       0
       0       0       0       0       0       0       0       0       0       0
       0       0       0       0       0       0       0       0       0       0
       0       0       0       0       0       0       0       0       0       0
       0       0       0       0       0       0       0       0       0       0
       0       0       0       0       0       0       0       0       0       0
       0       0       0       0       0       0       0       0       0       0
       0       0       0       0       0       0       0       0       0       0
       0       0       0       0       0       0       0       0       0       0
       0       0       0       0       0       0       0       0       0       0
       0       0       0       0       0       0       0       0       0       0
       0       0       0       0       0       0       0       0       0       0
       0       0       0       0       0       0       0       0       0       0
       0       0       0       0       0       0       0       0       0       0
       0       0       0       0       0       0       0       0       0       0
       0       0       0       0       0       0       0       0       0       0
       0       0       0       0       0       0       0       0       0       0
       0       0       0       0       0       0       0       0       0       0
       0       0       0       0       0       0       0       0       0       0
       0       0       0       0       0       0       0       0       0       0
       0       0       0       0       0       0       0       0       0       0
       0       0       0       0       0       0       0       0       0       0
       0       0       0       0       0       0       0       0       0       0
       0       0       0       0       0       0       0       0       0       0
       0       0       0       0       0       0       0       0       0       0
       0       0       0       0       0       0       0       0       0       0
       0       0       0       0       0       0       0       0       0       0
       0       0       0       0       0       0       0       0       0       0
       0       0       0       0       0       0       0       0       0       0
       0       0       0       0       0       0       0       0       0       0
       0       0       0       0       0       0       0       0       0       0
       0       0       0       0       0       0       0       0       0       0
       0       0       0       0       0       0       0       0       0       0
       0       0       0       0       0       0       0       0       0       0
       0       0       0       0       0       0       0       0       0       0
       0       0       0       0       0       0       0       0       0       0
       0       0       0       0       0       0       0       0       0       0
       0       0       0       0       0       0       0       0       0       0
       0       0       0       0       0       0       0       0       0       0
       0       0       0       0       0       0       0       0       0       0
       0       0       0       0       0       0       0       0       0       0
       0       0       0       0       0       0       0       0       0       0
       0       0       0       0       0       0       0       0       0       0
       0       0       0       0       0       0       0       0       0       0
       0       0       0       0       0       0       0       0       0       0
       0       0       0       0       0       0       0       0       0       0
       0       0       0       0       0       0       0       0       0       0
       0       0       0       0       0       0       0       0       0       0
       0       0       0       0       0       0       0       0       0       0
       0       0       0       0       0       0       0       0       0       0
       0       0       0       0       0       0       0       0       0       0
       0       0       0       0       0       0       0       0       0       0
       0       0       0       0       0       0       0       0       0       0
       0       0       0       0       0       0       0       0       0       0
       0       0       0       0       0       0       0       0       0       0
       0       0       0       0       0       0       0       0       0       0
       0       0       0       0       0       0       0       0       0       0
       0       0       0       0       0       0       0       0       0       0
       0       0       0       0       0       0       0       0       0       0
       0       0       0       0       0       0       0       0       0       0
       0       0       0       0       0       0       0       0       0       0
       0       0       0       0       0       0       0       0       0       0
       0       0       0       0       0       0       0       0       0       0
       0       0       0       0       0       0       0       0       0       0
       0       0       0       0       0       0       0       0       0       0
       0       0       0       0       0       0       0       0       0       0
       0       0       0       0       0       0       0       0       0       0
       0       0       0       0       0       0       0       0       0       0
       0       0       0       0       0       0       0       0       0       0
       0       0       0       0       0       0       0       0       0       0
       0       0       0       0       0       0       0       0       0       0
       0       0       0       0       0       0       0       0       0       0
       0       0       0       0       0       0       0       0       0       0
       0       0       0       0       0       0       0       0       0       0
       0       0       0       0       0       0       0       0       0       0
       0       0       0       0       0       0       0       0       0       0
       0       0       0       0       0       0       0       0       0       0
       0       0       0       0       0       0       0       0       0       0
       0       0       0       0       0       0       0       0       0       0
       0       0       0       0       0       0       0       0       0       0
       0       0       0       0       0       0       0       0       0       0
       0       0       0       0       0       0       0       0       0       0
       0       0       0       0       0       0       0       0       0       0
       0       0       0       0       0       0       0       0       0       0
       0       0       0       0       0       0       0       0       0       0
       0       0       0       0       0       0       0       0       0       0
       0       0       0       0       0       0       0       0       0       0
       0       0       0       0       0       0       0       0       0       0
       0       0       0       0       0       0       0       0       0       0
       0       0       0       0       0       0       0       0       0       0
       0       0       0       0       0       0       0       0       0       0
       0       0       0       0       0       0       0       0       0       0
       0       0       0       0       0       0       0       0       0       0
       0       0       0       0       0       0       0       0       0       0
       0       0       0       0       0       0       0       0       0       0
       0       0       0       0       0       0       0       0       0       0
       0       0       0       0       0       0       0       0       0       0
       0       0       0       0       0       0       0       0       0       0
       0       0       0       0       0       0       0       0       0       0
       0       0       0       0       0       0       0       0       0       0
       0       0       0       0       0       0       0       0       0       0
       0       0       0       0       0       0       0       0       0       0
       0       0       0       0       0       0       0       0       0       0
       0       0       0       0       0       0       0       0       0       0
       0       0       0       0       0       0       0       0       0       0
       0       0       0       0       0       0       0       0       0       0
       0       0       0       0       0       0       0       0       0       0
       0       0       0       0       0       0       0       0       0       0
       0       0       0       0       0       0       0       0       0       0
       0       0       0       0       0       0       0       0       0       0
       0       0       0       0       0       0       0       0       0       0
       0       0       0       0       0       0       0       0       0       0
       0       0       0       0       0       0       0       0       0       0
       0       0       0       0       0       0       0       0       0       0
       0       0       0       0       0       0       0       0       0       0
       0       0       0       0       0       0       0       0       0       0
       0       0       0       0       0       0       0       0       0       0
       0       0       0       0       0       0       0       0       0       0
       0       0       0       0       0       0       0       0       0       0
       0       0       0       0       0       0       0       0       0       0
       0       0       0       0       0       0       0       0       0       0
       0       0       0       0       0       0       0       0       0       0
       0       0       0       0       0       0       0       0       0       0
       0       0       0       0       0       0       0       0       0       0
       0       0       0       0       0       0       0       0       0       0
       0       0       0       0       0       0       0       0       0       0
       0       0       0       0       0       0       0       0       0       0
       0       0       0       0       0       0       0       0       0       0
       0       0       0       0       0       0       0       0       0       0
       0       0       0       0       0       0       0       0       0       0
       0       0       0       0       0       0       0       0       0       0
       0       0       0       0       0       0       0       0       0       0
       0       0       0       0       0       0       0       0       0       0
       0       0       0       0       0       0       0       0       0       0
       0       0       0       0       0       0       0       0       0       0
       0       0       0       0       0       0       0       0       0       0
       0       0       0       0       0       0       0       0       0       0
       0       0       0       0       0       0       0       0       0       0
       0       0       0       0       0       0       0       0       0       0
       0       0       0       0       0       0       0       0       0       0
       0       0       0       0       0       0       0       0       0       0
       0       0       0       0       0       0       0       0       0       0
       0       0       0       0       0       0       0       0       0       0
       0       0       0       0       0       0       0       0       0       0
       0       0       0       0       0       0       0       0       0       0
       0       0       0       0       0       0       0       0       0       0
       0       0       0       0       0       0       0       0       0       0
       0       0       0       0       0       0       0       0       0       0
       0       0       0       0       0       0       0       0       0       0
       0       0       0       0       0       0       0       0       0       0
       0       0       0       0       0       0       0       0       0       0
       0       0       0       0       0       0       0       0       0       0
       0       0       0       0       0       0       0       0       0       0
       0       0       0       0       0       0       0       0       0       0
       0       0       0       0       0       0       0       0       0       0
       0       0       0       0       0       0       0       0       0       0
       0       0       0       0       0       0       0       0       0       0
       0       0       0       0       0       0       0       0       0       0
       0       0       0       0       0       0       0       0       0       0
       0       0       0       0       0       0       0       0       0       0
       0       0       0       0       0       0       0       0       0       0
       0       0       0       0       0       0       0       0       0       0
       0       0       0       0       0       0       0       0       0       0
       0       0       0       0       0       0       0       0       0       0
       0       0       0       0       0       0       0       0       0       0
       0       0       0       0       0       0       0       0       0       0
       0       0       0       0       0       0       0       0       0       0
       0       0       0       0       0       0       0       0       0       0
       0       0       0       0       0       0       0       0       0       0
       0       0       0       0       0       0       0       0       0       0
       0       0       0       0       0       0       0       0       0       0
       0       0       0       0       0       0       0       0       0       0
       0       0       0       0       0       0       0       0       0       0
       0       0       0       0       0       0       0       0       0       0
       0       0       0       0       0       0       0       0       0       0
       0       0       0       0       0       0       0       0       0       0
       0       0       0       0       0       0       0       0       0       0
       0       0       0       0       0       0       0       0       0       0
       0       0       0       0       0       0       0       0       0       0
       0       0       0       0       0       0       0       0       0       0
       0       0       0       0       0       0       0       0       0       0
       0       0       0       0       0       0       0       0       0       0
       0       0       0       0       0       0       0       0       0       0
       0       0       0       0       0       0       0       0       0       0
       0       0       0       0       0       0       0       0       0       0
       0       0       0       0       0       0       0       0       0       0
       0       0       0       0       0       0       0       0       0       0
       0       0       0       0       0       0       0       0       0       0
       0       0       0       0       0       0       0       0       0       0
       0       0       0       0       0       0       0       0       0       0
       0       0       0       0       0       0       0       0       0       0
       0       0       0       0       0       0       0       0       0       0
       0       0       0       0       0       0       0       0       0       0
       0       0       0       0       0       0       0       0       0       0
       0       0       0       0       0       0       0       0       0       0
       0       0       0       0       0       0       0       0       0       0
       0       0       0       0       0       0       0       0       0       0
       0       0       0       0       0       0       0       0       0       0
       0       0       0       0       0       0       0       0       0       0
       0       0       0       0       0       0       0       0       0       0
       0       0       0       0       0       0       0       0       0       0
       0       0       0       0       0       0       0       0       0       0
       0       0       0       0       0       0       0       0       0       0
       0       0       0       0       0       0       0       0       0       0
       0       0       0       0       0       0       0       0       0       0
       0       0       0       0       0       0       0       0       0       0
       0       0       0       0       0       0       0       0       0       0
       0       0       0       0       0       0       0       0       0       0
       0       0       0       0       0       0       0       0       0       0
       0       0       0       0       0       0       0       0       0       0
       0       0       0       0       0       0       0       0       0       0
       0       0       0       0       0       0       0       0       0       0
       0       0       0       0       0       0       0       0       0       0
       0       0       0       0       0       0       0       0       0       0
       0       0       0       0       0       0       0       0       0       0
       0       0       0       0       0       0       0       0       0       0
       0       0       0       0       0       0       0       0       0       0
       0       0       0       0       0       0       0       0       0       0
       0       0       0       0       0       0       0       0       0       0
       0       0       0       0       0       0       0       0       0       0
       0       0       0       0       0       0       0       0       0       0
       0       0       0       0       0       0       0       0       0       0
       0       0       0       0       0       0       0       0       0       0
       0       0       0       0       0       0       0       0       0       0
       0       0       0       0       0       0       0       0       0       0
       0       0       0       0       0       0       0       0       0       0
       0       0       0       0       0       0       0       0       0       0
       0       0       0       0       0       0       0       0       0       0
       0       0       0       0       0       0       0       0       0       0
       0       0       0       0       0       0       0       0       0       0
       0       0       0       0       0       0       0       0       0       0
       0       0       0       0       0       0       0       0       0       0
       0       0       0       0       0       0       0       0       0       0
       0       0       0       0       0       0       0       0       0       0
       0       0       0       0       0       0       0       0       0       0
       0       0       0       0       0       0       0       0       0       0
       0       0       0       0       0       0       0       0       0       0
       0       0       0       0       0       0       0       0       0       0
       0       0       0       0       0       0       0       0       0       0
       0       0       0       0       0       0       0       0       0       0
       0       0       0       0       0       0       0       0       0       0
       0       0       0       0       0       0       0       0       0       0
       0       0       0       0       0       0       0       0       0       0
       0       0       0       0       0       0       0       0       0       0
       0       0       0       0       0       0       0       0       0       0
       0       0       0       0       0       0       0       0       0       0
       0       0       0       0       0       0       0       0       0       0
       0       0       0       0       0       0       0       0       0       0
       0       0       0       0       0       0       0       0       0       0
       0       0       0       0       0       0       0       0       0       0
       0       0       0       0       0       0       0       0       0       0
       0       0       0       0       0       0       0       0       0       0
       0       0       0       0       0       0       0       0       0       0
       0       0       0       0       0       0       0       0       0       0
       0       0       0       0       0       0       0       0       0       0
       0       0       0       0       0       0       0       0       0       0
       0       0       0       0       0       0       0       0       0       0
       0       0       0       0       0       0       0       0       0       0
       0       0       0       0       0       0       0       0       0       0
       0       0       0       0       0       0       0       0       0       0
       0       0       0       0       0       0       0       0       0       0
       0       0       0       0       0       0       0       0       0       0
       0       0       0       0       0       0       0       0       0       0
       0       0       0       0       0       0       0       0       0       0
       0       0       0       0       0       0       0       0       0       0
       0       0       0       0       0       0       0       0       0       0
       0       0       0       0       0       0       0       0       0       0
       0       0       0       0       0       0       0       0       0       0
       0       0       0       0       0       0       0       0       0       0
       0       0       0       0       0       0       0       0       0       0
       0       0       0       0       0       0       0       0       0       0
       0       0       0       0       0       0       0       0       0       0
       0       0       0       0       0       0       0       0       0       0
       0       0       0       0       0       0       0       0       0       0
       0       0       0       0       0       0       0       0       0       0
       0       0       0       0       0       0       0       0       0       0
       0       0       0       0       0       0       0       0       0       0
       0       0       0       0       0       0       0       0       0       0
       0       0       0       0       0       0       0       0       0       0
       0       0       0       0       0       0       0       0       0       0
       0       0       0       0       0       0       0       0       0       0
       0       0       0       0       0       0       0       0       0       0
       0       0       0       0       0       0       0       0       0       0
       0       0       0       0       0       0       0       0       0       0
       0       0       0       0       0       0       0       0       0       0
       0       0       0       0       0       0       0       0       0       0
       0       0       0       0       0       0       0       0       0       0
       0       0       0       0       0       0       0       0       0       0
       0       0       0       0       0       0       0       0       0       0
       0       0       0       0       0       0       0       0       0       0
       0       0       0       0       0       0       0       0       0       0
       0       0       0       0       0       0       0       0       0       0
       0       0       0       0       0       0       0       0       0       0
       0       0       0       0       0       0       0       0       0       0
       0       0       0       0       0       0       0       0       0       0
       0       0       0       0       0       0       0       0       0       0
       0       0       0       0       0       0       0       0       0       0
       0       0       0       0       0       0       0       0       0       0
       0       0       0       0       0       0       0       0       0       0
       0       0       0       0       0       0       0       0       0       0
       0       0       0       0       0       0       0       0       0       0
       0       0       0       0       0       0       0       0       0       0
       0       0       0       0       0       0       0       0       0       0
       0       0       0       0       0       0       0       0       0       0
       0       0       0       0       0       0       0       0       0       0
       0       0       0       0       0       0       0       0       0       0
       0       0       0       0       0       0       0       0       0       0
       0       0       0       0       0       0       0       0       0       0
       0       0       0       0       0       0       0       0       0       0
       0       0       0       0       0       0       0       0       0       0
       0       0       0       0       0       0       0       0       0       0
       0       0       0       0       0       0       0       0       0       0
       0       0       0       0       0       0       0       0       0       0
       0       0       0       0       0       0       0       0       0       0
       0       0       0       0       0       0       0       0       0       0
       0       0       0       0       0       0       0       0       0       0
       0       0       0       0       0       0       0       0       0       0
       0       0       0       0       0       0       0       0       0       0
       0       0       0       0       0       0       0       0       0       0
       0       0       0       0       0       0       0       0       0       0
       0       0       0       0       0       0       0       0       0       0
       0       0       0       0       0       0       0       0       0       0
       0       0       0       0       0       0       0       0       0       0
       0       0       0       0       0       0       0       0       0       0
       0       0       0       0       0       0       0       0       0       0
       0       0       0       0       0       0       0       0       0       0
       0       0       0       0       0       0       0       0       0       0
       0       0       0       0       0       0       0       0       0       0
       0       0       0       0       0       0       0       0       0       0
       0       0       0       0       0       0       0       0       0       0
       0       0       0       0       0       0       0       0       0       0
       0       0       0       0       0       0       0       0       0       0
       0       0       0       0       0       0       0       0       0       0
       0       0       0       0       0       0       0       0       0       0
       0       0       0       0       0       0       0       0       0       0
       0       0       0       0       0       0       0       0       0       0
       0       0       0       0       0       0       0       0       0       0
       0       0       0       0       0       0       0       0       0       0
       0       0       0       0       0       0       0       0       0       0
       0       0       0       0       0       0       0       0       0       0
       0       0       0       0       0       0       0       0       0       0
       0       0       0       0       0       0       0       0       0       0
       0       0       0       0       0       0       0       0       0       0
       0       0       0       0       0       0       0       0       0       0
       0       0       0       0       0       0       0       0       0       0
       0       0       0       0       0       0       0       0       0       0
       0       0       0       0       0       0       0       0       0       0
       0       0       0       0       0       0       0       0       0       0
       0       0       0       0       0       0       0       0       0       0
       0       0       0       0       0       0       0       0       0       0
       0       0       0       0       0       0       0       0       0       0
       0       0       0       0       0       0       0       0       0       0
       0       0       0       0       0       0       0       0       0       0
       0       0       0       0       0       0       0       0       0       0
       0       0       0       0       0       0       0       0       0       0
       0       0       0       0       0       0       0       0       0       0
       0       0       0       0       0       0       0       0       0       0
       0       0       0       0       0       0       0       0       0       0
       0       0       0       0       0       0       0       0       0       0
       0       0       0       0       0       0       0       0       0       0
       0       0       0       0       0       0       0       0       0       0
       0       0       0       0       0       0       0       0       0       0
       0       0       0       0       0       0       0       0       0       0
       0       0       0       0       0       0       0       0       0       0
       0       0       0       0       0       0       0       0       0       0
       0       0       0       0       0       0       0       0       0       0
       0       0       0       0       0       0       0       0       0       0
       0       0       0       0       0       0       0       0       0       0
       0       0       0       0       0       0       0       0       0       0
       0       0       0       0       0       0       0       0       0       0
       0       0       0       0       0       0       0       0       0       0
       0       0       0       0       0       0       0       0       0       0
       0       0       0       0       0       0       0       0       0       0
       0       0       0       0       0       0       0       0       0       0
       0       0       0       0       0       0       0       0       0       0
       0       0       0       0       0       0       0       0       0       0
       0       0       0       0       0       0       0       0       0       0
       0       0       0       0       0       0       0       0       0       0
       0       0       0       0       0       0       0       0       0       0
       0       0       0       0       0       0       0       0       0       0
       0       0       0       0       0       0       0       0       0       0
       0       0       0       0       0       0       0       0       0       0
       0       0       0       0       0       0       0       0       0       0
       0       0       0       0       0       0       0       0       0       0
       0       0       0       0       0       0       0       0       0       0
       0       0       0       0       0       0       0       0       0       0
       0       0       0       0       0       0       0       0       0       0
       0       0       0       0       0       0       0       0       0       0
       0       0       0       0       0       0       0       0       0       0
       0       0       0       0       0       0       0       0       0       0
       0       0       0       0       0       0       0       0       0       0
       0       0       0       0       0       0       0       0       0       0
       0       0       0       0       0       0       0       0       0       0
       0       0       0       0       0       0       0       0       0       0
       0       0       0       0       0       0       0       0       0       0
       0       0       0       0       0       0       0       0       0       0
       0       0       0       0       0       0       0       0       0       0
       0       0       0       0       0       0       0       0       0       0
       0       0       0       0       0       0       0       0       0       0
       0       0       0       0       0       0       0       0       0       0
       0       0       0       0       0       0       0       0       0       0
       0       0       0       0       0       0       0       0       0       0
       0       0       0       0       0       0       0       0       0       0
       0       0       0       0       0       0       0       0       0       0
       0       0       0       0       0       0       0       0       0       0
       0       0       0       0       0       0       0       0       0       0
       0       0       0       0       0       0       0       0       0       0
       0       0       0       0       0       0       0       0       0       0
       0       0       0       0       0       0       0       0       0       0
       0       0       0       0       0       0       0       0       0       0
       0       0       0       0       0       0       0       0       0       0
       0       0       0       0       0       0       0       0       0       0
       0       0       0       0       0       0       0       0       0       0
       0       0       0       0       0       0       0       0       0       0
       0       0       0       0       0       0       0       0       0       0
       0       0       0       0       0       0       0       0       0       0
       0       0       0       0       0       0       0       0       0       0
       0       0       0       0       0       0       0       0       0       0
       0       0       0       0       0       0       0       0       0       0
       0       0       0       0       0       0       0       0       0       0
       0       0       0       0       0       0       0       0       0       0
       0       0       0       0       0       0       0       0       0       0
       0       0       0       0       0       0       0       0       0       0
       0       0       0       0       0       0       0       0       0       0
       0       0       0       0       0       0       0       0       0       0
       0       0       0       0       0       0       0       0       0       0
       0       0       0       0       0       0       0       0       0       0
       0       0       0       0       0       0       0       0       0       0
       0       0       0       0       0       0       0       0       0       0
       0       0       0       0       0       0       0       0       0       0
       0       0       0       0       0       0       0       0       0       0
       0       0       0       0       0       0       0       0       0       0
       0       0       0       0       0       0       0       0       0       0
       0       0       0       0       0       0       0       0       0       0
       0       0       0       0       0       0       0       0       0       0
       0       0       0       0       0       0       0       0       0       0
       0       0       0       0       0       0       0       0       0       0
       0       0       0       0       0       0       0       0       0       0
       0       0       0       0       0       0       0       0       0       0
       0       0       0       0       0       0       0       0       0       0
       0       0       0       0       0       0       0       0       0       0
       0       0       0       0       0       0       0       0       0       0
       0       0       0       0       0       0       0       0       0       0
       0       0       0       0       0       0       0       0       0       0
       0       0       0       0       0       0       0       0       0       0
       0       0       0       0       0       0       0       0       0       0
       0       0       0       0       0       0       0       0       0       0
       0       0       0       0       0       0       0       0       0       0
       0       0       0       0       0       0       0       0       0       0
       0       0       0       0       0       0       0       0       0       0
       0       0       0       0       0       0       0       0       0       0
       0       0       0       0       0       0       0       0       0       0
       0       0       0       0       0       0       0       0       0       0
       0       0       0       0       0       0       0       0       0       0
       0       0       0       0       0       0       0       0       0       0
       0       0       0       0       0       0       0       0       0       0
       0       0       0       0       0       0       0       0       0       0
       0       0       0       0       0       0       0       0       0       0
       0       0       0       0       0       0       0       0       0       0
       0       0       0       0       0       0       0       0       0       0
       0       0       0       0       0       0       0       0       0       0
       0       0       0       0       0       0       0       0       0       0
       0       0       0       0       0       0       0       0       0       0
       0       0       0       0       0       0       0       0       0       0
       0       0       0       0       0       0       0       0       0       0
       0       0       0       0       0       0       0       0       0       0
       0       0       0       0       0       0       0       0       0       0
       0       0       0       0       0       0       0       0       0       0
       0       0       0       0       0       0       0       0       0       0
       0       0       0       0       0       0       0       0       0       0
       0       0       0       0       0       0       0       0       0       0
       0       0       0       0       0       0       0       0       0       0
       0       0       0       0       0       0       0       0       0       0
       0       0       0       0       0       0       0       0       0       0
       0       0       0       0       0       0       0       0       0       0
       0       0       0       0       0       0       0       0       0       0
       0       0       0       0       0       0       0       0       0       0
       0       0       0       0       0       0       0       0       0       0
       0       0       0       0       0       0       0       0       0       0
       0       0       0       0       0       0       0       0       0       0
       0       0       0       0       0       0       0       0       0       0
       0       0       0       0       0       0       0       0       0       0
       0       0       0       0       0       0       0       0       0       0
       0       0       0       0       0       0       0       0       0       0
       0       0       0       0       0       0       0       0       0       0
       0       0       0       0       0       0       0       0       0       0
       0       0       0       0       0       0       0       0       0       0
       0       0       0       0       0       0       0       0       0       0
       0       0       0       0       0       0       0       0       0       0
       0       0       0       0       0       0       0       0       0       0
       0       0       0       0       0       0       0       0       0       0
       0       0       0       0       0       0       0       0       0       0
       0       0       0       0       0       0       0       0       0       0
       0       0       0       0       0       0       0       0       0       0
       0       0       0       0       0       0       0       0       0       0
       0       0       0       0       0       0       0       0       0       0
       0       0       0       0       0       0       0       0       0       0
       0       0       0       0       0       0       0       0       0       0
       0       0       0       0       0       0       0       0       0       0
       0       0       0       0       0       0       0       0       0       0
       0       0       0       0       0       0       0       0       0       0
       0       0       0       0       0       0       0       0       0       0
       0       0       0       0       0       0       0       0       0       0
       0       0       0       0       0       0       0       0       0       0
       0       0       0       0       0       0       0       0       0       0
       0       0       0       0       0       0       0       0       0       0
       0       0       0       0       0       0       0       0       0       0
       0       0       0       0       0       0       0       0       0       0
       0       0       0       0       0       0       0       0       0       0
       0       0       0       0       0       0       0       0       0       0
       0       0       0       0       0       0       0       0       0       0
       0       0       0       0       0       0       0       0       0       0
       0       0       0       0       0       0       0       0       0       0
       0       0       0       0       0       0       0       0       0       0
       0       0       0       0       0       0       0       0       0       0
       0       0       0       0       0       0       0       0       0       0
       0       0       0       0       0       0       0       0       0       0
       0       0       0       0       0       0       0       0       0       0
       0       0       0       0       0       0       0       0       0       0
       0       0       0       0       0       0       0       0       0       0
       0       0       0       0       0       0       0       0       0       0
       0       0       0       0       0       0       0       0       0       0
       0       0       0       0       0       0       0       0       0       0
       0       0       0       0       0       0       0       0       0       0
       0       0       0       0       0       0       0       0       0       0
       0       0       0       0       0       0       0       0       0       0
       0       0       0       0       0       0       0       0       0       0
       0       0       0       0       0       0       0       0       0       0
       0       0       0       0       0       0       0       0       0       0
       0       0       0       0       0       0       0       0       0       0
       0       0       0       0       0       0       0       0       0       0
       0       0       0       0       0       0       0       0       0       0
       0       0       0       0       0       0       0       0       0       0
       0       0       0       0       0       0       0       0       0       0
       0       0       0       0       0       0       0       0       0       0
       0       0       0       0       0       0       0       0       0       0
       0       0       0       0       0       0       0       0       0       0
       0       0       0       0       0       0       0       0       0       0
       0       0       0       0       0       0       0       0       0       0
       0       0       0       0       0       0       0       0       0       0
       0       0       0       0       0       0       0       0       0       0
       0       0       0       0       0       0       0       0       0       0
       0       0       0       0       0       0       0       0       0       0
       0       0       0       0       0       0       0       0       0       0
       0       0       0       0       0       0       0       0       0       0
       0       0       0       0       0       0       0       0       0       0
       0       0       0       0       0       0       0       0       0       0
       0       0       0       0       0       0       0       0       0       0
       0       0       0       0       0       0       0       0       0       0
       0       0       0       0       0       0       0       0       0       0
       0       0       0       0       0       0       0       0       0       0
       0       0       0       0       0       0       0       0       0       0
       0       0       0       0       0       0       0       0       0       0
       0       0       0       0       0       0       0       0       0       0
       0       0       0       0       0       0       0       0       0       0
       0       0       0       0       0       0       0       0       0       0
       0       0       0       0       0       0       0       0       0       0
       0       0       0       0       0       0       0       0       0       0
       0       0       0       0       0       0       0       0       0       0
       0       0       0       0       0       0       0       0       0       0
       0       0       0       0       0       0       0       0       0       0
       0       0       0       0       0       0       0       0       0       0
       0       0       0       0       0       0       0       0       0       0
       0       0       0       0       0       0       0       0       0       0
       0       0       0       0       0       0       0       0       0       0
       0       0       0       0       0       0       0       0       0       0
       0       0       0       0       0       0       0       0       0       0
       0       0       0       0       0       0       0       0       0       0
       0       0       0       0       0       0       0       0       0       0
       0       0       0       0       0       0       0       0       0       0
       0       0       0       0       0       0       0       0       0       0
       0       0       0       0       0       0       0       0       0       0
       0       0       0       0       0       0       0       0       0       0
       0       0       0       0       0       0       0       0       0       0
       0       0       0       0       0       0       0       0       0       0
       0       0       0       0       0       0       0       0       0       0
       0       0       0       0       0       0       0       0       0       0
       0       0       0       0       0       0       0       0       0       0
       0       0       0       0       0       0       0       0       0       0
       0       0       0       0       0       0       0       0       0       0
       0       0       0       0       0       0       0       0       0       0
       0       0       0       0       0       0       0       0       0       0
       0       0       0       0       0       0       0       0       0       0
       0       0       0       0       0       0       0       0       0       0
       0       0       0       0       0       0       0       0       0       0
       0       0       0       0       0       0       0       0       0       0
       0       0       0       0       0       0       0       0       0       0
       0       0       0       0       0       0       0       0       0       0
       0       0       0       0       0       0       0       0       0       0
       0       0       0       0       0       0       0       0       0       0
       0       0       0       0       0       0       0       0       0       0
       0       0       0       0       0       0       0       0       0       0
       0       0       0       0       0       0       0       0       0       0
       0       0       0       0       0       0       0       0       0       0
       0       0       0       0       0       0       0       0       0       0
       0       0       0       0       0       0       0       0       0       0
       0       0       0       0       0       0       0       0       0       0
       0       0       0       0       0       0       0       0       0       0
       0       0       0       0       0       0       0       0       0       0
       0       0       0       0       0       0       0       0       0       0
       0       0       0       0       0       0       0       0       0       0
       0       0       0       0       0       0       0       0       0       0
       0       0       0       0       0       0       0       0       0       0
       0       0       0       0       0       0       0       0       0       0
       0       0       0       0       0       0       0       0       0       0
       0       0       0       0       0       0       0       0       0       0
       0       0       0       0       0       0       0       0       0       0
       0       0       0       0       0       0       0       0       0       0
       0       0       0       0       0       0       0       0       0       0
       0       0       0       0       0       0       0       0       0       0
       0       0       0       0       0       0       0       0       0       0
       0       0       0       0       0       0       0       0       0       0
       0       0       0       0       0       0       0       0       0       0
       0       0       0       0       0       0       0       0       0       0
       0       0       0       0       0       0       0       0       0       0
       0       0       0       0       0       0       0       0       0       0
       0       0       0       0       0       0       0       0       0       0
       0       0       0       0       0       0       0       0       0       0
       0       0       0       0       0       0       0       0       0       0
       0       0       0       0       0       0       0       0       0       0
       0       0       0       0       0       0       0       0       0       0
       0       0       0       0       0       0       0       0       0       0
       0       0       0       0       0       0       0       0       0       0
       0       0       0       0       0       0       0       0       0       0
       0       0       0       0       0       0       0       0       0       0
       0       0       0       0       0       0       0       0       0       0
       0       0       0       0       0       0       0       0       0       0
       0       0       0       0       0       0       0       0       0       0
       0       0       0       0       0       0       0       0       0       0
       0       0       0       0       0       0       0       0       0       0
       0       0       0       0       0       0       0       0       0       0
       0       0       0       0       0       0       0       0       0       0
       0       0       0       0       0       0       0       0       0       0
       0       0       0       0       0       0       0       0       0       0
       0       0       0       0       0       0       0       0       0       0
       0       0       0       0       0       0       0       0       0       0
       0       0       0       0       0       0       0       0       0       0
       0       0       0       0       0       0       0       0       0       0
       0       0       0       0       0       0       0       0       0       0
       0       0       0       0       0       0       0       0       0       0
       0       0       0       0       0       0       0       0       0       0
       0       0       0       0       0       0       0       0       0       0
       0       0       0       0       0       0       0       0       0       0
       0       0       0       0       0       0       0       0       0       0
       0       0       0       0       0       0       0       0       0       0
       0       0       0       0       0       0       0       0       0       0
       0       0       0       0       0       0       0       0       0       0
       0       0       0       0       0       0       0       0       0       0
       0       0       0       0       0       0       0       0       0       0
       0       0       0       0       0       0       0       0       0       0
       0       0       0       0       0       0       0       0       0       0
       0       0       0       0       0       0       0       0       0       0
       0       0       0       0       0       0       0       0       0       0
       0       0       0       0       0       0       0       0       0       0
       0       0       0       0       0       0       0       0       0       0
       0       0       0       0       0       0       0       0       0       0
       0       0       0       0       0       0       0       0       0       0
       0       0       0       0       0       0       0       0       0       0
       0       0       0       0       0       0       0       0       0       0
       0       0       0       0       0       0       0       0       0       0
       0       0       0       0       0       0       0       0       0       0
       0       0       0       0       0       0       0       0       0       0
       0       0       0       0       0       0       0       0       0       0
       0       0       0       0       0       0       0       0       0       0
       0       0       0       0       0       0       0       0       0       0
       0       0       0       0       0       0       0       0       0       0
       0       0       0       0       0       0       0       0       0       0
       0       0       0       0       0       0       0       0       0       0
       0       0       0       0       0       0       0       0       0       0
       0       0       0       0       0       0       0       0       0       0
       0       0       0       0       0       0       0       0       0       0
       0       0       0       0       0       0       0       0       0       0
       0       0       0       0       0       0       0       0       0       0
       0       0       0       0       0       0       0       0       0       0
       0       0       0       0       0       0       0       0       0       0
       0       0       0       0       0       0       0       0       0       0
       0       0       0       0       0       0       0       0       0       0
       0       0       0       0       0       0       0       0       0       0
       0       0       0       0       0       0       0       0       0       0
       0       0       0       0       0       0       0       0       0       0
       0       0       0       0       0       0       0       0       0       0
       0       0       0       0       0       0       0       0       0       0
       0       0       0       0       0       0       0       0       0       0
       0       0       0       0       0       0       0       0       0       0
       0       0       0       0       0       0       0       0       0       0
       0       0       0       0       0       0       0       0       0       0
       0       0       0       0       0       0       0       0       0       0
       0       0       0       0       0       0       0       0       0       0
       0       0       0       0       0       0       0       0       0       0
       0       0       0       0       0       0       0       0       0       0
       0       0       0       0       0       0       0       0       0       0
       0       0       0       0       0       0       0       0       0       0
       0       0       0       0       0       0       0       0       0       0
       0       0       0       0       0       0       0       0       0       0
       0       0       0       0       0       0       0       0       0       0
       0       0       0       0       0       0       0       0       0       0
       0       0       0       0       0       0       0       0       0       0
       0       0       0       0       0       0       0       0       0       0
       0       0       0       0       0       0       0       0       0       0
       0       0       0       0       0       0       0       0       0       0
       0       0       0       0       0       0       0       0       0       0
       0       0       0       0       0       0       0       0       0       0
       0       0       0       0       0       0       0       0       0       0
       0       0       0       0       0       0       0       0       0       0
       0       0       0       0       0       0       0       0       0       0
       0       0       0       0       0       0       0       0       0       0
       0       0       0       0       0       0       0       0       0       0
       0       0       0       0       0       0       0       0       0       0
       0       0       0       0       0       0       0       0       0       0
       0       0       0       0       0       0       0       0       0       0
       0       0       0       0       0       0       0       0       0       0
       0       0       0       0       0       0       0       0       0       0
       0       0       0       0       0       0       0       0       0       0
       0       0       0       0       0       0       0       0       0       0
       0       0       0       0       0       0       0       0       0       0
       0       0       0       0       0       0       0       0       0       0
       0       0       0       0       0       0       0       0       0       0
       0       0       0       0       0       0       0       0       0       0
       0       0       0       0       0       0       0       0       0       0
       0       0       0       0       0       0       0       0       0       0
       0       0       0       0       0       0       0       0       0       0
       0       0       0       0       0       0       0       0       0       0
       0       0       0       0       0       0       0       0       0       0
       0       0       0       0       0       0       0       0       0       0
       0       0       0       0       0       0       0       0       0       0
       0       0       0       0       0       0       0       0       0       0
       0       0       0       0       0       0       0       0       0       0
       0       0       0       0       0       0       0       0       0       0
       0       0       0       0       0       0       0       0       0       0
       0       0       0       0       0       0       0       0       0       0
       0       0       0       0       0       0       0       0       0       0
       0       0       0       0       0       0       0       0       0       0
       0       0       0       0       0       0       0       0       0       0
       0       0       0       0       0       0       0       0       0       0
       0       0       0       0       0       0       0       0       0       0
       0       0       0       0       0       0       0       0       0       0
       0       0       0       0       0       0       0       0       0       0
       0       0       0       0       0       0       0       0       0       0
       0       0       0       0       0       0       0       0       0       0
       0       0       0       0       0       0       0       0       0       0
       0       0       0       0       0       0       0       0       0       0
       0       0       0       0       0       0       0       0       0       0
       0       0       0       0       0       0       0       0       0       0
       0       0       0       0       0       0       0       0       0       0
       0       0       0       0       0       0       0       0       0       0
       0       0       0       0       0       0       0       0       0       0
       0       0       0       0       0       0       0       0       0       0
       0       0       0       0       0       0       0       0       0       0
       0       0       0       0       0       0       0       0       0       0
       0       0       0       0       0       0       0       0       0       0
       0       0       0       0       0       0       0       0       0       0
       0       0       0       0       0       0       0       0       0       0
       0       0       0       0       0       0       0       0       0       0
       0       0       0       0       0       0       0       0       0       0
       0       0       0       0       0       0       0       0       0       0
       0       0       0       0       0       0       0       0       0       0
       0       0       0       0       0       0       0       0       0       0
       0       0       0       0       0       0       0       0       0       0
       0       0       0       0       0       0       0       0       0       0
       0       0       0       0       0       0       0       0       0       0
       0       0       0       0       0       0       0       0       0       0
       0       0       0       0       0       0       0       0       0       0
       0       0       0       0       0       0       0       0       0       0
       0       0       0       0       0       0       0       0       0       0
       0       0       0       0       0       0       0       0       0       0
       0       0       0       0       0       0       0       0       0       0
       0       0       0       0       0       0       0       0       0       0
       0       0       0       0       0       0       0       0       0       0
       0       0       0       0       0       0       0       0       0       0
       0       0       0       0       0       0       0       0       0       0
       0       0       0       0       0       0       0       0       0       0
       0       0       0       0       0       0       0       0       0       0
       0       0       0       0       0       0       0       0       0       0
       0       0       0       0       0       0       0       0       0       0
       0       0       0       0       0       0       0       0       0       0
       0       0       0       0       0       0       0       0       0       0
       0       0       0       0       0       0       0       0       0       0
       0       0       0       0       0       0       0       0       0       0
       0       0       0       0       0       0       0       0       0       0
       0       0       0       0       0       0       0       0       0       0
       0       0       0       0       0       0       0       0       0       0
       0       0       0       0       0       0       0       0       0       0
       0       0       0       0       0       0       0       0       0       0
       0       0       0       0       0       0       0       0       0       0
       0       0       0       0       0       0       0       0       0       0
       0       0       0       0       0       0       0       0       0       0
       0       0       0       0       0       0       0       0       0       0
       0       0       0       0       0       0       0       0       0       0
       0       0       0       0       0       0       0       0       0       0
       0       0       0       0       0       0       0       0       0       0
       0       0       0       0       0       0       0       0       0       0
       0       0       0       0       0       0       0       0       0       0
       0       0       0       0       0       0       0       0       0       0
       0       0       0       0       0       0       0       0       0       0
       0       0       0       0       0       0       0       0       0       0
       0       0       0       0       0       0       0       0       0       0
       0       0       0       0       0       0       0       0       0       0
       0       0       0       0       0       0       0       0       0       0
       0       0       0       0       0       0       0       0       0       0
       0       0       0       0       0       0       0       0       0       0
       0       0       0       0       0       0       0       0       0       0
       0       0       0       0       0       0       0       0       0       0
       0       0       0       0       0       0       0       0       0       0
       0       0       0       0       0       0       0       0       0       0
       0       0       0       0       0       0       0       0       0       0
       0       0       0       0       0       0       0       0       0       0
       0       0       0       0       0       0       0       0       0       0
       0       0       0       0       0       0       0       0       0       0
       0       0       0       0       0       0       0       0       0       0
       0       0       0       0       0       0       0       0       0       0
       0       0       0       0       0       0       0       0       0       0
       0       0       0       0       0       0       0       0       0       0
       0       0       0       0       0       0       0       0       0       0
       0       0       0       0       0       0       0       0       0       0
       0       0       0       0       0       0       0       0       0       0
       0       0       0       0       0       0       0       0       0       0
       0       0       0       0       0       0       0       0       0       0
       0       0       0       0       0       0       0       0       0       0
       0       0       0       0       0       0       0       0       0       0
       0       0       0       0       0       0       0       0       0       0
       0       0       0       0       0       0       0       0       0       0
       0       0       0       0       0       0       0       0       0       0
       0       0       0       0       0       0       0       0       0       0
       0       0       0       0       0       0       0       0       0       0
       0       0       0       0       0       0       0       0       0       0
       0       0       0       0       0       0       0       0       0       0
       0       0       0       0       0       0       0       0       0       0
       0       0       0       0       0       0       0       0       0       0
       0       0       0       0       0       0       0       0       0       0
       0       0       0       0       0       0       0       0       0       0
       0       0       0       0       0       0       0       0       0       0
       0       0       0       0       0       0       0       0       0       0
       0       0       0       0       0       0       0       0       0       0
       0       0       0       0       0       0       0       0       0       0
       0       0       0       0       0       0       0       0       0       0
       0       0       0       0       0       0       0       0       0       0
       0       0       0       0       0       0       0       0       0       0
       0       0       0       0       0       0       0       0       0       0
       0       0       0       0       0       0       0       0       0       0
       0       0       0       0       0       0       0       0       0       0
       0       0       0       0       0       0       0       0       0       0
       0       0       0       0       0       0       0       0       0       0
       0       0       0       0       0       0       0       0       0       0
       0       0       0       0       0       0       0       0       0       0
       0       0       0       0       0       0       0       0       0       0
       0       0       0       0       0       0       0       0       0       0
       0       0       0       0       0       0       0       0       0       0
       0       0       0       0       0       0       0       0       0       0
       0       0       0       0       0       0       0       0       0       0
       0       0       0       0       0       0       0       0       0       0
       0       0       0       0       0       0       0       0       0       0
       0       0       0       0       0       0       0       0       0       0
       0       0       0       0       0       0       0       0       0       0
       0       0       0       0       0       0       0       0       0       0
       0       0       0       0       0       0       0       0       0       0
       0       0       0       0       0       0       0       0       0       0
       0       0       0       0       0       0       0       0       0       0
       0       0       0       0       0       0       0       0       0       0
       0       0       0       0       0       0       0       0       0       0
       0       0       0       0       0       0       0       0       0       0
       0       0       0       0       0       0       0       0       0       0
       0       0       0       0       0       0       0       0       0       0
       0       0       0       0       0       0       0       0       0       0
       0       0       0       0       0       0       0       0       0       0
       0       0       0       0       0       0       0       0       0       0
       0       0       0       0       0       0       0       0       0       0
       0       0       0       0       0       0       0       0       0       0
       0       0       0       0       0       0       0       0       0       0
       0       0       0       0       0       0       0       0       0       0
       0       0       0       0       0       0       0       0       0       0
       0       0       0       0       0       0       0       0       0       0
       0       0       0       0       0       0       0       0       0       0
       0       0       0       0       0       0       0       0       0       0
       0       0       0       0       0       0       0       0       0       0
       0       0       0       0       0       0       0       0       0       0
       0       0       0       0       0       0       0       0       0       0
       0       0       0       0       0       0       0       0       0       0
       0       0       0       0       0       0       0       0       0       0
       0       0       0       0       0       0       0       0       0       0
       0       0       0       0       0       0       0       0       0       0
       0       0       0       0       0       0       0       0       0       0
       0       0       0       0       0       0       0       0       0       0
       0       0       0       0       0       0       0       0       0       0
       0       0       0       0       0       0       0       0       0       0
       0       0       0       0       0       0       0       0       0       0
       0       0       0       0       0       0       0       0       0       0
       0       0       0       0       0       0       0       0       0       0
       0       0       0       0       0       0       0       0       0       0
       0       0       0       0       0       0       0       0       0       0
       0       0       0       0       0       0       0       0       0       0
       0       0       0       0       0       0       0       0       0       0
       0       0       0       0       0       0       0       0       0       0
       0       0       0       0       0       0       0       0       0       0
       0       0       0       0       0       0       0       0       0       0
       0       0       0       0       0       0       0       0       0       0
       0       0       0       0       0       0       0       0       0       0
       0       0       0       0       0       0       0       0       0       0
       0       0       0       0       0       0       0       0       0       0
       0       0       0       0       0       0       0       0       0       0
       0       0       0       0       0       0       0       0       0       0
       0       0       0       0       0       0       0       0       0       0
       0       0       0       0       0       0       0       0       0       0
       0       0       0       0       0       0       0       0       0       0
       0       0       0       0       0       0       0       0       0       0
       0       0       0       0       0       0       0       0       0       0
       0       0       0       0       0       0       0       0       0       0
       0       0       0       0       0       0       0       0       0       0
       0       0       0       0       0       0       0       0       0       0
       0       0       0       0       0       0       0       0       0       0
       0       0       0       0       0       0       0       0       0       0
       0       0       0       0       0       0       0       0       0       0
       0       0       0       0       0       0       0       0       0       0
       0       0       0       0       0       0       0       0       0       0
       0       0       0       0       0       0       0       0       0       0
       0       0       0       0       0       0       0       0       0       0
       0       0       0       0       0       0       0       0       0       0
       0       0       0       0       0       0       0       0       0       0
       0       0       0       0       0       0       0       0       0       0
       0       0       0       0       0       0       0       0       0       0
       0       0       0       0       0       0       0       0       0       0
       0       0       0       0       0       0       0       0       0       0
       0       0       0       0       0       0       0       0       0       0
       0       0       0       0       0       0       0       0       0       0
       0       0       0       0       0       0       0       0       0       0
       0       0       0       0       0       0       0       0       0       0
       0       0       0       0       0       0       0       0       0       0
       0       0       0       0       0       0       0       0       0       0
       0       0       0       0       0       0       0       0       0       0
       0       0       0       0       0       0       0       0       0       0
       0       0       0       0       0       0       0       0       0       0
       0       0       0       0       0       0       0       0       0       0
       0       0       0       0       0       0       0       0       0       0
       0       0       0       0       0       0       0       0       0       0
       0       0       0       0       0       0       0       0       0       0
       0       0       0       0       0       0       0       0       0       0
       0       0       0       0       0       0       0       0       0       0
       0       0       0       0       0       0       0       0       0       0
       0       0       0       0       0       0       0       0       0       0
       0       0       0       0       0       0       0       0       0       0
       0       0       0       0       0       0       0       0       0       0
       0       0       0       0       0       0       0       0       0       0
       0       0       0       0       0       0       0       0       0       0
       0       0       0       0       0       0       0       0       0       0
       0       0       0       0       0       0       0       0       0       0
       0       0       0       0       0       0       0       0       0       0
       0       0       0       0       0       0       0       0       0       0
       0       0       0       0       0       0       0       0       0       0
       0       0       0       0       0       0       0       0       0       0
       0       0       0       0       0       0       0       0       0       0
       0       0       0       0       0       0       0       0       0       0
       0       0       0       0       0       0       0       0       0       0
       0       0       0       0       0       0       0       0       0       0
       0       0       0       0       0       0       0       0       0       0
       0       0       0       0       0       0       0       0       0       0
       0       0       0       0       0       0       0       0       0       0
       0       0       0       0       0       0       0       0       0       0
       0       0       0       0       0       0       0       0       0       0
       0       0       0       0       0       0       0       0       0       0
       0       0       0       0       0       0       0       0       0       0
       0       0       0       0       0       0       0       0       0       0
       0       0       0       0       0       0       0       0       0       0
       0       0       0       0       0       0       0       0       0       0
       0       0       0       0       0       0       0       0       0       0
       0       0       0       0       0       0       0       0       0       0
       0       0       0       0       0       0       0       0       0       0
       0       0       0       0       0       0       0       0       0       0
       0       0       0       0       0       0       0       0       0       0
       0       0       0       0       0       0       0       0       0       0
       0       0       0       0       0       0       0       0       0       0
       0       0       0       0       0       0       0       0       0       0
       0       0       0       0       0       0       0       0       0       0
       0       0       0       0       0       0       0       0       0       0
       0       0       0       0       0       0       0       0       0       0
       0       0       0       0       0       0       0       0       0       0
       0       0       0       0       0       0       0       0       0       0
       0       0       0       0       0       0       0       0       0       0
       0       0       0       0       0       0       0       0       0       0
       0       0       0       0       0       0       0       0       0       0
       0       0       0       0       0       0       0       0       0       0
       0       0       0       0       0       0       0       0       0       0
       0       0       0       0       0       0       0       0       0       0
       0       0       0       0       0       0       0       0       0       0
       0       0       0       0       0       0       0       0       0       0
       0       0       0       0       0       0       0       0       0       0
       0       0       0       0       0       0       0       0       0       0
       0       0       0       0       0       0       0       0       0       0
       0       0       0       0       0       0       0       0       0       0
       0       0       0       0       0       0       0       0       0       0
       0       0       0       0       0       0       0       0       0       0
       0       0       0       0       0       0       0       0       0       0
       0       0       0       0       0       0       0       0       0       0
       0       0       0       0       0       0       0       0       0       0
       0       0       0       0       0       0       0       0       0       0
       0       0       0       0       0       0       0       0       0       0
       0       0       0       0       0       0       0       0       0       0
       0       0       0       0       0       0       0       0       0       0
       0       0       0       0       0       0       0       0       0       0
       0       0       0       0       0       0       0       0       0       0
       0       0       0       0       0       0       0       0       0       0
       0       0       0       0       0       0       0       0       0       0
       0       0       0       0       0       0       0       0       0       0
       0       0       0       0       0       0       0       0       0       0
       0       0       0       0       0       0       0       0       0       0
       0       0       0       0       0       0       0       0       0       0
       0       0       0       0       0       0       0       0       0       0
       0       0       0       0       0       0       0       0       0       0
       0       0       0       0       0       0       0       0       0       0
       0       0       0       0       0       0       0       0       0       0
       0       0       0       0       0       0       0       0       0       0
       0       0       0       0       0       0       0       0       0       0
       0       0       0       0       0       0       0       0       0       0
       0       0       0       0       0       0       0       0       0       0
       0       0       0       0       0       0       0       0       0       0
       0       0       0       0       0       0       0       0       0       0
       0       0       0       0       0       0       0       0       0       0
       0       0       0       0       0       0       0       0       0       0
       0       0       0       0       0       0       0       0       0       0
       0       0       0       0       0       0       0       0       0       0
       0       0       0       0       0       0       0       0       0       0
       0       0       0       0       0       0       0       0       0       0
       0       0       0       0       0       0       0       0       0       0
       0       0       0       0       0       0       0       0       0       0
       0       0       0       0       0       0       0       0       0       0
       0       0       0       0       0       0       0       0       0       0
       0       0       0       0       0       0       0       0       0       0
       0       0       0       0       0       0       0       0       0       0
       0       0       0       0       0       0       0       0       0       0
       0       0       0       0       0       0       0       0       0       0
       0       0       0       0       0       0       0       0       0       0
       0       0       0       0       0       0       0       0       0       0
       0       0       0       0       0       0       0       0       0       0
       0       0       0       0       0       0       0       0       0       0
       0       0       0       0       0       0       0       0       0       0
       0       0       0       0       0       0       0       0       0       0
       0       0       0       0       0       0       0       0       0       0
       0       0       0       0       0       0       0       0       0       0
       0       0       0       0       0       0       0       0       0       0
       0       0       0       0       0       0       0       0       0       0
       0       0       0       0       0       0       0       0       0       0
       0       0       0       0       0       0       0       0       0       0
       0       0       0       0       0       0       0       0       0       0
       0       0       0       0       0       0       0       0       0       0
       0       0       0       0       0       0       0       0       0       0
       0       0       0       0       0       0       0       0       0       0
       0       0       0       0       0       0       0       0       0       0
       0       0       0       0       0       0       0       0       0       0
       0       0       0       0       0       0       0       0       0       0
       0       0       0       0       0       0       0       0       0       0
       0       0       0       0       0       0       0       0       0       0
       0       0       0       0       0       0       0       0       0       0
       0       0       0       0       0       0       0       0       0       0
       0       0       0       0       0       0       0       0       0       0
       0       0       0       0       0       0       0       0       0       0
       0       0       0       0       0       0       0       0       0       0
       0       0       0       0       0       0       0       0       0       0
       0       0       0       0       0       0       0       0       0       0
       0       0       0       0       0       0       0       0       0       0
       0       0       0       0       0       0       0       0       0       0
       0       0       0       0       0       0       0       0       0       0
       0       0       0       0       0       0       0       0       0       0
       0       0       0       0       0       0       0       0       0       0
       0       0       0       0       0       0       0       0       0       0
       0       0       0       0       0       0       0       0       0       0
       0       0       0       0       0       0       0       0       0       0
       0       0       0       0       0       0       0       0       0       0
       0       0       0       0       0       0       0       0       0       0
       0       0       0       0       0       0       0       0       0       0
       0       0       0       0       0       0       0       0       0       0
       0       0       0       0       0       0       0       0       0       0
       0       0       0       0       0       0       0       0       0       0
       0       0       0       0       0       0       0       0       0       0
       0       0       0       0       0       0       0       0       0       0
       0       0       0       0       0       0       0       0       0       0
       0       0       0       0       0       0       0       0       0       0
       0       0       0       0       0       0       0       0       0       0
       0       0       0       0       0       0       0       0       0       0
       0       0       0       0       0       0       0       0       0       0
       0       0       0       0       0       0       0       0       0       0
       0       0       0       0       0       0       0       0       0       0
       0       0       0       0       0       0       0       0       0       0
       0       0       0       0       0       0       0       0       0       0
       0       0       0       0       0       0       0       0       0       0
       0       0       0       0       0       0       0       0       0       0
       0       0       0       0       0       0       0       0       0       0
       0       0       0       0       0       0       0       0       0       0
       0       0       0       0       0       0       0       0       0       0
       0       0       0       0       0       0       0       0       0       0
       0       0       0       0       0       0       0       0       0       0
       0       0       0       0       0       0       0       0       0       0
       0       0       0       0       0       0       0       0       0       0
       0       0       0       0       0       0       0       0       0       0
       0       0       0       0       0       0       0       0       0       0
       0       0       0       0       0       0       0       0       0       0
       0       0       0       0       0       0       0       0       0       0
       0       0       0       0       0       0       0       0       0       0
       0       0       0       0       0       0       0       0       0       0
       0       0       0       0       0       0       0       0       0       0
       0       0       0       0       0       0       0       0       0       0
       0       0       0       0       0       0       0       0       0       0
       0       0       0       0       0       0       0       0       0       0
       0       0       0       0       0       0       0       0       0       0
       0       0       0       0       0       0       0       0       0       0
       0       0       0       0       0       0       0       0       0       0
       0       0       0       0       0       0       0       0       0       0
       0       0       0       0       0       0       0       0       0       0
       0       0       0       0       0       0       0       0       0       0
       0       0       0       0       0       0       0       0       0       0
       0       0       0       0       0       0       0       0       0       0
       0       0       0       0       0       0       0       0       0       0
       0       0       0       0       0       0       0       0       0       0
       0       0       0       0       0       0       0       0       0       0
       0       0       0       0       0       0       0       0       0       0
       0       0       0       0       0       0       0       0       0       0
       0       0       0       0       0       0       0       0       0       0
       0       0       0       0       0       0       0       0       0       0
       0       0       0       0       0       0       0       0       0       0
       0       0       0       0       0       0       0       0       0       0
       0       0       0       0       0       0       0       0       0       0
       0       0       0       0       0       0       0       0       0       0
       0       0       0       0       0       0       0       0       0       0
       0       0       0       0       0       0       0       0       0       0
       0       0       0       0       0       0       0       0       0       0
       0       0       0       0       0       0       0       0       0       0
       0       0       0       0       0       0       0       0       0       0
       0       0       0       0       0       0       0       0       0       0
       0       0       0       0       0       0       0       0       0       0
       0       0       0       0       0       0       0       0       0       0
       0       0       0       0       0       0       0       0       0       0
       0       0       0       0       0       0       0       0       0       0
       0       0       0       0       0       0       0       0       0       0
       0       0       0       0       0       0       0       0       0       0
       0       0       0       0       0       0       0       0       0       0
       0       0       0       0       0       0       0       0       0       0
       0       0       0       0       0       0       0       0       0       0
       0       0       0       0       0       0       0       0       0       0
       0       0       0       0       0       0       0       0       0       0
       0       0       0       0       0       0       0       0       0       0
       0       0       0       0       0       0       0       0       0       0
       0       0       0       0       0       0       0       0       0       0
       0       0       0       0       0       0       0       0       0       0
       0       0       0       0       0       0       0       0       0       0
       0       0       0       0       0       0       0       0       0       0
       0       0       0       0       0       0       0       0       0       0
       0       0       0       0       0       0       0       0       0       0
       0       0       0       0       0       0       0       0       0       0
       0       0       0       0       0       0       0       0       0       0
       0       0       0       0       0       0       0       0       0       0
       0       0       0       0       0       0       0       0       0       0
       0       0       0       0       0       0       0       0       0       0
       0       0       0       0       0       0       0       0       0       0
       0       0       0       0       0       0       0       0       0       0
       0       0       0       0       0       0       0       0       0       0
       0       0       0       0       0       0       0       0       0       0
       0       0       0       0       0       0       0       0       0       0
       0       0       0       0       0       0       0       0       0       0
       0       0       0       0       0       0       0       0       0       0
       0       0       0       0       0       0       0       0       0       0
       0       0       0       0       0       0       0       0       0       0
       0       0       0       0       0       0       0       0       0       0
       0       0       0       0       0       0       0       0       0       0
       0       0       0       0       0       0       0       0       0       0
       0       0       0       0       0       0       0       0       0       0
       0       0       0       0       0       0       0       0       0       0
       0       0       0       0       0       0       0       0       0       0
       0       0       0       0       0       0       0       0       0       0
       0       0       0       0       0       0       0       0       0       0
       0       0       0       0       0       0       0       0       0       0
       0       0       0       0       0       0       0       0       0       0
       0       0       0       0       0       0       0       0       0       0
       0       0       0       0       0       0       0       0       0       0
       0       0       0       0       0       0       0       0       0       0
       0       0       0       0       0       0       0       0       0       0
       0       0       0       0       0       0       0       0       0       0
       0       0       0       0       0       0       0       0       0       0
       0       0       0       0       0       0       0       0       0       0
       0       0       0       0       0       0       0       0       0       0
       0       0       0       0       0       0       0       0       0       0
       0       0       0       0       0       0       0       0       0       0
       0       0       0       0       0       0       0       0       0       0
       0       0       0       0       0       0       0       0       0       0
       0       0       0       0       0       0       0       0       0       0
       0       0       0       0       0       0       0       0       0       0
       0       0       0       0       0       0       0       0       0       0
       0       0       0       0       0       0       0       0       0       0
       0       0       0       0       0       0       0       0       0       0
       0       0       0       0       0       0       0       0       0       0
       0       0       0       0       0       0       0       0       0       0
       0       0       0       0       0       0       0       0       0       0
       0       0       0       0       0       0       0       0       0       0
       0       0       0       0       0       0       0       0       0       0
       0       0       0       0       0       0       0       0       0       0
       0       0       0       0       0       0       0       0       0       0
       0       0       0       0       0       0       0       0       0       0
       0       0       0       0       0       0       0       0       0       0
       0       0       0       0       0       0       0       0       0       0
       0       0       0       0       0       0       0       0       0       0
       0       0       0       0       0       0       0       0       0       0
       0       0       0       0       0       0       0       0       0       0
       0       0       0       0       0       0       0       0       0       0
       0       0       0       0       0       0       0       0       0       0
       0       0       0       0       0       0       0       0       0       0
       0       0       0       0       0       0       0       0       0       0
       0       0       0       0       0       0       0       0       0       0
       0       0       0       0       0       0       0       0       0       0
       0       0       0       0       0       0       0       0       0       0
       0       0       0       0       0       0       0       0       0       0
       0       0       0       0       0       0       0       0       0       0
       0       0       0       0       0       0       0       0       0       0
       0       0       0       0       0       0       0       0       0       0
       0       0       0       0       0       0       0       0       0       0
       0       0       0       0       0       0       0       0       0       0
       0       0       0       0       0       0       0       0       0       0
       0       0       0       0       0       0       0       0       0       0
       0       0       0       0       0       0       0       0       0       0
       0       0       0       0       0       0       0       0       0       0
       0       0       0       0       0       0       0       0       0       0
       0       0       0       0       0       0       0       0       0       0
       0       0       0       0       0       0       0       0       0       0
       0       0       0       0       0       0       0       0       0       0
       0       0       0       0       0       0       0       0       0       0
       0       0       0       0       0       0       0       0       0       0
       0       0       0       0       0       0       0       0       0       0
       0       0       0       0       0       0       0       0       0       0
       0       0       0       0       0       0       0       0       0       0
       0       0       0       0       0       0       0       0       0       0
       0       0       0       0       0       0       0       0       0       0
       0       0       0       0       0       0       0       0       0       0
       0       0       0       0       0       0       0       0       0       0
       0       0       0       0       0       0       0       0       0       0
       0       0       0       0       0       0       0       0       0       0
       0       0       0       0       0       0       0       0       0       0
       0       0       0       0       0       0       0       0       0       0
       0       0       0       0       0       0       0       0       0       0
       0       0       0       0       0       0       0       0       0       0
       0       0       0       0       0       0       0       0       0       0
       0       0       0       0       0       0       0       0       0       0
       0       0       0       0       0       0       0       0       0       0
       0       0       0       0       0       0       0       0       0       0
       0       0       0       0       0       0       0       0       0       0
       0       0       0       0       0       0       0       0       0       0
       0       0       0       0       0       0       0       0       0       0
       0       0       0       0       0       0       0       0       0       0
       0       0       0       0       0       0       0       0       0       0
       0       0       0       0       0       0       0       0       0       0
       0       0       0       0       0       0       0       0       0       0
       0       0       0       0       0       0       0       0       0       0
       0       0       0       0       0       0       0       0       0       0
       0       0       0       0       0       0       0       0       0       0
       0       0       0       0       0       0       0       0       0       0
       0       0       0       0       0       0       0       0       0       0
       0       0       0       0       0       0       0       0       0       0
       0       0       0       0       0       0       0       0       0       0
       0       0       0       0       0       0       0       0       0       0
       0       0       0       0       0       0       0       0       0       0
       0       0       0       0       0       0       0       0       0       0
       0       0       0       0       0       0       0       0       0       0
       0       0       0       0       0       0       0       0       0       0
       0       0       0       0       0       0       0       0       0       0
       0       0       0       0       0       0       0       0       0       0
       0       0       0       0       0       0       0       0       0       0
       0       0       0       0       0       0       0       0       0       0
       0       0       0       0       0       0       0       0       0       0
       0       0       0       0       0       0       0       0       0       0
       0       0       0       0       0       0       0       0       0       0
       0       0       0       0       0       0       0       0       0       0
       0       0       0       0       0       0       0       0       0       0
       0       0       0       0       0       0       0       0       0       0
       0       0       0       0       0       0       0       0       0       0
       0       0       0       0       0       0       0       0       0       0
       0       0       0       0       0       0       0       0       0       0
       0       0       0       0       0       0       0       0       0       0
       0       0       0       0       0       0       0       0       0       0
       0       0       0       0       0       0       0       0       0       0
       0       0       0       0       0       0       0       0       0       0
       0       0       0       0       0       0       0       0       0       0
       0       0       0       0       0       0       0       0       0       0
       0       0       0       0       0       0       0       0       0       0
       0       0       0       0       0       0       0       0       0       0
       0       0       0       0       0       0       0       0       0       0
       0       0       0       0       0       0       0       0       0       0
       0       0       0       0       0       0       0       0       0       0
       0       0       0       0       0       0       0       0       0       0
       0       0       0       0       0       0       0       0       0       0
       0       0       0       0       0       0       0       0       0       0
       0       0       0       0       0       0       0       0       0       0
       0       0       0       0       0       0       0       0       0       0
       0       0       0       0       0       0       0       0       0       0
       0       0       0       0       0       0       0       0       0       0
       0       0       0       0       0       0       0       0       0       0
       0       0       0       0       0       0       0       0       0       0
       0       0       0       0       0       0       0       0       0       0
       0       0       0       0       0       0       0       0       0       0
       0       0       0       0       0       0       0       0       0       0
       0       0       0       0       0       0       0       0       0       0
       0       0       0       0       0       0       0       0       0       0
       0       0       0       0       0       0       0       0       0       0
       0       0       0       0       0       0       0       0       0       0
       0       0       0       0       0       0       0       0       0       0
       0       0       0       0       0       0       0       0       0       0
       0       0       0       0       0       0       0       0       0       0
       0       0       0       0       0       0       0       0       0       0
       0       0       0       0       0       0       0       0       0       0
       0       0       0       0       0       0       0       0       0       0
       0       0       0       0       0       0       0       0       0       0
       0       0       0       0       0       0       0       0       0       0
       0       0       0       0       0       0       0       0       0       0
       0       0       0       0       0       0       0       0       0       0
       0       0       0       0       0       0       0       0       0       0
       0       0       0       0       0       0       0       0       0       0
       0       0       0       0       0       0       0       0       0       0
       0       0       0       0       0       0       0       0       0       0
       0       0       0       0       0       0       0       0       0       0
       0       0       0       0       0       0       0       0       0       0
       0       0       0       0       0       0       0       0       0       0
       0       0       0       0       0       0       0       0       0       0
       0       0       0       0       0       0       0       0       0       0
       0       0       0       0       0       0       0       0       0       0
       0       0       0       0       0       0       0       0       0       0
       0       0       0       0       0       0       0       0       0       0
       0       0       0       0       0       0       0       0       0       0
       0       0       0       0       0       0       0       0       0       0
       0       0       0       0       0       0       0       0       0       0
       0       0       0       0       0       0       0       0       0       0
       0       0       0       0       0       0       0       0       0       0
       0       0       0       0       0       0       0       0       0       0
       0       0       0       0       0       0       0       0       0       0
       0       0       0       0       0       0       0       0       0       0
       0       0       0       0       0       0       0       0       0       0
       0       0       0       0       0       0       0       0       0       0
       0       0       0       0       0       0       0       0       0       0
       0       0       0       0       0       0       0       0       0       0
       0       0       0       0       0       0       0       0       0       0
       0       0       0       0       0       0       0       0       0       0
       0       0       0       0       0       0       0       0       0       0
       0       0       0       0       0       0       0       0       0       0
       0       0       0       0       0       0       0       0       0       0
       0       0       0       0       0       0       0       0       0       0
       0       0       0       0       0       0       0       0       0       0
       0       0       0       0       0       0       0       0       0       0
       0       0       0       0       0       0       0       0       0       0
       0       0       0       0       0       0       0       0       0       0
       0       0       0       0       0       0       0       0       0       0
       0       0       0       0       0       0       0       0       0       0
       0       0       0       0       0       0       0       0       0       0
       0       0       0       0       0       0       0       0       0       0
       0       0       0       0       0       0       0       0       0       0
       0       0       0       0       0       0       0       0       0       0
       0       0       0       0       0       0       0       0       0       0
       0       0       0       0       0       0       0       0       0       0
       0       0       0       0       0       0       0       0       0       0
       0       0       0       0       0       0       0       0       0       0
       0       0       0       0       0       0       0       0       0       0
       0       0       0       0       0       0       0       0       0       0
       0       0       0       0       0       0       0       0       0       0
       0       0       0       0       0       0       0       0       0       0
       0       0       0       0       0       0       0       0       0       0
       0       0       0       0       0       0       0       0       0       0
       0       0       0       0       0       0       0       0       0       0
       0       0       0       0       0       0       0       0       0       0
       0       0       0       0       0       0       0       0       0       0
       0       0       0       0       0       0       0       0       0       0
       0       0       0       0       0       0       0       0       0       0
       0       0       0       0       0       0       0       0       0       0
       0       0       0       0       0       0       0       0       0       0
       0       0       0       0       0       0       0       0       0       0
       0       0       0       0       0       0       0       0       0       0
       0       0       0       0       0       0       0       0       0       0
       0       0       0       0       0       0       0       0       0       0
       0       0       0       0       0       0       0       0       0       0
       0       0       0       0       0       0       0       0       0       0
       0       0       0       0       0       0       0       0       0       0
       0       0       0       0       0       0       0       0       0       0
       0       0       0       0       0       0       0       0       0       0
       0       0       0       0       0       0       0       0       0       0
       0       0       0       0       0       0       0       0       0       0
       0       0       0       0       0       0       0       0       0       0
       0       0       0       0       0       0       0       0       0       0
       0       0       0       0       0       0       0       0       0       0
       0       0       0       0       0       0       0       0       0       0
       0       0       0       0       0       0       0       0       0       0
       0       0       0       0       0       0       0       0       0       0
       0       0       0       0       0       0       0       0       0       0
       0       0       0       0       0       0       0       0       0       0
       0       0       0       0       0       0       0       0       0       0
       0       0       0       0       0       0       0       0       0       0
       0       0       0       0       0       0       0       0       0       0
       0       0       0       0       0       0       0       0       0       0
       0       0       0       0       0       0       0       0       0       0
       0       0       0       0       0       0       0       0       0       0
       0       0       0       0       0       0       0       0       0       0
       0       0       0       0       0       0       0       0       0       0
       0       0       0       0       0       0       0       0       0       0
       0       0       0       0       0       0       0       0       0       0
       0       0       0       0       0       0       0       0       0       0
       0       0       0       0       0       0       0       0       0       0
       0       0       0       0       0       0       0       0       0       0
       0       0       0       0       0       0       0       0       0       0
       0       0       0       0       0       0       0       0       0       0
       0       0       0       0       0       0       0       0       0       0
       0       0       0       0       0       0       0       0       0       0
       0       0       0       0       0       0       0       0       0       0
       0       0       0       0       0       0       0       0       0       0
       0       0       0       0       0       0       0       0       0       0
       0       0       0       0       0       0       0       0       0       0
       0       0       0       0       0       0       0       0       0       0
       0       0       0       0       0       0       0       0       0       0
       0       0       0       0       0       0       0       0       0       0
       0       0       0       0       0       0       0       0       0       0
       0       0       0       0       0       0       0       0       0       0
       0       0       0       0       0       0       0       0       0       0
       0       0       0       0       0       0       0       0       0       0
       0       0       0       0       0       0       0       0       0       0
       0       0       0       0       0       0       0       0       0       0
       0       0       0       0       0       0       0       0       0       0
       0       0       0       0       0       0       0       0       0       0
       0       0       0       0       0       0       0       0       0       0
       0       0       0       0       0       0       0       0       0       0
       0       0       0       0       0       0       0       0       0       0
       0       0       0       0       0       0       0       0       0       0
       0       0       0       0       0       0       0       0       0       0
       0       0       0       0       0       0       0       0       0       0
       0       0       0       0       0       0       0       0       0       0
       0       0       0       0       0       0       0       0       0       0
       0       0       0       0       0       0       0       0       0       0
       0       0       0       0       0       0       0       0       0       0
       0       0       0       0       0       0       0       0       0       0
       0       0       0       0       0       0       0       0       0       0
       0       0       0       0       0       0       0       0       0       0
       0       0       0       0       0       0       0       0       0       0
       0       0       0       0       0       0       0       0       0       0
       0       0       0       0       0       0       0       0       0       0
       0       0       0       0       0       0       0       0       0       0
       0       0       0       0       0       0       0       0       0       0
       0       0       0       0       0       0       0       0       0       0
       0       0       0       0       0       0       0       0       0       0
       0       0       0       0       0       0       0       0       0       0
       0       0       0       0       0       0       0       0       0       0
       0       0       0       0       0       0       0       0       0       0
       0       0       0       0       0       0       0       0       0       0
       0       0       0       0       0       0       0       0       0       0
       0       0       0       0       0       0       0       0       0       0
       0       0       0       0       0       0       0       0       0       0
       0       0       0       0       0       0       0       0       0       0
       0       0       0       0       0       0       0       0       0       0
       0       0       0       0       0       0       0       0       0       0
       0       0       0       0       0       0       0       0       0       0
       0       0       0       0       0       0       0       0       0       0
       0       0       0       0       0       0       0       0       0       0
       0       0       0       0       0       0       0       0       0       0
       0       0       0       0       0       0       0       0       0       0
       0       0       0       0       0       0       0       0       0       0
       0       0       0       0       0       0       0       0       0       0
       0       0       0       0       0       0       0       0       0       0
       0       0       0       0       0       0       0       0       0       0
       0       0       0       0       0       0       0       0       0       0
       0       0       0       0       0       0       0       0       0       0
       0       0       0       0       0       0       0       0       0       0
       0       0       0       0       0       0       0       0       0       0
       0       0       0       0       0       0       0       0       0       0
       0       0       0       0       0       0       0       0       0       0
       0       0       0       0       0       0       0       0       0       0
       0       0       0       0       0       0       0       0       0       0
       0       0       0       0       0       0       0       0       0       0
       0       0       0       0       0       0       0       0       0       0
       0       0       0       0       0       0       0       0       0       0
       0       0       0       0       0       0       0       0       0       0
       0       0       0       0       0       0       0       0       0       0
       0       0       0       0       0       0       0       0       0       0
       0       0       0       0       0       0       0       0       0       0
       0       0       0       0       0       0       0       0       0       0
       0       0       0       0       0       0       0       0       0       0
       0       0       0       0       0       0       0       0       0       0
       0       0       0       0       0       0       0       0       0       0
       0       0       0       0       0       0       0       0       0       0
       0       0       0       0       0       0       0       0       0       0
       0       0       0       0       0       0       0       0       0       0
       0       0       0       0       0       0       0       0       0       0
       0       0       0       0       0       0       0       0       0       0
       0       0       0       0       0       0       0       0       0       0
       0       0       0       0       0       0       0       0       0       0
       0       0       0       0       0       0       0       0       0       0
       0       0       0       0       0       0       0       0       0       0
       0       0       0       0       0       0       0       0       0       0
       0       0       0       0       0       0       0       0       0       0
       0       0       0       0       0       0       0       0       0       0
       0       0       0       0       0       0       0       0       0       0
       0       0       0       0       0       0       0       0       0       0
       0       0       0       0       0       0       0       0       0       0
       0       0       0       0       0       0       0       0       0       0
       0       0       0       0       0       0       0       0       0       0
       0       0       0       0       0       0       0       0       0       0
       0       0       0       0       0       0       0       0       0       0
       0       0       0       0       0       0       0       0       0       0
       0       0       0       0       0       0       0       0       0       0
       0       0       0       0       0       0       0       0       0       0
       0       0       0       0       0       0       0       0       0       0
       0       0       0       0       0       0       0       0       0       0
       0       0       0       0       0       0       0       0       0       0
       0       0       0       0       0       0       0       0       0       0
       0       0       0       0       0       0       0       0       0       0
       0       0       0       0       0       0       0       0       0       0
       0       0       0       0       0       0       0       0       0       0
       0       0       0       0       0       0       0       0       0       0
       0       0       0       0       0       0       0       0       0       0
       0       0       0       0       0       0       0       0       0       0
       0       0       0       0       0       0       0       0       0       0
       0       0       0       0       0       0       0       0       0       0
       0       0       0       0       0       0       0       0       0       0
       0       0       0       0       0       0       0       0       0       0
       0       0       0       0       0       0       0       0       0       0
       0       0       0       0       0       0       0       0       0       0
       0       0       0       0       0       0       0       0       0       0
       0       0       0       0       0       0       0       0       0       0
       0       0       0       0       0       0       0       0       0       0
       0       0       0       0       0       0       0       0       0       0
       0       0       0       0       0       0       0       0       0       0
       0       0       0       0       0       0       0       0       0       0
       0       0       0       0       0       0       0       0       0       0
       0       0       0       0       0       0       0       0       0       0
       0       0       0       0       0       0       0       0       0       0
       0       0       0       0       0       0       0       0       0       0
       0       0       0       0       0       0       0       0       0       0
       0       0       0       0       0       0       0       0       0       0
       0       0       0       0       0       0       0       0       0       0
       0       0       0       0       0       0       0       0       0       0
       0       0       0       0       0       0       0       0       0       0
       0       0       0       0       0       0       0       0       0       0
       0       0       0       0       0       0       0       0       0       0
       0       0       0       0       0       0       0       0       0       0
       0       0       0       0       0       0       0       0       0       0
       0       0       0       0       0       0       0       0       0       0
       0       0       0       0       0       0       0       0       0       0
       0       0       0       0       0       0       0       0       0       0
       0       0       0       0       0       0       0       0       0       0
       0       0       0       0       0       0       0       0       0       0
       0       0       0       0       0       0       0       0       0       0
       0       0       0       0       0       0       0       0       0       0
       0       0       0       0       0       0       0       0       0       0
       0       0       0       0       0       0       0       0       0       0
       0       0       0       0       0       0       0       0       0       0
       0       0       0       0       0       0       0       0       0       0
       0       0       0       0       0       0       0       0       0       0
       0       0       0       0       0       0       0       0       0       0
       0       0       0       0       0       0       0       0       0       0
       0       0       0       0       0       0       0       0       0       0
       0       0       0       0       0       0       0       0       0       0
       0       0       0       0       0       0       0       0       0       0
       0       0       0       0       0       0       0       0       0       0
       0       0       0       0       0       0       0       0       0       0
       0       0       0       0       0       0       0       0       0       0
       0       0       0       0       0       0       0       0       0       0
       0       0       0       0       0       0       0       0       0       0
       0       0       0       0       0       0       0       0       0       0
       0       0       0       0       0       0       0       0       0       0
       0       0       0       0       0       0       0       0       0       0
       0       0       0       0       0       0       0       0       0       0
       0       0       0       0       0       0       0       0       0       0
       0       0       0       0       0       0       0       0       0       0
       0       0       0       0       0       0       0       0       0       0
       0       0       0       0       0       0       0       0       0       0
       0       0       0       0       0       0       0       0       0       0
       0       0       0       0       0       0       0       0       0       0
       0       0       0       0       0       0       0       0       0       0
       0       0       0       0       0       0       0       0       0       0
       0       0       0       0       0       0       0       0       0       0
       0       0       0       0       0       0       0       0       0       0
       0       0       0       0       0       0       0       0       0       0
       0       0       0       0       0       0       0       0       0       0
       0       0       0       0       0       0       0       0       0       0
       0       0       0       0       0       0       0       0       0       0
       0       0       0       0       0       0       0       0       0       0
       0       0       0       0       0       0       0       0       0       0
       0       0       0       0       0       0       0       0       0       0
       0       0       0       0       0       0       0       0       0       0
       0       0       0       0       0       0       0       0       0       0
       0       0       0       0       0       0       0       0       0       0
       0       0       0       0       0       0       0       0       0       0
       0       0       0       0       0       0       0       0       0       0
       0       0       0       0       0       0       0       0       0       0
       0       0       0       0       0       0       0       0       0       0
       0       0       0       0       0       0       0       0       0       0
       0       0       0       0       0       0       0       0       0       0
       0       0       0       0       0       0       0       0       0       0
       0       0       0       0       0       0       0       0       0       0
       0       0       0       0       0       0       0       0       0       0
       0       0       0       0       0       0       0       0       0       0
       0       0       0       0       0       0       0       0       0       0
       0       0       0       0       0       0       0       0       0       0
       0       0       0       0       0       0       0       0       0       0
       0       0       0       0       0       0       0       0       0       0
       0       0       0       0       0       0       0       0       0       0
       0       0       0       0       0       0       0       0       0       0
       0       0       0       0       0       0       0       0       0       0
       0       0       0       0       0       0       0       0       0       0
       0       0       0       0       0       0       0       0       0       0
       0       0       0       0       0       0       0       0       0       0
       0       0       0       0       0       0       0       0       0       0
       0       0       0       0       0       0       0       0       0       0
       0       0       0       0       0       0       0       0       0       0
       0       0       0       0       0       0       0       0       0       0
       0       0       0       0       0       0       0       0       0       0
       0       0       0       0       0       0       0       0       0       0
       0       0       0       0       0       0       0       0       0       0
       0       0       0       0       0       0       0       0       0       0
       0       0       0       0       0       0       0       0       0       0
       0       0       0       0       0       0       0       0       0       0
       0       0       0       0       0       0       0       0       0       0
       0       0       0       0       0       0       0       0       0       0
       0       0       0       0       0       0       0       0       0       0
       0       0       0       0       0       0       0       0       0       0
       0       0       0       0       0       0       0       0       0       0
       0       0       0       0       0       0       0       0       0       0
       0       0       0       0       0       0       0       0       0       0
       0       0       0       0       0       0       0       0       0       0
       0       0       0       0       0       0       0       0       0       0
       0       0       0       0       0       0       0       0       0       0
       0       0       0       0       0       0       0       0       0       0
       0       0       0       0       0       0       0       0       0       0
       0       0       0       0       0       0       0       0       0       0
       0       0       0       0       0       0       0       0       0       0
       0       0       0       0       0       0       0       0       0       0
       0       0       0       0       0       0       0       0       0       0
       0       0       0       0       0       0       0       0       0       0
       0       0       0       0       0       0       0       0       0       0
       0       0       0       0       0       0       0       0       0       0
       0       0       0       0       0       0       0       0       0       0
       0       0       0       0       0       0       0       0       0       0
       0       0       0       0       0       0       0       0       0       0
       0       0       0       0       0       0       0       0       0       0
       0       0       0       0       0       0       0       0       0       0
       0       0       0       0       0       0       0       0       0       0
       0       0       0       0       0       0       0       0       0       0
       0       0       0       0       0       0       0       0       0       0
       0       0       0       0       0       0       0       0       0       0
       0       0       0       0       0       0       0       0       0       0
       0       0       0       0       0       0       0       0       0       0
       0       0       0       0       0       0       0       0       0       0
       0       0       0       0       0       0       0       0       0       0
       0       0       0       0       0       0       0       0       0       0
       0       0       0       0       0       0       0       0       0       0
       0       0       0       0       0       0       0       0       0       0
       0       0       0       0       0       0       0       0       0       0
       0       0       0       0       0       0       0       0       0       0
       0       0       0       0       0       0       0       0       0       0
       0       0       0       0       0       0       0       0       0       0
       0       0       0       0       0       0       0       0       0       0
       0       0       0       0       0       0       0       0       0       0
       0       0       0       0       0       0       0       0       0       0
       0       0       0       0       0       0       0       0       0       0
       0       0       0       0       0       0       0       0       0       0
       0       0       0       0       0       0       0       0       0       0
       0       0       0       0       0       0       0       0       0       0
       0       0       0       0       0       0       0       0       0       0
       0       0       0       0       0       0       0       0       0       0
       0       0       0       0       0       0       0       0       0       0
       0       0       0       0       0       0       0       0       0       0
       0       0       0       0       0       0       0       0       0       0
       0       0       0       0       0       0       0       0       0       0
       0       0       0       0       0       0       0       0       0       0
       0       0       0       0       0       0       0       0       0       0
       0       0       0       0       0       0       0       0       0       0
       0       0       0       0       0       0       0       0       0       0
       0       0       0       0       0       0       0       0       0       0
       0       0       0       0       0       0       0       0       0       0
       0       0       0       0       0       0       0       0       0       0
       0       0       0       0       0       0       0       0       0       0
       0       0       0       0       0       0       0       0       0       0
       0       0       0       0       0       0       0       0       0       0
       0       0       0       0       0       0       0       0       0       0
       0       0       0       0       0       0       0       0       0       0
       0       0       0       0       0       0       0       0       0       0
       0       0       0       0       0       0       0       0       0       0
       0       0       0       0       0       0       0       0       0       0
       0       0       0       0       0       0       0       0       0       0
       0       0       0       0       0       0       0       0       0       0
       0       0       0       0       0       0       0       0       0       0
       0       0       0       0       0       0       0       0       0       0
       0       0       0       0       0       0       0       0       0       0
       0       0       0       0       0       0       0       0       0       0
       0       0       0       0       0       0       0       0       0       0
       0       0       0       0       0       0       0       0       0       0
       0       0       0       0       0       0       0       0       0       0
       0       0       0       0       0       0       0       0       0       0
       0       0       0       0       0       0       0       0       0       0
       0       0       0       0       0       0       0       0       0       0
       0       0       0       0       0       0       0       0       0       0
       0       0       0       0       0       0       0       0       0       0
       0       0       0       0       0       0       0       0       0       0
       0       0       0       0       0       0       0       0       0       0
       0       0       0       0       0       0       0       0       0       0
       0       0       0       0       0       0       0       0       0       0
       0       0       0       0       0       0       0       0       0       0
       0       0       0       0       0       0       0       0       0       0
       0       0       0       0       0       0       0       0       0       0
       0       0       0       0       0       0       0       0       0       0
       0       0       0       0       0       0       0       0       0       0
       0       0       0       0       0       0       0       0       0       0
       0       0       0       0       0       0       0       0       0       0
       0       0       0       0       0       0       0       0       0       0
       0       0       0       0       0       0       0       0       0       0
       0       0       0       0       0       0       0       0       0       0
       0       0       0       0       0       0       0       0       0       0
       0       0       0       0       0       0       0       0       0       0
       0       0       0       0       0       0       0       0       0       0
       0       0       0       0       0       0
%FLAG SOLVENT_POINTERS                                                          
%FORMAT(3I8)                                                                    
     172   17006       5
%FLAG ATOMS_PER_MOLECULE                                                        
%FORMAT(10I8)                                                                   
     630     630     630     630       3       3       3       3       3       3
       3       3       3       3       3       3       3       3       3       3
       3       3       3       3       3       3       3       3       3       3
       3       3       3       3       3       3       3       3       3       3
       3       3       3       3       3       3       3       3       3       3
       3       3       3       3       3       3       3       3       3       3
       3       3       3       3       3       3       3       3       3       3
       3       3       3       3       3       3       3       3       3       3
       3       3       3       3       3       3       3       3       3       3
       3       3       3       3       3       3       3       3       3       3
       3       3       3       3       3       3       3       3       3       3
       3       3       3       3       3       3       3       3       3       3
       3       3       3       3       3       3       3       3       3       3
       3       3       3       3       3       3       3       3       3       3
       3       3       3       3       3       3       3       3       3       3
       3       3       3       3       3       3       3       3       3       3
       3       3       3       3       3       3       3       3       3       3
       3       3       3       3       3       3       3       3       3       3
       3       3       3       3       3       3       3       3       3       3
       3       3       3       3       3       3       3       3       3       3
       3       3       3       3       3       3       3       3       3       3
       3       3       3       3       3       3       3       3       3       3
       3       3       3       3       3       3       3       3       3       3
       3       3       3       3       3       3       3       3       3       3
       3       3       3       3       3       3       3       3       3       3
       3       3       3       3       3       3       3       3       3       3
       3       3       3       3       3       3       3       3       3       3
       3       3       3       3       3       3       3       3       3       3
       3       3       3       3       3       3       3       3       3       3
       3       3       3       3       3       3       3       3       3       3
       3       3       3       3       3       3       3       3       3       3
       3       3       3       3       3       3       3       3       3       3
       3       3       3       3       3       3       3       3       3       3
       3       3       3       3       3       3       3       3       3       3
       3       3       3       3       3       3       3       3       3       3
       3       3       3       3       3       3       3       3       3       3
       3       3       3       3       3       3       3       3       3       3
       3       3       3       3       3       3       3       3       3       3
       3       3       3       3       3       3       3       3       3       3
       3       3       3       3       3       3       3       3       3       3
       3       3       3       3       3       3       3       3       3       3
       3       3       3       3       3       3       3       3       3       3
       3       3       3       3       3       3       3       3       3       3
       3       3       3       3       3       3       3       3       3       3
       3       3       3       3       3       3       3       3       3       3
       3       3       3       3       3       3       3       3       3       3
       3       3       3       3       3       3       3       3       3       3
       3       3       3       3       3       3       3       3       3       3
       3       3       3       3       3       3       3       3       3       3
       3       3       3       3       3       3       3       3       3       3
       3       3       3       3       3       3       3       3       3       3
       3       3       3       3       3       3       3       3       3       3
       3       3       3       3       3       3       3       3       3       3
       3       3       3       3       3       3       3       3       3       3
       3       3       3       3       3       3       3       3       3       3
       3       3       3       3       3       3       3       3       3       3
       3       3       3       3       3       3       3       3       3       3
       3       3       3       3       3       3       3       3       3       3
       3       3       3       3       3       3       3       3       3       3
       3       3       3       3       3       3       3       3       3       3
       3       3       3       3       3       3       3       3       3       3
       3       3       3       3       3       3       3       3       3       3
       3       3       3       3       3       3       3       3       3       3
       3       3       3       3       3       3       3       3       3       3
       3       3       3       3       3       3       3       3       3       3
       3       3       3       3       3       3       3       3       3       3
       3       3       3       3       3       3       3       3       3       3
       3       3       3       3       3       3       3       3       3       3
       3       3       3       3       3       3       3       3       3       3
       3       3       3       3       3       3       3       3       3       3
       3       3       3       3       3       3       3       3       3       3
       3       3       3       3       3       3       3       3       3       3
       3       3       3       3       3       3       3       3       3       3
       3       3       3       3       3       3       3       3       3       3
       3       3       3       3       3       3       3       3       3       3
       3       3       3       3       3       3       3       3       3       3
       3       3       3       3       3       3       3       3       3       3
       3       3       3       3       3       3       3       3       3       3
       3       3       3       3       3       3       3       3       3       3
       3       3       3       3       3       3       3       3       3       3
       3       3       3       3       3       3       3       3       3       3
       3       3       3       3       3       3       3       3       3       3
       3       3       3       3       3       3       3       3       3       3
       3       3       3       3       3       3       3       3       3       3
       3       3       3       3       3       3       3       3       3       3
       3       3       3       3       3       3       3       3       3       3
       3       3       3       3       3       3       3       3       3       3
       3       3       3       3       3       3       3       3       3       3
       3       3       3       3       3       3       3       3       3       3
       3       3       3       3       3       3       3       3       3       3
       3       3       3       3       3       3       3       3       3       3
       3       3       3       3       3       3       3       3       3       3
       3       3       3       3       3       3       3       3       3       3
       3       3       3       3       3       3       3       3       3       3
       3       3       3       3       3       3       3       3       3       3
       3       3       3       3       3       3       3       3       3       3
       3       3       3       3       3       3       3       3       3       3
       3       3       3       3       3       3       3       3       3       3
       3       3       3       3       3       3       3       3       3       3
       3       3       3       3       3       3       3       3       3       3
       3       3       3       3       3       3       3       3       3       3
       3       3       3       3       3       3       3       3       3       3
       3       3       3       3       3       3       3       3       3       3
       3       3       3       3       3       3       3       3       3       3
       3       3       3       3       3       3       3       3       3       3
       3       3       3       3       3       3       3       3       3       3
       3       3       3       3       3       3       3       3       3       3
       3       3       3       3       3       3       3       3       3       3
       3       3       3       3       3       3       3       3       3       3
       3       3       3       3       3       3       3       3       3       3
       3       3       3       3       3       3       3       3       3       3
       3       3       3       3       3       3       3       3       3       3
       3       3       3       3       3       3       3       3       3       3
       3       3       3       3       3       3       3       3       3       3
       3       3       3       3       3       3       3       3       3       3
       3       3       3       3       3       3       3       3       3       3
       3       3       3       3       3       3       3       3       3       3
       3       3       3       3       3       3       3       3       3       3
       3       3       3       3       3       3       3       3       3       3
       3       3       3       3       3       3       3       3       3       3
       3       3       3       3       3       3       3       3       3       3
       3       3       3       3       3       3       3       3       3       3
       3       3       3       3       3       3       3       3       3       3
       3       3       3       3       3       3       3       3       3       3
       3       3       3       3       3       3       3       3       3       3
       3       3       3       3       3       3       3       3       3       3
       3       3       3       3       3       3       3       3       3       3
       3       3       3       3       3       3       3       3       3       3
       3       3       3       3       3       3       3       3       3       3
       3       3       3       3       3       3       3       3       3       3
       3       3       3       3       3       3       3       3       3       3
       3       3       3       3       3       3       3       3       3       3
       3       3       3       3       3       3       3       3       3       3
       3       3       3       3       3       3       3       3       3       3
       3       3       3       3       3       3       3       3       3       3
       3       3       3       3       3       3       3       3       3       3
       3       3       3       3       3       3       3       3       3       3
       3       3       3       3       3       3       3       3       3       3
       3       3       3       3       3       3       3       3       3       3
       3       3       3       3       3       3       3       3       3       3
       3       3       3       3       3       3       3       3       3       3
       3       3       3       3       3       3       3       3       3       3
       3       3       3       3       3       3       3       3       3       3
       3       3       3       3       3       3       3       3       3       3
       3       3       3       3       3       3       3       3       3       3
       3       3       3       3       3       3       3       3       3       3
       3       3       3       3       3       3       3       3       3       3
       3       3       3       3       3       3       3       3       3       3
       3       3       3       3       3       3       3       3       3       3
       3       3       3       3       3       3       3       3       3       3
       3       3       3       3       3       3       3       3       3       3
       3       3       3       3       3       3       3       3       3       3
       3       3       3       3       3       3       3       3       3       3
       3       3       3       3       3       3       3       3       3       3
       3       3       3       3       3       3       3       3       3       3
       3       3       3       3       3       3       3       3       3       3
       3       3       3       3       3       3       3       3       3       3
       3       3       3       3       3       3       3       3       3       3
       3       3       3       3       3       3       3       3       3       3
       3       3       3       3       3       3       3       3       3       3
       3       3       3       3       3       3       3       3       3       3
       3       3       3       3       3       3       3       3       3       3
       3       3       3       3       3       3       3       3       3       3
       3       3       3       3       3       3       3       3       3       3
       3       3       3       3       3       3       3       3       3       3
       3       3       3       3       3       3       3       3       3       3
       3       3       3       3       3       3       3       3       3       3
       3       3       3       3       3       3       3       3       3       3
       3       3       3       3       3       3       3       3       3       3
       3       3       3       3       3       3       3       3       3       3
       3       3       3       3       3       3       3       3       3       3
       3       3       3       3       3       3       3       3       3       3
       3       3       3       3       3       3       3       3       3       3
       3       3       3       3       3       3       3       3       3       3
       3       3       3       3       3       3       3       3       3       3
       3       3       3       3       3       3       3       3       3       3
       3       3       3       3       3       3       3       3       3       3
       3       3       3       3       3       3       3       3       3       3
       3       3       3       3       3       3       3       3       3       3
       3       3       3       3       3       3       3       3       3       3
       3       3       3       3       3       3       3       3       3       3
       3       3       3       3       3       3       3       3       3       3
       3       3       3       3       3       3       3       3       3       3
       3       3       3       3       3       3       3       3       3       3
       3       3       3       3       3       3       3       3       3       3
       3       3       3       3       3       3       3       3       3       3
       3       3       3       3       3       3       3       3       3       3
       3       3       3       3       3       3       3       3       3       3
       3       3       3       3       3       3       3       3       3       3
       3       3       3       3       3       3       3       3       3       3
       3       3       3       3       3       3       3       3       3       3
       3       3       3       3       3       3       3       3       3       3
       3       3       3       3       3       3       3       3       3       3
       3       3       3       3       3       3       3       3       3       3
       3       3       3       3       3       3       3       3       3       3
       3       3       3       3       3       3       3       3       3       3
       3       3       3       3       3       3       3       3       3       3
       3       3       3       3       3       3       3       3       3       3
       3       3       3       3       3       3       3       3       3       3
       3       3       3       3       3       3       3       3       3       3
       3       3       3       3       3       3       3       3       3       3
       3       3       3       3       3       3       3       3       3       3
       3       3       3       3       3       3       3       3       3       3
       3       3       3       3       3       3       3       3       3       3
       3       3       3       3       3       3       3       3       3       3
       3       3       3       3       3       3       3       3       3       3
       3       3       3       3       3       3       3       3       3       3
       3       3       3       3       3       3       3       3       3       3
       3       3       3       3       3       3       3       3       3       3
       3       3       3       3       3       3       3       3       3       3
       3       3       3       3       3       3       3       3       3       3
       3       3       3       3       3       3       3       3       3       3
       3       3       3       3       3       3       3       3       3       3
       3       3       3       3       3       3       3       3       3       3
       3       3       3       3       3       3       3       3       3       3
       3       3       3       3       3       3       3       3       3       3
       3       3       3       3       3       3       3       3       3       3
       3       3       3       3       3       3       3       3       3       3
       3       3       3       3       3       3       3       3       3       3
       3       3       3       3       3       3       3       3       3       3
       3       3       3       3       3       3       3       3       3       3
       3       3       3       3       3       3       3       3       3       3
       3       3       3       3       3       3       3       3       3       3
       3       3       3       3       3       3       3       3       3       3
       3       3       3       3       3       3       3       3       3       3
       3       3       3       3       3       3       3       3       3       3
       3       3       3       3       3       3       3       3       3       3
       3       3       3       3       3       3       3       3       3       3
       3       3       3       3       3       3       3       3       3       3
       3       3       3       3       3       3       3       3       3       3
       3       3       3       3       3       3       3       3       3       3
       3       3       3       3       3       3       3       3       3       3
       3       3       3       3       3       3       3       3       3       3
       3       3       3       3       3       3       3       3       3       3
       3       3       3       3       3       3       3       3       3       3
       3       3       3       3       3       3       3       3       3       3
       3       3       3       3       3       3       3       3       3       3
       3       3       3       3       3       3       3       3       3       3
       3       3       3       3       3       3       3       3       3       3
       3       3       3       3       3       3       3       3       3       3
       3       3       3       3       3       3       3       3       3       3
       3       3       3       3       3       3       3       3       3       3
       3       3       3       3       3       3       3       3       3       3
       3       3       3       3       3       3       3       3       3       3
       3       3       3       3       3       3       3       3       3       3
       3       3       3       3       3       3       3       3       3       3
       3       3       3       3       3       3       3       3       3       3
       3       3       3       3       3       3       3       3       3       3
       3       3       3       3       3       3       3       3       3       3
       3       3       3       3       3       3       3       3       3       3
       3       3       3       3       3       3       3       3       3       3
       3       3       3       3       3       3       3       3       3       3
       3       3       3       3       3       3       3       3       3       3
       3       3       3       3       3       3       3       3       3       3
       3       3       3       3       3       3       3       3       3       3
       3       3       3       3       3       3       3       3       3       3
       3       3       3       3       3       3       3       3       3       3
       3       3       3       3       3       3       3       3       3       3
       3       3       3       3       3       3       3       3       3       3
       3       3       3       3       3       3       3       3       3       3
       3       3       3       3       3       3       3       3       3       3
       3       3       3       3       3       3       3       3       3       3
       3       3       3       3       3       3       3       3       3       3
       3       3       3       3       3       3       3       3       3       3
       3       3       3       3       3       3       3       3       3       3
       3       3       3       3       3       3       3       3       3       3
       3       3       3       3       3       3       3       3       3       3
       3       3       3       3       3       3       3       3       3       3
       3       3       3       3       3       3       3       3       3       3
       3       3       3       3       3       3       3       3       3       3
       3       3       3       3       3       3       3       3       3       3
       3       3       3       3       3       3       3       3       3       3
       3       3       3       3       3       3       3       3       3       3
       3       3       3       3       3       3       3       3       3       3
       3       3       3       3       3       3       3       3       3       3
       3       3       3       3       3       3       3       3       3       3
       3       3       3       3       3       3       3       3       3       3
       3       3       3       3       3       3       3       3       3       3
       3       3       3       3       3       3       3       3       3       3
       3       3       3       3       3       3       3       3       3       3
       3       3       3       3       3       3       3       3       3       3
       3       3       3       3       3       3       3       3       3       3
       3       3       3       3       3       3       3       3       3       3
       3       3       3       3       3       3       3       3       3       3
       3       3       3       3       3       3       3       3       3       3
       3       3       3       3       3       3       3       3       3       3
       3       3       3       3       3       3       3       3       3       3
       3       3       3       3       3       3       3       3       3       3
       3       3       3       3       3       3       3       3       3       3
       3       3       3       3       3       3       3       3       3       3
       3       3       3       3       3       3       3       3       3       3
       3       3       3       3       3       3       3       3       3       3
       3       3       3       3       3       3       3       3       3       3
       3       3       3       3       3       3       3       3       3       3
       3       3       3       3       3       3       3       3       3       3
       3       3       3       3       3       3       3       3       3       3
       3       3       3       3       3       3       3       3       3       3
       3       3       3       3       3       3       3       3       3       3
       3       3       3       3       3       3       3       3       3       3
       3       3       3       3       3       3       3       3       3       3
       3       3       3       3       3       3       3       3       3       3
       3       3       3       3       3       3       3       3       3       3
       3       3       3       3       3       3       3       3       3       3
       3       3       3       3       3       3       3       3       3       3
       3       3       3       3       3       3       3       3       3       3
       3       3       3       3       3       3       3       3       3       3
       3       3       3       3       3       3       3       3       3       3
       3       3       3       3       3       3       3       3       3       3
       3       3       3       3       3       3       3       3       3       3
       3       3       3       3       3       3       3       3       3       3
       3       3       3       3       3       3       3       3       3       3
       3       3       3       3       3       3       3       3       3       3
       3       3       3       3       3       3       3       3       3       3
       3       3       3       3       3       3       3       3       3       3
       3       3       3       3       3       3       3       3       3       3
       3       3       3       3       3       3       3       3       3       3
       3       3       3       3       3       3       3       3       3       3
       3       3       3       3       3       3       3       3       3       3
       3       3       3       3       3       3       3       3       3       3
       3       3       3       3       3       3       3       3       3       3
       3       3       3       3       3       3       3       3       3       3
       3       3       3       3       3       3       3       3       3       3
       3       3       3       3       3       3       3       3       3       3
       3       3       3       3       3       3       3       3       3       3
       3       3       3       3       3       3       3       3       3       3
       3       3       3       3       3       3       3       3       3       3
       3       3       3       3       3       3       3       3       3       3
       3       3       3       3       3       3       3       3       3       3
       3       3       3       3       3       3       3       3       3       3
       3       3       3       3       3       3       3       3       3       3
       3       3       3       3       3       3       3       3       3       3
       3       3       3       3       3       3       3       3       3       3
       3       3       3       3       3       3       3       3       3       3
       3       3       3       3       3       3       3       3       3       3
       3       3       3       3       3       3       3       3       3       3
       3       3       3       3       3       3       3       3       3       3
       3       3       3       3       3       3       3       3       3       3
       3       3       3       3       3       3       3       3       3       3
       3       3       3       3       3       3       3       3       3       3
       3       3       3       3       3       3       3       3       3       3
       3       3       3       3       3       3       3       3       3       3
       3       3       3       3       3       3       3       3       3       3
       3       3       3       3       3       3       3       3       3       3
       3       3       3       3       3       3       3       3       3       3
       3       3       3       3       3       3       3       3       3       3
       3       3       3       3       3       3       3       3       3       3
       3       3       3       3       3       3       3       3       3       3
       3       3       3       3       3       3       3       3       3       3
       3       3       3       3       3       3       3       3       3       3
       3       3       3       3       3       3       3       3       3       3
       3       3       3       3       3       3       3       3       3       3
       3       3       3       3       3       3       3       3       3       3
       3       3       3       3       3       3       3       3       3       3
       3       3       3       3       3       3       3       3       3       3
       3       3       3       3       3       3       3       3       3       3
       3       3       3       3       3       3       3       3       3       3
       3       3       3       3       3       3       3       3       3       3
       3       3       3       3       3       3       3       3       3       3
       3       3       3       3       3       3       3       3       3       3
       3       3       3       3       3       3       3       3       3       3
       3       3       3       3       3       3       3       3       3       3
       3       3       3       3       3       3       3       3       3       3
       3       3       3       3       3       3       3       3       3       3
       3       3       3       3       3       3       3       3       3       3
       3       3       3       3       3       3       3       3       3       3
       3       3       3       3       3       3       3       3       3       3
       3       3       3       3       3       3       3       3       3       3
       3       3       3       3       3       3       3       3       3       3
       3       3       3       3       3       3       3       3       3       3
       3       3       3       3       3       3       3       3       3       3
       3       3       3       3       3       3       3       3       3       3
       3       3       3       3       3       3       3       3       3       3
       3       3       3       3       3       3       3       3       3       3
       3       3       3       3       3       3       3       3       3       3
       3       3       3       3       3       3       3       3       3       3
       3       3       3       3       3       3       3       3       3       3
       3       3       3       3       3       3       3       3       3       3
       3       3       3       3       3       3       3       3       3       3
       3       3       3       3       3       3       3       3       3       3
       3       3       3       3       3       3       3       3       3       3
       3       3       3       3       3       3       3       3       3       3
       3       3       3       3       3       3       3       3       3       3
       3       3       3       3       3       3       3       3       3       3
       3       3       3       3       3       3       3       3       3       3
       3       3       3       3       3       3       3       3       3       3
       3       3       3       3       3       3       3       3       3       3
       3       3       3       3       3       3       3       3       3       3
       3       3       3       3       3       3       3       3       3       3
       3       3       3       3       3       3       3       3       3       3
       3       3       3       3       3       3       3       3       3       3
       3       3       3       3       3       3       3       3       3       3
       3       3       3       3       3       3       3       3       3       3
       3       3       3       3       3       3       3       3       3       3
       3       3       3       3       3       3       3       3       3       3
       3       3       3       3       3       3       3       3       3       3
       3       3       3       3       3       3       3       3       3       3
       3       3       3       3       3       3       3       3       3       3
       3       3       3       3       3       3       3       3       3       3
       3       3       3       3       3       3       3       3       3       3
       3       3       3       3       3       3       3       3       3       3
       3       3       3       3       3       3       3       3       3       3
       3       3       3       3       3       3       3       3       3       3
       3       3       3       3       3       3       3       3       3       3
       3       3       3       3       3       3       3       3       3       3
       3       3       3       3       3       3       3       3       3       3
       3       3       3       3       3       3       3       3       3       3
       3       3       3       3       3       3       3       3       3       3
       3       3       3       3       3       3       3       3       3       3
       3       3       3       3       3       3       3       3       3       3
       3       3       3       3       3       3       3       3       3       3
       3       3       3       3       3       3       3       3       3       3
       3       3       3       3       3       3       3       3       3       3
       3       3       3       3       3       3       3       3       3       3
       3       3       3       3       3       3       3       3       3       3
       3       3       3       3       3       3       3       3       3       3
       3       3       3       3       3       3       3       3       3       3
       3       3       3       3       3       3       3       3       3       3
       3       3       3       3       3       3       3       3       3       3
       3       3       3       3       3       3       3       3       3       3
       3       3       3       3       3       3       3       3       3       3
       3       3       3       3       3       3       3       3       3       3
       3       3       3       3       3       3       3       3       3       3
       3       3       3       3       3       3       3       3       3       3
       3       3       3       3       3       3       3       3       3       3
       3       3       3       3       3       3       3       3       3       3
       3       3       3       3       3       3       3       3       3       3
       3       3       3       3       3       3       3       3       3       3
       3       3       3       3       3       3       3       3       3       3
       3       3       3       3       3       3       3       3       3       3
       3       3       3       3       3       3       3       3       3       3
       3       3       3       3       3       3       3       3       3       3
       3       3       3       3       3       3       3       3       3       3
       3       3       3       3       3       3       3       3       3       3
       3       3       3       3       3       3       3       3       3       3
       3       3       3       3       3       3       3       3       3       3
       3       3       3       3       3       3       3       3       3       3
       3       3       3       3       3       3       3       3       3       3
       3       3       3       3       3       3       3       3       3       3
       3       3       3       3       3       3       3       3       3       3
       3       3       3       3       3       3       3       3       3       3
       3       3       3       3       3       3       3       3       3       3
       3       3       3       3       3       3       3       3       3       3
       3       3       3       3       3       3       3       3       3       3
       3       3       3       3       3       3       3       3       3       3
       3       3       3       3       3       3       3       3       3       3
       3       3       3       3       3       3       3       3       3       3
       3       3       3       3       3       3       3       3       3       3
       3       3       3       3       3       3       3       3       3       3
       3       3       3       3       3       3       3       3       3       3
       3       3       3       3       3       3       3       3       3       3
       3       3       3       3       3       3       3       3       3       3
       3       3       3       3       3       3       3       3       3       3
       3       3       3       3       3       3       3       3       3       3
       3       3       3       3       3       3       3       3       3       3
       3       3       3       3       3       3       3       3       3       3
       3       3       3       3       3       3       3       3       3       3
       3       3       3       3       3       3       3       3       3       3
       3       3       3       3       3       3       3       3       3       3
       3       3       3       3       3       3       3       3       3       3
       3       3       3       3       3       3       3       3       3       3
       3       3       3       3       3       3       3       3       3       3
       3       3       3       3       3       3       3       3       3       3
       3       3       3       3       3       3       3       3       3       3
       3       3       3       3       3       3       3       3       3       3
       3       3       3       3       3       3       3       3       3       3
       3       3       3       3       3       3       3       3       3       3
       3       3       3       3       3       3       3       3       3       3
       3       3       3       3       3       3       3       3       3       3
       3       3       3       3       3       3       3       3       3       3
       3       3       3       3       3       3       3       3       3       3
       3       3       3       3       3       3       3       3       3       3
       3       3       3       3       3       3       3       3       3       3
       3       3       3       3       3       3       3       3       3       3
       3       3       3       3       3       3       3       3       3       3
       3       3       3       3       3       3       3       3       3       3
       3       3       3       3       3       3       3       3       3       3
       3       3       3       3       3       3       3       3       3       3
       3       3       3       3       3       3       3       3       3       3
       3       3       3       3       3       3       3       3       3       3
       3       3       3       3       3       3       3       3       3       3
       3       3       3       3       3       3       3       3       3       3
       3       3       3       3       3       3       3       3       3       3
       3       3       3       3       3       3       3       3       3       3
       3       3       3       3       3       3       3       3       3       3
       3       3       3       3       3       3       3       3       3       3
       3       3       3       3       3       3       3       3       3       3
       3       3       3       3       3       3       3       3       3       3
       3       3       3       3       3       3       3       3       3       3
       3       3       3       3       3       3       3       3       3       3
       3       3       3       3       3       3       3       3       3       3
       3       3       3       3       3       3       3       3       3       3
       3       3       3       3       3       3       3       3       3       3
       3       3       3       3       3       3       3       3       3       3
       3       3       3       3       3       3       3       3       3       3
       3       3       3       3       3       3       3       3       3       3
       3       3       3       3       3       3       3       3       3       3
       3       3       3       3       3       3       3       3       3       3
       3       3       3       3       3       3       3       3       3       3
       3       3       3       3       3       3       3       3       3       3
       3       3       3       3       3       3       3       3       3       3
       3       3       3       3       3       3       3       3       3       3
       3       3       3       3       3       3       3       3       3       3
       3       3       3       3       3       3       3       3       3       3
       3       3       3       3       3       3       3       3       3       3
       3       3       3       3       3       3       3       3       3       3
       3       3       3       3       3       3       3       3       3       3
       3       3       3       3       3       3       3       3       3       3
       3       3       3       3       3       3       3       3       3       3
       3       3       3       3       3       3       3       3       3       3
       3       3       3       3       3       3       3       3       3       3
       3       3       3       3       3       3       3       3       3       3
       3       3       3       3       3       3       3       3       3       3
       3       3       3       3       3       3       3       3       3       3
       3       3       3       3       3       3       3       3       3       3
       3       3       3       3       3       3       3       3       3       3
       3       3       3       3       3       3       3       3       3       3
       3       3       3       3       3       3       3       3       3       3
       3       3       3       3       3       3       3       3       3       3
       3       3       3       3       3       3       3       3       3       3
       3       3       3       3       3       3       3       3       3       3
       3       3       3       3       3       3       3       3       3       3
       3       3       3       3       3       3       3       3       3       3
       3       3       3       3       3       3       3       3       3       3
       3       3       3       3       3       3       3       3       3       3
       3       3       3       3       3       3       3       3       3       3
       3       3       3       3       3       3       3       3       3       3
       3       3       3       3       3       3       3       3       3       3
       3       3       3       3       3       3       3       3       3       3
       3       3       3       3       3       3       3       3       3       3
       3       3       3       3       3       3       3       3       3       3
       3       3       3       3       3       3       3       3       3       3
       3       3       3       3       3       3       3       3       3       3
       3       3       3       3       3       3       3       3       3       3
       3       3       3       3       3       3       3       3       3       3
       3       3       3       3       3       3       3       3       3       3
       3       3       3       3       3       3       3       3       3       3
       3       3       3       3       3       3       3       3       3       3
       3       3       3       3       3       3       3       3       3       3
       3       3       3       3       3       3       3       3       3       3
       3       3       3       3       3       3       3       3       3       3
       3       3       3       3       3       3       3       3       3       3
       3       3       3       3       3       3       3       3       3       3
       3       3       3       3       3       3       3       3       3       3
       3       3       3       3       3       3       3       3       3       3
       3       3       3       3       3       3       3       3       3       3
       3       3       3       3       3       3       3       3       3       3
       3       3       3       3       3       3       3       3       3       3
       3       3       3       3       3       3       3       3       3       3
       3       3       3       3       3       3       3       3       3       3
       3       3       3       3       3       3       3       3       3       3
       3       3       3       3       3       3       3       3       3       3
       3       3       3       3       3       3       3       3       3       3
       3       3       3       3       3       3       3       3       3       3
       3       3       3       3       3       3       3       3       3       3
       3       3       3       3       3       3       3       3       3       3
       3       3       3       3       3       3       3       3       3       3
       3       3       3       3       3       3       3       3       3       3
       3       3       3       3       3       3       3       3       3       3
       3       3       3       3       3       3       3       3       3       3
       3       3       3       3       3       3       3       3       3       3
       3       3       3       3       3       3       3       3       3       3
       3       3       3       3       3       3       3       3       3       3
       3       3       3       3       3       3       3       3       3       3
       3       3       3       3       3       3       3       3       3       3
       3       3       3       3       3       3       3       3       3       3
       3       3       3       3       3       3       3       3       3       3
       3       3       3       3       3       3       3       3       3       3
       3       3       3       3       3       3       3       3       3       3
       3       3       3       3       3       3       3       3       3       3
       3       3       3       3       3       3       3       3       3       3
       3       3       3       3       3       3       3       3       3       3
       3       3       3       3       3       3       3       3       3       3
       3       3       3       3       3       3       3       3       3       3
       3       3       3       3       3       3       3       3       3       3
       3       3       3       3       3       3       3       3       3       3
       3       3       3       3       3       3       3       3       3       3
       3       3       3       3       3       3       3       3       3       3
       3       3       3       3       3       3       3       3       3       3
       3       3       3       3       3       3       3       3       3       3
       3       3       3       3       3       3       3       3       3       3
       3       3       3       3       3       3       3       3       3       3
       3       3       3       3       3       3       3       3       3       3
       3       3       3       3       3       3       3       3       3       3
       3       3       3       3       3       3       3       3       3       3
       3       3       3       3       3       3       3       3       3       3
       3       3       3       3       3       3       3       3       3       3
       3       3       3       3       3       3       3       3       3       3
       3       3       3       3       3       3       3       3       3       3
       3       3       3       3       3       3       3       3       3       3
       3       3       3       3       3       3       3       3       3       3
       3       3       3       3       3       3       3       3       3       3
       3       3       3       3       3       3       3       3       3       3
       3       3       3       3       3       3       3       3       3       3
       3       3       3       3       3       3       3       3       3       3
       3       3       3       3       3       3       3       3       3       3
       3       3       3       3       3       3       3       3       3       3
       3       3       3       3       3       3       3       3       3       3
       3       3       3       3       3       3       3       3       3       3
       3       3       3       3       3       3       3       3       3       3
       3       3       3       3       3       3       3       3       3       3
       3       3       3       3       3       3       3       3       3       3
       3       3       3       3       3       3       3       3       3       3
       3       3       3       3       3       3       3       3       3       3
       3       3       3       3       3       3       3       3       3       3
       3       3       3       3       3       3       3       3       3       3
       3       3       3       3       3       3       3       3       3       3
       3       3       3       3       3       3       3       3       3       3
       3       3       3       3       3       3       3       3       3       3
       3       3       3       3       3       3       3       3       3       3
       3       3       3       3       3       3       3       3       3       3
       3       3       3       3       3       3       3       3       3       3
       3       3       3       3       3       3       3       3       3       3
       3       3       3       3       3       3       3       3       3       3
       3       3       3       3       3       3       3       3       3       3
       3       3       3       3       3       3       3       3       3       3
       3       3       3       3       3       3       3       3       3       3
       3       3       3       3       3       3       3       3       3       3
       3       3       3       3       3       3       3       3       3       3
       3       3       3       3       3       3       3       3       3       3
       3       3       3       3       3       3       3       3       3       3
       3       3       3       3       3       3       3       3       3       3
       3       3       3       3       3       3       3       3       3       3
       3       3       3       3       3       3       3       3       3       3
       3       3       3       3       3       3       3       3       3       3
       3       3       3       3       3       3       3       3       3       3
       3       3       3       3       3       3       3       3       3       3
       3       3       3       3       3       3       3       3       3       3
       3       3       3       3       3       3       3       3       3       3
       3       3       3       3       3       3       3       3       3       3
       3       3       3       3       3       3       3       3       3       3
       3       3       3       3       3       3       3       3       3       3
       3       3       3       3       3       3       3       3       3       3
       3       3       3       3       3       3       3       3       3       3
       3       3       3       3       3       3       3       3       3       3
       3       3       3       3       3       3       3       3       3       3
       3       3       3       3       3       3       3       3       3       3
       3       3       3       3       3       3       3       3       3       3
       3       3       3       3       3       3       3       3       3       3
       3       3       3       3       3       3       3       3       3       3
       3       3       3       3       3       3       3       3       3       3
       3       3       3       3       3       3       3       3       3       3
       3       3       3       3       3       3       3       3       3       3
       3       3       3       3       3       3       3       3       3       3
       3       3       3       3       3       3       3       3       3       3
       3       3       3       3       3       3       3       3       3       3
       3       3       3       3       3       3       3       3       3       3
       3       3       3       3       3       3       3       3       3       3
       3       3       3       3       3       3       3       3       3       3
       3       3       3       3       3       3       3       3       3       3
       3       3       3       3       3       3       3       3       3       3
       3       3       3       3       3       3       3       3       3       3
       3       3       3       3       3       3       3       3       3       3
       3       3       3       3       3       3       3       3       3       3
       3       3       3       3       3       3       3       3       3       3
       3       3       3       3       3       3       3       3       3       3
       3       3       3       3       3       3       3       3       3       3
       3       3       3       3       3       3       3       3       3       3
       3       3       3       3       3       3       3       3       3       3
       3       3       3       3       3       3       3       3       3       3
       3       3       3       3       3       3       3       3       3       3
       3       3       3       3       3       3       3       3       3       3
       3       3       3       3       3       3       3       3       3       3
       3       3       3       3       3       3       3       3       3       3
       3       3       3       3       3       3       3       3       3       3
       3       3       3       3       3       3       3       3       3       3
       3       3       3       3       3       3       3       3       3       3
       3       3       3       3       3       3       3       3       3       3
       3       3       3       3       3       3       3       3       3       3
       3       3       3       3       3       3       3       3       3       3
       3       3       3       3       3       3       3       3       3       3
       3       3       3       3       3       3       3       3       3       3
       3       3       3       3       3       3       3       3       3       3
       3       3       3       3       3       3       3       3       3       3
       3       3       3       3       3       3       3       3       3       3
       3       3       3       3       3       3       3       3       3       3
       3       3       3       3       3       3       3       3       3       3
       3       3       3       3       3       3       3       3       3       3
       3       3       3       3       3       3       3       3       3       3
       3       3       3       3       3       3       3       3       3       3
       3       3       3       3       3       3       3       3       3       3
       3       3       3       3       3       3       3       3       3       3
       3       3       3       3       3       3       3       3       3       3
       3       3       3       3       3       3       3       3       3       3
       3       3       3       3       3       3       3       3       3       3
       3       3       3       3       3       3       3       3       3       3
       3       3       3       3       3       3       3       3       3       3
       3       3       3       3       3       3       3       3       3       3
       3       3       3       3       3       3       3       3       3       3
       3       3       3       3       3       3       3       3       3       3
       3       3       3       3       3       3       3       3       3       3
       3       3       3       3       3       3       3       3       3       3
       3       3       3       3       3       3       3       3       3       3
       3       3       3       3       3       3       3       3       3       3
       3       3       3       3       3       3       3       3       3       3
       3       3       3       3       3       3       3       3       3       3
       3       3       3       3       3       3       3       3       3       3
       3       3       3       3       3       3       3       3       3       3
       3       3       3       3       3       3       3       3       3       3
       3       3       3       3       3       3       3       3       3       3
       3       3       3       3       3       3       3       3       3       3
       3       3       3       3       3       3       3       3       3       3
       3       3       3       3       3       3       3       3       3       3
       3       3       3       3       3       3       3       3       3       3
       3       3       3       3       3       3       3       3       3       3
       3       3       3       3       3       3       3       3       3       3
       3       3       3       3       3       3       3       3       3       3
       3       3       3       3       3       3       3       3       3       3
       3       3       3       3       3       3       3       3       3       3
       3       3       3       3       3       3       3       3       3       3
       3       3       3       3       3       3       3       3       3       3
       3       3       3       3       3       3       3       3       3       3
       3       3       3       3       3       3       3       3       3       3
       3       3       3       3       3       3       3       3       3       3
       3       3       3       3       3       3       3       3       3       3
       3       3       3       3       3       3       3       3       3       3
       3       3       3       3       3       3       3       3       3       3
       3       3       3       3       3       3       3       3       3       3
       3       3       3       3       3       3       3       3       3       3
       3       3       3       3       3       3       3       3       3       3
       3       3       3       3       3       3       3       3       3       3
       3       3       3       3       3       3       3       3       3       3
       3       3       3       3       3       3       3       3       3       3
       3       3       3       3       3       3       3       3       3       3
       3       3       3       3       3       3       3       3       3       3
       3       3       3       3       3       3       3       3       3       3
       3       3       3       3       3       3       3       3       3       3
       3       3       3       3       3       3       3       3       3       3
       3       3       3       3       3       3       3       3       3       3
       3       3       3       3       3       3       3       3       3       3
       3       3       3       3       3       3       3       3       3       3
       3       3       3       3       3       3       3       3       3       3
       3       3       3       3       3       3       3       3       3       3
       3       3       3       3       3       3       3       3       3       3
       3       3       3       3       3       3       3       3       3       3
       3       3       3       3       3       3       3       3       3       3
       3       3       3       3       3       3       3       3       3       3
       3       3       3       3       3       3       3       3       3       3
       3       3       3       3       3       3       3       3       3       3
       3       3       3       3       3       3       3       3       3       3
       3       3       3       3       3       3       3       3       3       3
       3       3       3       3       3       3       3       3       3       3
       3       3       3       3       3       3       3       3       3       3
       3       3       3       3       3       3       3       3       3       3
       3       3       3       3       3       3       3       3       3       3
       3       3       3       3       3       3       3       3       3       3
       3       3       3       3       3       3       3       3       3       3
       3       3       3       3       3       3       3       3       3       3
       3       3       3       3       3       3       3       3       3       3
       3       3       3       3       3       3       3       3       3       3
       3       3       3       3       3       3       3       3       3       3
       3       3       3       3       3       3       3       3       3       3
       3       3       3       3       3       3       3       3       3       3
       3       3       3       3       3       3       3       3       3       3
       3       3       3       3       3       3       3       3       3       3
       3       3       3       3       3       3       3       3       3       3
       3       3       3       3       3       3       3       3       3       3
       3       3       3       3       3       3       3       3       3       3
       3       3       3       3       3       3       3       3       3       3
       3       3       3       3       3       3       3       3       3       3
       3       3       3       3       3       3       3       3       3       3
       3       3       3       3       3       3       3       3       3       3
       3       3       3       3       3       3       3       3       3       3
       3       3       3       3       3       3       3       3       3       3
       3       3       3       3       3       3       3       3       3       3
       3       3       3       3       3       3       3       3       3       3
       3       3       3       3       3       3       3       3       3       3
       3       3       3       3       3       3       3       3       3       3
       3       3       3       3       3       3       3       3       3       3
       3       3       3       3       3       3       3       3       3       3
       3       3       3       3       3       3       3       3       3       3
       3       3       3       3       3       3       3       3       3       3
       3       3       3       3       3       3       3       3       3       3
       3       3       3       3       3       3       3       3       3       3
       3       3       3       3       3       3       3       3       3       3
       3       3       3       3       3       3       3       3       3       3
       3       3       3       3       3       3       3       3       3       3
       3       3       3       3       3       3       3       3       3       3
       3       3       3       3       3       3       3       3       3       3
       3       3       3       3       3       3       3       3       3       3
       3       3       3       3       3       3       3       3       3       3
       3       3       3       3       3       3       3       3       3       3
       3       3       3       3       3       3       3       3       3       3
       3       3       3       3       3       3       3       3       3       3
       3       3       3       3       3       3       3       3       3       3
       3       3       3       3       3       3       3       3       3       3
       3       3       3       3       3       3       3       3       3       3
       3       3       3       3       3       3       3       3       3       3
       3       3       3       3       3       3       3       3       3       3
       3       3       3       3       3       3       3       3       3       3
       3       3       3       3       3       3       3       3       3       3
       3       3       3       3       3       3       3       3       3       3
       3       3       3       3       3       3       3       3       3       3
       3       3       3       3       3       3       3       3       3       3
       3       3       3       3       3       3       3       3       3       3
       3       3       3       3       3       3       3       3       3       3
       3       3       3       3       3       3       3       3       3       3
       3       3       3       3       3       3       3       3       3       3
       3       3       3       3       3       3       3       3       3       3
       3       3       3       3       3       3       3       3       3       3
       3       3       3       3       3       3       3       3       3       3
       3       3       3       3       3       3       3       3       3       3
       3       3       3       3       3       3       3       3       3       3
       3       3       3       3       3       3       3       3       3       3
       3       3       3       3       3       3       3       3       3       3
       3       3       3       3       3       3       3       3       3       3
       3       3       3       3       3       3       3       3       3       3
       3       3       3       3       3       3       3       3       3       3
       3       3       3       3       3       3       3       3       3       3
       3       3       3       3       3       3       3       3       3       3
       3       3       3       3       3       3       3       3       3       3
       3       3       3       3       3       3       3       3       3       3
       3       3       3       3       3       3       3       3       3       3
       3       3       3       3       3       3       3       3       3       3
       3       3       3       3       3       3       3       3       3       3
       3       3       3       3       3       3       3       3       3       3
       3       3       3       3       3       3       3       3       3       3
       3       3       3       3       3       3       3       3       3       3
       3       3       3       3       3       3       3       3       3       3
       3       3       3       3       3       3       3       3       3       3
       3       3       3       3       3       3       3       3       3       3
       3       3       3       3       3       3       3       3       3       3
       3       3       3       3       3       3       3       3       3       3
       3       3       3       3       3       3       3       3       3       3
       3       3       3       3       3       3       3       3       3       3
       3       3       3       3       3       3       3       3       3       3
       3       3       3       3       3       3       3       3       3       3
       3       3       3       3       3       3       3       3       3       3
       3       3       3       3       3       3       3       3       3       3
       3       3       3       3       3       3       3       3       3       3
       3       3       3       3       3       3       3       3       3       3
       3       3       3       3       3       3       3       3       3       3
       3       3       3       3       3       3       3       3       3       3
       3       3       3       3       3       3       3       3       3       3
       3       3       3       3       3       3       3       3       3       3
       3       3       3       3       3       3       3       3       3       3
       3       3       3       3       3       3       3       3       3       3
       3       3       3       3       3       3       3       3       3       3
       3       3       3       3       3       3       3       3       3       3
       3       3       3       3       3       3       3       3       3       3
       3       3       3       3       3       3       3       3       3       3
       3       3       3       3       3       3       3       3       3       3
       3       3       3       3       3       3       3       3       3       3
       3       3       3       3       3       3       3       3       3       3
       3       3       3       3       3       3       3       3       3       3
       3       3       3       3       3       3       3       3       3       3
       3       3       3       3       3       3       3       3       3       3
       3       3       3       3       3       3       3       3       3       3
       3       3       3       3       3       3       3       3       3       3
       3       3       3       3       3       3       3       3       3       3
       3       3       3       3       3       3       3       3       3       3
       3       3       3       3       3       3       3       3       3       3
       3       3       3       3       3       3       3       3       3       3
       3       3       3       3       3       3       3       3       3       3
       3       3       3       3       3       3       3       3       3       3
       3       3       3       3       3       3       3       3       3       3
       3       3       3       3       3       3       3       3       3       3
       3       3       3       3       3       3       3       3       3       3
       3       3       3       3       3       3       3       3       3       3
       3       3       3       3       3       3       3       3       3       3
       3       3       3       3       3       3       3       3       3       3
       3       3       3       3       3       3       3       3       3       3
       3       3       3       3       3       3       3       3       3       3
       3       3       3       3       3       3       3       3       3       3
       3       3       3       3       3       3       3       3       3       3
       3       3       3       3       3       3       3       3       3       3
       3       3       3       3       3       3       3       3       3       3
       3       3       3       3       3       3       3       3       3       3
       3       3       3       3       3       3       3       3       3       3
       3       3       3       3       3       3       3       3       3       3
       3       3       3       3       3       3       3       3       3       3
       3       3       3       3       3       3       3       3       3       3
       3       3       3       3       3       3       3       3       3       3
       3       3       3       3       3       3       3       3       3       3
       3       3       3       3       3       3       3       3       3       3
       3       3       3       3       3       3       3       3       3       3
       3       3       3       3       3       3       3       3       3       3
       3       3       3       3       3       3       3       3       3       3
       3       3       3       3       3       3       3       3       3       3
       3       3       3       3       3       3       3       3       3       3
       3       3       3       3       3       3       3       3       3       3
       3       3       3       3       3       3       3       3       3       3
       3       3       3       3       3       3       3       3       3       3
       3       3       3       3       3       3       3       3       3       3
       3       3       3       3       3       3       3       3       3       3
       3       3       3       3       3       3       3       3       3       3
       3       3       3       3       3       3       3       3       3       3
       3       3       3       3       3       3       3       3       3       3
       3       3       3       3       3       3       3       3       3       3
       3       3       3       3       3       3       3       3       3       3
       3       3       3       3       3       3       3       3       3       3
       3       3       3       3       3       3       3       3       3       3
       3       3       3       3       3       3       3       3       3       3
       3       3       3       3       3       3       3       3       3       3
       3       3       3       3       3       3       3       3       3       3
       3       3       3       3       3       3       3       3       3       3
       3       3       3       3       3       3       3       3       3       3
       3       3       3       3       3       3       3       3       3       3
       3       3       3       3       3       3       3       3       3       3
       3       3       3       3       3       3       3       3       3       3
       3       3       3       3       3       3       3       3       3       3
       3       3       3       3       3       3       3       3       3       3
       3       3       3       3       3       3       3       3       3       3
       3       3       3       3       3       3       3       3       3       3
       3       3       3       3       3       3       3       3       3       3
       3       3       3       3       3       3       3       3       3       3
       3       3       3       3       3       3       3       3       3       3
       3       3       3       3       3       3       3       3       3       3
       3       3       3       3       3       3       3       3       3       3
       3       3       3       3       3       3       3       3       3       3
       3       3       3       3       3       3       3       3       3       3
       3       3       3       3       3       3       3       3       3       3
       3       3       3       3       3       3       3       3       3       3
       3       3       3       3       3       3       3       3       3       3
       3       3       3       3       3       3       3       3       3       3
       3       3       3       3       3       3       3       3       3       3
       3       3       3       3       3       3       3       3       3       3
       3       3       3       3       3       3       3       3       3       3
       3       3       3       3       3       3       3       3       3       3
       3       3       3       3       3       3       3       3       3       3
       3       3       3       3       3       3       3       3       3       3
       3       3       3       3       3       3       3       3       3       3
       3       3       3       3       3       3       3       3       3       3
       3       3       3       3       3       3       3       3       3       3
       3       3       3       3       3       3       3       3       3       3
       3       3       3       3       3       3       3       3       3       3
       3       3       3       3       3       3       3       3       3       3
       3       3       3       3       3       3       3       3       3       3
       3       3       3       3       3       3       3       3       3       3
       3       3       3       3       3       3       3       3       3       3
       3       3       3       3       3       3       3       3       3       3
       3       3       3       3       3       3       3       3       3       3
       3       3       3       3       3       3       3       3       3       3
       3       3       3       3       3       3       3       3       3       3
       3       3       3       3       3       3       3       3       3       3
       3       3       3       3       3       3       3       3       3       3
       3       3       3       3       3       3       3       3       3       3
       3       3       3       3       3       3       3       3       3       3
       3       3       3       3       3       3       3       3       3       3
       3       3       3       3       3       3       3       3       3       3
       3       3       3       3       3       3       3       3       3       3
       3       3       3       3       3       3       3       3       3       3
       3       3       3       3       3       3       3       3       3       3
       3       3       3       3       3       3       3       3       3       3
       3       3       3       3       3       3       3       3       3       3
       3       3       3       3       3       3       3       3       3       3
       3       3       3       3       3       3       3       3       3       3
       3       3       3       3       3       3       3       3       3       3
       3       3       3       3       3       3       3       3       3       3
       3       3       3       3       3       3       3       3       3       3
       3       3       3       3       3       3       3       3       3       3
       3       3       3       3       3       3       3       3       3       3
       3       3       3       3       3       3       3       3       3       3
       3       3       3       3       3       3       3       3       3       3
       3       3       3       3       3       3       3       3       3       3
       3       3       3       3       3       3       3       3       3       3
       3       3       3       3       3       3       3       3       3       3
       3       3       3       3       3       3       3       3       3       3
       3       3       3       3       3       3       3       3       3       3
       3       3       3       3       3       3       3       3       3       3
       3       3       3       3       3       3       3       3       3       3
       3       3       3       3       3       3       3       3       3       3
       3       3       3       3       3       3       3       3       3       3
       3       3       3       3       3       3       3       3       3       3
       3       3       3       3       3       3       3       3       3       3
       3       3       3       3       3       3       3       3       3       3
       3       3       3       3       3       3       3       3       3       3
       3       3       3       3       3       3       3       3       3       3
       3       3       3       3       3       3       3       3       3       3
       3       3       3       3       3       3       3       3       3       3
       3       3       3       3       3       3       3       3       3       3
       3       3       3       3       3       3       3       3       3       3
       3       3       3       3       3       3       3       3       3       3
       3       3       3       3       3       3       3       3       3       3
       3       3       3       3       3       3       3       3       3       3
       3       3       3       3       3       3       3       3       3       3
       3       3       3       3       3       3       3       3       3       3
       3       3       3       3       3       3       3       3       3       3
       3       3       3       3       3       3       3       3       3       3
       3       3       3       3       3       3       3       3       3       3
       3       3       3       3       3       3       3       3       3       3
       3       3       3       3       3       3       3       3       3       3
       3       3       3       3       3       3       3       3       3       3
       3       3       3       3       3       3       3       3       3       3
       3       3       3       3       3       3       3       3       3       3
       3       3       3       3       3       3       3       3       3       3
       3       3       3       3       3       3       3       3       3       3
       3       3       3       3       3       3       3       3       3       3
       3       3       3       3       3       3       3       3       3       3
       3       3       3       3       3       3       3       3       3       3
       3       3       3       3       3       3       3       3       3       3
       3       3       3       3       3       3       3       3       3       3
       3       3       3       3       3       3       3       3       3       3
       3       3       3       3       3       3       3       3       3       3
       3       3       3       3       3       3       3       3       3       3
       3       3       3       3       3       3       3       3       3       3
       3       3       3       3       3       3       3       3       3       3
       3       3       3       3       3       3       3       3       3       3
       3       3       3       3       3       3       3       3       3       3
       3       3       3       3       3       3       3       3       3       3
       3       3       3       3       3       3       3       3       3       3
       3       3       3       3       3       3       3       3       3       3
       3       3       3       3       3       3       3       3       3       3
       3       3       3       3       3       3       3       3       3       3
       3       3       3       3       3       3       3       3       3       3
       3       3       3       3       3       3       3       3       3       3
       3       3       3       3       3       3       3       3       3       3
       3       3       3       3       3       3       3       3       3       3
       3       3       3       3       3       3       3       3       3       3
       3       3       3       3       3       3       3       3       3       3
       3       3       3       3       3       3       3       3       3       3
       3       3       3       3       3       3       3       3       3       3
       3       3       3       3       3       3       3       3       3       3
       3       3       3       3       3       3       3       3       3       3
       3       3       3       3       3       3       3       3       3       3
       3       3       3       3       3       3       3       3       3       3
       3       3       3       3       3       3       3       3       3       3
       3       3       3       3       3       3       3       3       3       3
       3       3       3       3       3       3       3       3       3       3
       3       3       3       3       3       3       3       3       3       3
       3       3       3       3       3       3       3       3       3       3
       3       3       3       3       3       3       3       3       3       3
       3       3       3       3       3       3       3       3       3       3
       3       3       3       3       3       3       3       3       3       3
       3       3       3       3       3       3       3       3       3       3
       3       3       3       3       3       3       3       3       3       3
       3       3       3       3       3       3       3       3       3       3
       3       3       3       3       3       3       3       3       3       3
       3       3       3       3       3       3       3       3       3       3
       3       3       3       3       3       3       3       3       3       3
       3       3       3       3       3       3       3       3       3       3
       3       3       3       3       3       3       3       3       3       3
       3       3       3       3       3       3       3       3       3       3
       3       3       3       3       3       3       3       3       3       3
       3       3       3       3       3       3       3       3       3       3
       3       3       3       3       3       3       3       3       3       3
       3       3       3       3       3       3       3       3       3       3
       3       3       3       3       3       3       3       3       3       3
       3       3       3       3       3       3       3       3       3       3
       3       3       3       3       3       3       3       3       3       3
       3       3       3       3       3       3       3       3       3       3
       3       3       3       3       3       3       3       3       3       3
       3       3       3       3       3       3       3       3       3       3
       3       3       3       3       3       3       3       3       3       3
       3       3       3       3       3       3       3       3       3       3
       3       3       3       3       3       3       3       3       3       3
       3       3       3       3       3       3       3       3       3       3
       3       3       3       3       3       3       3       3       3       3
       3       3       3       3       3       3       3       3       3       3
       3       3       3       3       3       3       3       3       3       3
       3       3       3       3       3       3       3       3       3       3
       3       3       3       3       3       3       3       3       3       3
       3       3       3       3       3       3       3       3       3       3
       3       3       3       3       3       3       3       3       3       3
       3       3       3       3       3       3       3       3       3       3
       3       3       3       3       3       3       3       3       3       3
       3       3       3       3       3       3       3       3       3       3
       3       3       3       3       3       3       3       3       3       3
       3       3       3       3       3       3       3       3       3       3
       3       3       3       3       3       3       3       3       3       3
       3       3       3       3       3       3       3       3       3       3
       3       3       3       3       3       3       3       3       3       3
       3       3       3       3       3       3       3       3       3       3
       3       3       3       3       3       3       3       3       3       3
       3       3       3       3       3       3       3       3       3       3
       3       3       3       3       3       3       3       3       3       3
       3       3       3       3       3       3       3       3       3       3
       3       3       3       3       3       3       3       3       3       3
       3       3       3       3       3       3       3       3       3       3
       3       3       3       3       3       3       3       3       3       3
       3       3       3       3       3       3       3       3       3       3
       3       3       3       3       3       3       3       3       3       3
       3       3       3       3       3       3       3       3       3       3
       3       3       3       3       3       3       3       3       3       3
       3       3       3       3       3       3       3       3       3       3
       3       3       3       3       3       3       3       3       3       3
       3       3       3       3       3       3       3       3       3       3
       3       3       3       3       3       3       3       3       3       3
       3       3       3       3       3       3       3       3       3       3
       3       3       3       3       3       3       3       3       3       3
       3       3       3       3       3       3       3       3       3       3
       3       3       3       3       3       3       3       3       3       3
       3       3       3       3       3       3       3       3       3       3
       3       3       3       3       3       3       3       3       3       3
       3       3       3       3       3       3       3       3       3       3
       3       3       3       3       3       3       3       3       3       3
       3       3       3       3       3       3       3       3       3       3
       3       3       3       3       3       3       3       3       3       3
       3       3       3       3       3       3       3       3       3       3
       3       3       3       3       3       3       3       3       3       3
       3       3       3       3       3       3       3       3       3       3
       3       3       3       3       3       3       3       3       3       3
       3       3       3       3       3       3       3       3       3       3
       3       3       3       3       3       3       3       3       3       3
       3       3       3       3       3       3       3       3       3       3
       3       3       3       3       3       3       3       3       3       3
       3       3       3       3       3       3       3       3       3       3
       3       3       3       3       3       3       3       3       3       3
       3       3       3       3       3       3       3       3       3       3
       3       3       3       3       3       3       3       3       3       3
       3       3       3       3       3       3       3       3       3       3
       3       3       3       3       3       3       3       3       3       3
       3       3       3       3       3       3       3       3       3       3
       3       3       3       3       3       3       3       3       3       3
       3       3       3       3       3       3       3       3       3       3
       3       3       3       3       3       3       3       3       3       3
       3       3       3       3       3       3       3       3       3       3
       3       3       3       3       3       3       3       3       3       3
       3       3       3       3       3       3       3       3       3       3
       3       3       3       3       3       3       3       3       3       3
       3       3       3       3       3       3       3       3       3       3
       3       3       3       3       3       3       3       3       3       3
       3       3       3       3       3       3       3       3       3       3
       3       3       3       3       3       3       3       3       3       3
       3       3       3       3       3       3       3       3       3       3
       3       3       3       3       3       3       3       3       3       3
       3       3       3       3       3       3       3       3       3       3
       3       3       3       3       3       3       3       3       3       3
       3       3       3       3       3       3       3       3       3       3
       3       3       3       3       3       3       3       3       3       3
       3       3       3       3       3       3       3       3       3       3
       3       3       3       3       3       3       3       3       3       3
       3       3       3       3       3       3       3       3       3       3
       3       3       3       3       3       3       3       3       3       3
       3       3       3       3       3       3       3       3       3       3
       3       3       3       3       3       3       3       3       3       3
       3       3       3       3       3       3       3       3       3       3
       3       3       3       3       3       3       3       3       3       3
       3       3       3       3       3       3       3       3       3       3
       3       3       3       3       3       3       3       3       3       3
       3       3       3       3       3       3       3       3       3       3
       3       3       3       3       3       3       3       3       3       3
       3       3       3       3       3       3       3       3       3       3
       3       3       3       3       3       3       3       3       3       3
       3       3       3       3       3       3       3       3       3       3
       3       3       3       3       3       3       3       3       3       3
       3       3       3       3       3       3       3       3       3       3
       3       3       3       3       3       3       3       3       3       3
       3       3       3       3       3       3       3       3       3       3
       3       3       3       3       3       3       3       3       3       3
       3       3       3       3       3       3       3       3       3       3
       3       3       3       3       3       3       3       3       3       3
       3       3       3       3       3       3       3       3       3       3
       3       3       3       3       3       3       3       3       3       3
       3       3       3       3       3       3       3       3       3       3
       3       3       3       3       3       3       3       3       3       3
       3       3       3       3       3       3       3       3       3       3
       3       3       3       3       3       3       3       3       3       3
       3       3       3       3       3       3       3       3       3       3
       3       3       3       3       3       3       3       3       3       3
       3       3       3       3       3       3       3       3       3       3
       3       3       3       3       3       3       3       3       3       3
       3       3       3       3       3       3       3       3       3       3
       3       3       3       3       3       3       3       3       3       3
       3       3       3       3       3       3       3       3       3       3
       3       3       3       3       3       3       3       3       3       3
       3       3       3       3       3       3       3       3       3       3
       3       3       3       3       3       3       3       3       3       3
       3       3       3       3       3       3       3       3       3       3
       3       3       3       3       3       3       3       3       3       3
       3       3       3       3       3       3       3       3       3       3
       3       3       3       3       3       3       3       3       3       3
       3       3       3       3       3       3       3       3       3       3
       3       3       3       3       3       3       3       3       3       3
       3       3       3       3       3       3       3       3       3       3
       3       3       3       3       3       3       3       3       3       3
       3       3       3       3       3       3       3       3       3       3
       3       3       3       3       3       3       3       3       3       3
       3       3       3       3       3       3       3       3       3       3
       3       3       3       3       3       3       3       3       3       3
       3       3       3       3       3       3       3       3       3       3
       3       3       3       3       3       3       3       3       3       3
       3       3       3       3       3       3       3       3       3       3
       3       3       3       3       3       3       3       3       3       3
       3       3       3       3       3       3       3       3       3       3
       3       3       3       3       3       3       3       3       3       3
       3       3       3       3       3       3       3       3       3       3
       3       3       3       3       3       3       3       3       3       3
       3       3       3       3       3       3       3       3       3       3
       3       3       3       3       3       3       3       3       3       3
       3       3       3       3       3       3       3       3       3       3
       3       3       3       3       3       3       3       3       3       3
       3       3       3       3       3       3       3       3       3       3
       3       3       3       3       3       3       3       3       3       3
       3       3       3       3       3       3       3       3       3       3
       3       3       3       3       3       3       3       3       3       3
       3       3       3       3       3       3       3       3       3       3
       3       3       3       3       3       3       3       3       3       3
       3       3       3       3       3       3       3       3       3       3
       3       3       3       3       3       3       3       3       3       3
       3       3       3       3       3       3       3       3       3       3
       3       3       3       3       3       3       3       3       3       3
       3       3       3       3       3       3       3       3       3       3
       3       3       3       3       3       3       3       3       3       3
       3       3       3       3       3       3       3       3       3       3
       3       3       3       3       3       3       3       3       3       3
       3       3       3       3       3       3       3       3       3       3
       3       3       3       3       3       3       3       3       3       3
       3       3       3       3       3       3       3       3       3       3
       3       3       3       3       3       3       3       3       3       3
       3       3       3       3       3       3       3       3       3       3
       3       3       3       3       3       3       3       3       3       3
       3       3       3       3       3       3       3       3       3       3
       3       3       3       3       3       3       3       3       3       3
       3       3       3       3       3       3       3       3       3       3
       3       3       3       3       3       3       3       3       3       3
       3       3       3       3       3       3       3       3       3       3
       3       3       3       3       3       3       3       3       3       3
       3       3       3       3       3       3       3       3       3       3
       3       3       3       3       3       3       3       3       3       3
       3       3       3       3       3       3       3       3       3       3
       3       3       3       3       3       3       3       3       3       3
       3       3       3       3       3       3       3       3       3       3
       3       3       3       3       3       3       3       3       3       3
       3       3       3       3       3       3       3       3       3       3
       3       3       3       3       3       3       3       3       3       3
       3       3       3       3       3       3       3       3       3       3
       3       3       3       3       3       3       3       3       3       3
       3       3       3       3       3       3       3       3       3       3
       3       3       3       3       3       3       3       3       3       3
       3       3       3       3       3       3       3       3       3       3
       3       3       3       3       3       3       3       3       3       3
       3       3       3       3       3       3       3       3       3       3
       3       3       3       3       3       3       3       3       3       3
       3       3       3       3       3       3       3       3       3       3
       3       3       3       3       3       3       3       3       3       3
       3       3       3       3       3       3       3       3       3       3
       3       3       3       3       3       3       3       3       3       3
       3       3       3       3       3       3       3       3       3       3
       3       3       3       3       3       3       3       3       3       3
       3       3       3       3       3       3       3       3       3       3
       3       3       3       3       3       3       3       3       3       3
       3       3       3       3       3       3       3       3       3       3
       3       3       3       3       3       3       3       3       3       3
       3       3       3       3       3       3       3       3       3       3
       3       3       3       3       3       3       3       3       3       3
       3       3       3       3       3       3       3       3       3       3
       3       3       3       3       3       3       3       3       3       3
       3       3       3       3       3       3       3       3       3       3
       3       3       3       3       3       3       3       3       3       3
       3       3       3       3       3       3       3       3       3       3
       3       3       3       3       3       3       3       3       3       3
       3       3       3       3       3       3       3       3       3       3
       3       3       3       3       3       3       3       3       3       3
       3       3       3       3       3       3       3       3       3       3
       3       3       3       3       3       3       3       3       3       3
       3       3       3       3       3       3       3       3       3       3
       3       3       3       3       3       3       3       3       3       3
       3       3       3       3       3       3       3       3       3       3
       3       3       3       3       3       3       3       3       3       3
       3       3       3       3       3       3       3       3       3       3
       3       3       3       3       3       3       3       3       3       3
       3       3       3       3       3       3       3       3       3       3
       3       3       3       3       3       3       3       3       3       3
       3       3       3       3       3       3       3       3       3       3
       3       3       3       3       3       3       3       3       3       3
       3       3       3       3       3       3       3       3       3       3
       3       3       3       3       3       3       3       3       3       3
       3       3       3       3       3       3       3       3       3       3
       3       3       3       3       3       3       3       3       3       3
       3       3       3       3       3       3       3       3       3       3
       3       3       3       3       3       3       3       3       3       3
       3       3       3       3       3       3       3       3       3       3
       3       3       3       3       3       3       3       3       3       3
       3       3       3       3       3       3       3       3       3       3
       3       3       3       3       3       3       3       3       3       3
       3       3       3       3       3       3       3       3       3       3
       3       3       3       3       3       3       3       3       3       3
       3       3       3       3       3       3       3       3       3       3
       3       3       3       3       3       3       3       3       3       3
       3       3       3       3       3       3       3       3       3       3
       3       3       3       3       3       3       3       3       3       3
       3       3       3       3       3       3       3       3       3       3
       3       3       3       3       3       3       3       3       3       3
       3       3       3       3       3       3       3       3       3       3
       3       3       3       3       3       3       3       3       3       3
       3       3       3       3       3       3       3       3       3       3
       3       3       3       3       3       3       3       3       3       3
       3       3       3       3       3       3       3       3       3       3
       3       3       3       3       3       3       3       3       3       3
       3       3       3       3       3       3       3       3       3       3
       3       3       3       3       3       3       3       3       3       3
       3       3       3       3       3       3       3       3       3       3
       3       3       3       3       3       3       3       3       3       3
       3       3       3       3       3       3       3       3       3       3
       3       3       3       3       3       3       3       3       3       3
       3       3       3       3       3       3       3       3       3       3
       3       3       3       3       3       3       3       3       3       3
       3       3       3       3       3       3       3       3       3       3
       3       3       3       3       3       3       3       3       3       3
       3       3       3       3       3       3       3       3       3       3
       3       3       3       3       3       3       3       3       3       3
       3       3       3       3       3       3       3       3       3       3
       3       3       3       3       3       3       3       3       3       3
       3       3       3       3       3       3       3       3       3       3
       3       3       3       3       3       3       3       3       3       3
       3       3       3       3       3       3       3       3       3       3
       3       3       3       3       3       3       3       3       3       3
       3       3       3       3       3       3       3       3       3       3
       3       3       3       3       3       3       3       3       3       3
       3       3       3       3       3       3       3       3       3       3
       3       3       3       3       3       3       3       3       3       3
       3       3       3       3       3       3       3       3       3       3
       3       3       3       3       3       3       3       3       3       3
       3       3       3       3       3       3       3       3       3       3
       3       3       3       3       3       3       3       3       3       3
       3       3       3       3       3       3       3       3       3       3
       3       3       3       3       3       3       3       3       3       3
       3       3       3       3       3       3       3       3       3       3
       3       3       3       3       3       3       3       3       3       3
       3       3       3       3       3       3       3       3       3       3
       3       3       3       3       3       3       3       3       3       3
       3       3       3       3       3       3       3       3       3       3
       3       3       3       3       3       3       3       3       3       3
       3       3       3       3       3       3       3       3       3       3
       3       3       3       3       3       3       3       3       3       3
       3       3       3       3       3       3       3       3       3       3
       3       3       3       3       3       3       3       3       3       3
       3       3       3       3       3       3       3       3       3       3
       3       3       3       3       3       3       3       3       3       3
       3       3       3       3       3       3       3       3       3       3
       3       3       3       3       3       3       3       3       3       3
       3       3       3       3       3       3       3       3       3       3
       3       3       3       3       3       3       3       3       3       3
       3       3       3       3       3       3       3       3       3       3
       3       3       3       3       3       3       3       3       3       3
       3       3       3       3       3       3       3       3       3       3
       3       3       3       3       3       3       3       3       3       3
       3       3       3       3       3       3       3       3       3       3
       3       3       3       3       3       3       3       3       3       3
       3       3       3       3       3       3       3       3       3       3
       3       3       3       3       3       3       3       3       3       3
       3       3       3       3       3       3       3       3       3       3
       3       3       3       3       3       3       3       3       3       3
       3       3       3       3       3       3       3       3       3       3
       3       3       3       3       3       3       3       3       3       3
       3       3       3       3       3       3       3       3       3       3
       3       3       3       3       3       3       3       3       3       3
       3       3       3       3       3       3       3       3       3       3
       3       3       3       3       3       3       3       3       3       3
       3       3       3       3       3       3       3       3       3       3
       3       3       3       3       3       3       3       3       3       3
       3       3       3       3       3       3       3       3       3       3
       3       3       3       3       3       3       3       3       3       3
       3       3       3       3       3       3       3       3       3       3
       3       3       3       3       3       3       3       3       3       3
       3       3       3       3       3       3       3       3       3       3
       3       3       3       3       3       3       3       3       3       3
       3       3       3       3       3       3       3       3       3       3
       3       3       3       3       3       3       3       3       3       3
       3       3       3       3       3       3       3       3       3       3
       3       3       3       3       3       3       3       3       3       3
       3       3       3       3       3       3       3       3       3       3
       3       3       3       3       3       3       3       3       3       3
       3       3       3       3       3       3       3       3       3       3
       3       3       3       3       3       3       3       3       3       3
       3       3       3       3       3       3       3       3       3       3
       3       3       3       3       3       3       3       3       3       3
       3       3       3       3       3       3       3       3       3       3
       3       3       3       3       3       3       3       3       3       3
       3       3       3       3       3       3       3       3       3       3
       3       3       3       3       3       3       3       3       3       3
       3       3       3       3       3       3       3       3       3       3
       3       3       3       3       3       3       3       3       3       3
       3       3       3       3       3       3       3       3       3       3
       3       3       3       3       3       3       3       3       3       3
       3       3       3       3       3       3       3       3       3       3
       3       3       3       3       3       3       3       3       3       3
       3       3       3       3       3       3       3       3       3       3
       3       3       3       3       3       3       3       3       3       3
       3       3       3       3       3       3       3       3       3       3
       3       3       3       3       3       3       3       3       3       3
       3       3       3       3       3       3       3       3       3       3
       3       3       3       3       3       3       3       3       3       3
       3       3       3       3       3       3       3       3       3       3
       3       3       3       3       3       3       3       3       3       3
       3       3       3       3       3       3       3       3       3       3
       3       3       3       3       3       3       3       3       3       3
       3       3       3       3       3       3       3       3       3       3
       3       3       3       3       3       3       3       3       3       3
       3       3       3       3       3       3       3       3       3       3
       3       3       3       3       3       3       3       3       3       3
       3       3       3       3       3       3       3       3       3       3
       3       3       3       3       3       3       3       3       3       3
       3       3       3       3       3       3       3       3       3       3
       3       3       3       3       3       3       3       3       3       3
       3       3       3       3       3       3       3       3       3       3
       3       3       3       3       3       3       3       3       3       3
       3       3       3       3       3       3       3       3       3       3
       3       3       3       3       3       3       3       3       3       3
       3       3       3       3       3       3       3       3       3       3
       3       3       3       3       3       3       3       3       3       3
       3       3       3       3       3       3       3       3       3       3
       3       3       3       3       3       3       3       3       3       3
       3       3       3       3       3       3       3       3       3       3
       3       3       3       3       3       3       3       3       3       3
       3       3       3       3       3       3       3       3       3       3
       3       3       3       3       3       3       3       3       3       3
       3       3       3       3       3       3       3       3       3       3
       3       3       3       3       3       3       3       3       3       3
       3       3       3       3       3       3       3       3       3       3
       3       3       3       3       3       3       3       3       3       3
       3       3       3       3       3       3       3       3       3       3
       3       3       3       3       3       3       3       3       3       3
       3       3       3       3       3       3       3       3       3       3
       3       3       3       3       3       3       3       3       3       3
       3       3       3       3       3       3       3       3       3       3
       3       3       3       3       3       3       3       3       3       3
       3       3       3       3       3       3       3       3       3       3
       3       3       3       3       3       3       3       3       3       3
       3       3       3       3       3       3       3       3       3       3
       3       3       3       3       3       3       3       3       3       3
       3       3       3       3       3       3       3       3       3       3
       3       3       3       3       3       3       3       3       3       3
       3       3       3       3       3       3       3       3       3       3
       3       3       3       3       3       3       3       3       3       3
       3       3       3       3       3       3       3       3       3       3
       3       3       3       3       3       3       3       3       3       3
       3       3       3       3       3       3       3       3       3       3
       3       3       3       3       3       3       3       3       3       3
       3       3       3       3       3       3       3       3       3       3
       3       3       3       3       3       3       3       3       3       3
       3       3       3       3       3       3       3       3       3       3
       3       3       3       3       3       3       3       3       3       3
       3       3       3       3       3       3       3       3       3       3
       3       3       3       3       3       3       3       3       3       3
       3       3       3       3       3       3       3       3       3       3
       3       3       3       3       3       3       3       3       3       3
       3       3       3       3       3       3       3       3       3       3
       3       3       3       3       3       3       3       3       3       3
       3       3       3       3       3       3       3       3       3       3
       3       3       3       3       3       3       3       3       3       3
       3       3       3       3       3       3       3       3       3       3
       3       3       3       3       3       3       3       3       3       3
       3       3       3       3       3       3       3       3       3       3
       3       3       3       3       3       3       3       3       3       3
       3       3       3       3       3       3       3       3       3       3
       3       3       3       3       3       3       3       3       3       3
       3       3       3       3       3       3       3       3       3       3
       3       3       3       3       3       3       3       3       3       3
       3       3       3       3       3       3       3       3       3       3
       3       3       3       3       3       3       3       3       3       3
       3       3       3       3       3       3       3       3       3       3
       3       3       3       3       3       3       3       3       3       3
       3       3       3       3       3       3       3       3       3       3
       3       3       3       3       3       3       3       3       3       3
       3       3       3       3       3       3       3       3       3       3
       3       3       3       3       3       3       3       3       3       3
       3       3       3       3       3       3       3       3       3       3
       3       3       3       3       3       3       3       3       3       3
       3       3       3       3       3       3       3       3       3       3
       3       3       3       3       3       3       3       3       3       3
       3       3       3       3       3       3       3       3       3       3
       3       3       3       3       3       3       3       3       3       3
       3       3       3       3       3       3       3       3       3       3
       3       3       3       3       3       3       3       3       3       3
       3       3       3       3       3       3       3       3       3       3
       3       3       3       3       3       3       3       3       3       3
       3       3       3       3       3       3       3       3       3       3
       3       3       3       3       3       3       3       3       3       3
       3       3       3       3       3       3       3       3       3       3
       3       3       3       3       3       3       3       3       3       3
       3       3       3       3       3       3       3       3       3       3
       3       3       3       3       3       3       3       3       3       3
       3       3       3       3       3       3       3       3       3       3
       3       3       3       3       3       3       3       3       3       3
       3       3       3       3       3       3       3       3       3       3
       3       3       3       3       3       3       3       3       3       3
       3       3       3       3       3       3       3       3       3       3
       3       3       3       3       3       3       3       3       3       3
       3       3       3       3       3       3       3       3       3       3
       3       3       3       3       3       3       3       3       3       3
       3       3       3       3       3       3       3       3       3       3
       3       3       3       3       3       3       3       3       3       3
       3       3       3       3       3       3       3       3       3       3
       3       3       3       3       3       3       3       3       3       3
       3       3       3       3       3       3       3       3       3       3
       3       3       3       3       3       3       3       3       3       3
       3       3       3       3       3       3       3       3       3       3
       3       3       3       3       3       3       3       3       3       3
       3       3       3       3       3       3       3       3       3       3
       3       3       3       3       3       3       3       3       3       3
       3       3       3       3       3       3       3       3       3       3
       3       3       3       3       3       3       3       3       3       3
       3       3       3       3       3       3       3       3       3       3
       3       3       3       3       3       3       3       3       3       3
       3       3       3       3       3       3       3       3       3       3
       3       3       3       3       3       3       3       3       3       3
       3       3       3       3       3       3       3       3       3       3
       3       3       3       3       3       3       3       3       3       3
       3       3       3       3       3       3       3       3       3       3
       3       3       3       3       3       3       3       3       3       3
       3       3       3       3       3       3       3       3       3       3
       3       3       3       3       3       3       3       3       3       3
       3       3       3       3       3       3       3       3       3       3
       3       3       3       3       3       3       3       3       3       3
       3       3       3       3       3       3       3       3       3       3
       3       3       3       3       3       3       3       3       3       3
       3       3       3       3       3       3       3       3       3       3
       3       3       3       3       3       3       3       3       3       3
       3       3       3       3       3       3       3       3       3       3
       3       3       3       3       3       3       3       3       3       3
       3       3       3       3       3       3       3       3       3       3
       3       3       3       3       3       3       3       3       3       3
       3       3       3       3       3       3       3       3       3       3
       3       3       3       3       3       3       3       3       3       3
       3       3       3       3       3       3       3       3       3       3
       3       3       3       3       3       3       3       3       3       3
       3       3       3       3       3       3       3       3       3       3
       3       3       3       3       3       3       3       3       3       3
       3       3       3       3       3       3       3       3       3       3
       3       3       3       3       3       3       3       3       3       3
       3       3       3       3       3       3       3       3       3       3
       3       3       3       3       3       3       3       3       3       3
       3       3       3       3       3       3       3       3       3       3
       3       3       3       3       3       3       3       3       3       3
       3       3       3       3       3       3       3       3       3       3
       3       3       3       3       3       3       3       3       3       3
       3       3       3       3       3       3       3       3       3       3
       3       3       3       3       3       3       3       3       3       3
       3       3       3       3       3       3       3       3       3       3
       3       3       3       3       3       3       3       3       3       3
       3       3       3       3       3       3       3       3       3       3
       3       3       3       3       3       3       3       3       3       3
       3       3       3       3       3       3       3       3       3       3
       3       3       3       3       3       3       3       3       3       3
       3       3       3       3       3       3       3       3       3       3
       3       3       3       3       3       3       3       3       3       3
       3       3       3       3       3       3       3       3       3       3
       3       3       3       3       3       3       3       3       3       3
       3       3       3       3       3       3       3       3       3       3
       3       3       3       3       3       3       3       3       3       3
       3       3       3       3       3       3       3       3       3       3
       3       3       3       3       3       3       3       3       3       3
       3       3       3       3       3       3       3       3       3       3
       3       3       3       3       3       3       3       3       3       3
       3       3       3       3       3       3       3       3       3       3
       3       3       3       3       3       3       3       3       3       3
       3       3       3       3       3       3       3       3       3       3
       3       3       3       3       3       3       3       3       3       3
       3       3       3       3       3       3       3       3       3       3
       3       3       3       3       3       3       3       3       3       3
       3       3       3       3       3       3       3       3       3       3
       3       3       3       3       3       3       3       3       3       3
       3       3       3       3       3       3       3       3       3       3
       3       3       3       3       3       3       3       3       3       3
       3       3       3       3       3       3       3       3       3       3
       3       3       3       3       3       3       3       3       3       3
       3       3       3       3       3       3       3       3       3       3
       3       3       3       3       3       3       3       3       3       3
       3       3       3       3       3       3       3       3       3       3
       3       3       3       3       3       3       3       3       3       3
       3       3       3       3       3       3       3       3       3       3
       3       3       3       3       3       3       3       3       3       3
       3       3       3       3       3       3       3       3       3       3
       3       3       3       3       3       3       3       3       3       3
       3       3       3       3       3       3       3       3       3       3
       3       3       3       3       3       3       3       3       3       3
       3       3       3       3       3       3       3       3       3       3
       3       3       3       3       3       3       3       3       3       3
       3       3       3       3       3       3       3       3       3       3
       3       3       3       3       3       3       3       3       3       3
       3       3       3       3       3       3       3       3       3       3
       3       3       3       3       3       3       3       3       3       3
       3       3       3       3       3       3       3       3       3       3
       3       3       3       3       3       3       3       3       3       3
       3       3       3       3       3       3       3       3       3       3
       3       3       3       3       3       3       3       3       3       3
       3       3       3       3       3       3       3       3       3       3
       3       3       3       3       3       3       3       3       3       3
       3       3       3       3       3       3       3       3       3       3
       3       3       3       3       3       3       3       3       3       3
       3       3       3       3       3       3       3       3       3       3
       3       3       3       3       3       3       3       3       3       3
       3       3       3       3       3       3       3       3       3       3
       3       3       3       3       3       3       3       3       3       3
       3       3       3       3       3       3       3       3       3       3
       3       3       3       3       3       3       3       3       3       3
       3       3       3       3       3       3       3       3       3       3
       3       3       3       3       3       3       3       3       3       3
       3       3       3       3       3       3       3       3       3       3
       3       3       3       3       3       3       3       3       3       3
       3       3       3       3       3       3       3       3       3       3
       3       3       3       3       3       3       3       3       3       3
       3       3       3       3       3       3       3       3       3       3
       3       3       3       3       3       3       3       3       3       3
       3       3       3       3       3       3       3       3       3       3
       3       3       3       3       3       3       3       3       3       3
       3       3       3       3       3       3       3       3       3       3
       3       3       3       3       3       3       3       3       3       3
       3       3       3       3       3       3       3       3       3       3
       3       3       3       3       3       3       3       3       3       3
       3       3       3       3       3       3       3       3       3       3
       3       3       3       3       3       3       3       3       3       3
       3       3       3       3       3       3       3       3       3       3
       3       3       3       3       3       3       3       3       3       3
       3       3       3       3       3       3       3       3       3       3
       3       3       3       3       3       3       3       3       3       3
       3       3       3       3       3       3       3       3       3       3
       3       3       3       3       3       3       3       3       3       3
       3       3       3       3       3       3       3       3       3       3
       3       3       3       3       3       3       3       3       3       3
       3       3       3       3       3       3       3       3       3       3
       3       3       3       3       3       3       3       3       3       3
       3       3       3       3       3       3       3       3       3       3
       3       3       3       3       3       3       3       3       3       3
       3       3       3       3       3       3       3       3       3       3
       3       3       3       3       3       3       3       3       3       3
       3       3       3       3       3       3       3       3       3       3
       3       3       3       3       3       3       3       3       3       3
       3       3       3       3       3       3       3       3       3       3
       3       3       3       3       3       3       3       3       3       3
       3       3       3       3       3       3       3       3       3       3
       3       3       3       3       3       3       3       3       3       3
       3       3       3       3       3       3       3       3       3       3
       3       3       3       3       3       3       3       3       3       3
       3       3       3       3       3       3       3       3       3       3
       3       3       3       3       3       3       3       3       3       3
       3       3       3       3       3       3       3       3       3       3
       3       3       3       3       3       3       3       3       3       3
       3       3       3       3       3       3       3       3       3       3
       3       3       3       3       3       3       3       3       3       3
       3       3       3       3       3       3       3       3       3       3
       3       3       3       3       3       3       3       3       3       3
       3       3       3       3       3       3       3       3       3       3
       3       3       3       3       3       3       3       3       3       3
       3       3       3       3       3       3       3       3       3       3
       3       3       3       3       3       3       3       3       3       3
       3       3       3       3       3       3       3       3       3       3
       3       3       3       3       3       3       3       3       3       3
       3       3       3       3       3       3       3       3       3       3
       3       3       3       3       3       3       3       3       3       3
       3       3       3       3       3       3       3       3       3       3
       3       3       3       3       3       3       3       3       3       3
       3       3       3       3       3       3       3       3       3       3
       3       3       3       3       3       3       3       3       3       3
       3       3       3       3       3       3       3       3       3       3
       3       3       3       3       3       3       3       3       3       3
       3       3       3       3       3       3       3       3       3       3
       3       3       3       3       3       3       3       3       3       3
       3       3       3       3       3       3       3       3       3       3
       3       3       3       3       3       3       3       3       3       3
       3       3       3       3       3       3       3       3       3       3
       3       3       3       3       3       3       3       3       3       3
       3       3       3       3       3       3       3       3       3       3
       3       3       3       3       3       3       3       3       3       3
       3       3       3       3       3       3       3       3       3       3
       3       3       3       3       3       3       3       3       3       3
       3       3       3       3       3       3       3       3       3       3
       3       3       3       3       3       3       3       3       3       3
       3       3       3       3       3       3       3       3       3       3
       3       3       3       3       3       3       3       3       3       3
       3       3       3       3       3       3       3       3       3       3
       3       3       3       3       3       3       3       3       3       3
       3       3       3       3       3       3       3       3       3       3
       3       3       3       3       3       3       3       3       3       3
       3       3       3       3       3       3       3       3       3       3
       3       3       3       3       3       3       3       3       3       3
       3       3       3       3       3       3       3       3       3       3
       3       3       3       3       3       3       3       3       3       3
       3       3       3       3       3       3       3       3       3       3
       3       3       3       3       3       3       3       3       3       3
       3       3       3       3       3       3       3       3       3       3
       3       3       3       3       3       3       3       3       3       3
       3       3       3       3       3       3       3       3       3       3
       3       3       3       3       3       3       3       3       3       3
       3       3       3       3       3       3       3       3       3       3
       3       3       3       3       3       3       3       3       3       3
       3       3       3       3       3       3       3       3       3       3
       3       3       3       3       3       3       3       3       3       3
       3       3       3       3       3       3       3       3       3       3
       3       3       3       3       3       3       3       3       3       3
       3       3       3       3       3       3       3       3       3       3
       3       3       3       3       3       3       3       3       3       3
       3       3       3       3       3       3       3       3       3       3
       3       3       3       3       3       3       3       3       3       3
       3       3       3       3       3       3       3       3       3       3
       3       3       3       3       3       3       3       3       3       3
       3       3       3       3       3       3       3       3       3       3
       3       3       3       3       3       3       3       3       3       3
       3       3       3       3       3       3       3       3       3       3
       3       3       3       3       3       3       3       3       3       3
       3       3       3       3       3       3       3       3       3       3
       3       3       3       3       3       3       3       3       3       3
       3       3       3       3       3       3       3       3       3       3
       3       3       3       3       3       3       3       3       3       3
       3       3       3       3       3       3       3       3       3       3
       3       3       3       3       3       3       3       3       3       3
       3       3       3       3       3       3       3       3       3       3
       3       3       3       3       3       3       3       3       3       3
       3       3       3       3       3       3       3       3       3       3
       3       3       3       3       3       3       3       3       3       3
       3       3       3       3       3       3       3       3       3       3
       3       3       3       3       3       3       3       3       3       3
       3       3       3       3       3       3       3       3       3       3
       3       3       3       3       3       3       3       3       3       3
       3       3       3       3       3       3       3       3       3       3
       3       3       3       3       3       3       3       3       3       3
       3       3       3       3       3       3       3       3       3       3
       3       3       3       3       3       3       3       3       3       3
       3       3       3       3       3       3       3       3       3       3
       3       3       3       3       3       3
%FLAG BOX_DIMENSIONS                                                            
%FORMAT(5E16.8)                                                                 
  9.00000000E+01  9.23278160E+01  1.00094843E+02  6.91095550E+01
%FLAG RADIUS_SET                                                                
%FORMAT(1a80)                                                                   
H(N)-modified Bondi radii (mbondi2)                                             
%FLAG RADII                                                                     
%FORMAT(5E16.8)                                                                 
  1.20000000E+00  1.70000000E+00  1.20000000E+00  1.20000000E+00  1.70000000E+00
  1.50000000E+00  1.55000000E+00  1.30000000E+00  1.70000000E+00  1.20000000E+00
  1.70000000E+00  1.20000000E+00  1.20000000E+00  1.70000000E+00  1.20000000E+00
  1.20000000E+00  1.70000000E+00  1.50000000E+00  1.55000000E+00  1.30000000E+00
  1.30000000E+00  1.70000000E+00  1.50000000E+00  1.55000000E+00  1.30000000E+00
  1.70000000E+00  1.20000000E+00  1.70000000E+00  1.20000000E+00  1.20000000E+00
  1.80000000E+00  1.70000000E+00  1.50000000E+00  1.55000000E+00  1.30000000E+00
  1.70000000E+00  1.20000000E+00  1.70000000E+00  1.20000000E+00  1.20000000E+00
  1.80000000E+00  1.70000000E+00  1.50000000E+00  1.55000000E+00  1.30000000E+00
  1.70000000E+00  1.20000000E+00  1.70000000E+00  1.20000000E+00  1.70000000E+00
  1.20000000E+00  1.20000000E+00  1.20000000E+00  1.50000000E+00  1.20000000E+00
  1.70000000E+00  1.50000000E+00  1.55000000E+00  1.30000000E+00  1.70000000E+00
  1.20000000E+00  1.70000000E+00  1.20000000E+00  1.20000000E+00  1.50000000E+00
  1.20000000E+00  1.70000000E+00  1.50000000E+00  1.55000000E+00  1.30000000E+00
  1.70000000E+00  1.20000000E+00  1.70000000E+00  1.20000000E+00  1.70000000E+00
  1.20000000E+00  1.20000000E+00  1.20000000E+00  1.70000000E+00  1.20000000E+00
  1.20000000E+00  1.70000000E+00  1.20000000E+00  1.20000000E+00  1.20000000E+00
  1.70000000E+00  1.50000000E+00  1.55000000E+00  1.30000000E+00  1.70000000E+00
  1.20000000E+00  1.70000000E+00  1.20000000E+00  1.20000000E+00  1.80000000E+00
  1.70000000E+00  1.50000000E+00  1.55000000E+00  1.30000000E+00  1.70000000E+00
  1.20000000E+00  1.70000000E+00  1.20000000E+00  1.20000000E+00  1.50000000E+00
  1.20000000E+00  1.70000000E+00  1.50000000E+00  1.55000000E+00  1.30000000E+00
  1.70000000E+00  1.20000000E+00  1.70000000E+00  1.20000000E+00  1.20000000E+00
  1.70000000E+00  1.20000000E+00  1.70000000E+00  1.20000000E+00  1.20000000E+00
  1.20000000E+00  1.70000000E+00  1.20000000E+00  1.20000000E+00  1.20000000E+00
  1.70000000E+00  1.50000000E+00  1.55000000E+00  1.30000000E+00  1.70000000E+00
  1.20000000E+00  1.70000000E+00  1.20000000E+00  1.20000000E+00  1.70000000E+00
  1.70000000E+00  1.20000000E+00  1.70000000E+00  1.20000000E+00  1.70000000E+00
  1.50000000E+00  1.20000000E+00  1.70000000E+00  1.20000000E+00  1.70000000E+00
  1.20000000E+00  1.70000000E+00  1.50000000E+00  1.55000000E+00  1.30000000E+00
  1.70000000E+00  1.20000000E+00  1.70000000E+00  1.20000000E+00  1.20000000E+00
  1.70000000E+00  1.20000000E+00  1.20000000E+00  1.70000000E+00  1.50000000E+00
  1.55000000E+00  1.30000000E+00  1.30000000E+00  1.70000000E+00  1.50000000E+00
  1.55000000E+00  1.30000000E+00  1.70000000E+00  1.20000000E+00  1.70000000E+00
  1.20000000E+00  1.20000000E+00  1.70000000E+00  1.20000000E+00  1.70000000E+00
  1.20000000E+00  1.20000000E+00  1.20000000E+00  1.70000000E+00  1.20000000E+00
  1.20000000E+00  1.20000000E+00  1.70000000E+00  1.50000000E+00  1.55000000E+00
  1.30000000E+00  1.70000000E+00  1.20000000E+00  1.70000000E+00  1.20000000E+00
  1.20000000E+00  1.70000000E+00  1.20000000E+00  1.20000000E+00  1.70000000E+00
  1.50000000E+00  1.50000000E+00  1.20000000E+00  1.70000000E+00  1.50000000E+00
  1.20000000E+00  1.20000000E+00  1.20000000E+00  1.55000000E+00  1.30000000E+00
  1.70000000E+00  1.20000000E+00  1.70000000E+00  1.20000000E+00  1.20000000E+00
  1.70000000E+00  1.50000000E+00  1.55000000E+00  1.30000000E+00  1.30000000E+00
  1.70000000E+00  1.50000000E+00  1.55000000E+00  1.30000000E+00  1.70000000E+00
  1.20000000E+00  1.70000000E+00  1.20000000E+00  1.20000000E+00  1.70000000E+00
  1.70000000E+00  1.20000000E+00  1.70000000E+00  1.20000000E+00  1.70000000E+00
  1.50000000E+00  1.20000000E+00  1.70000000E+00  1.20000000E+00  1.70000000E+00
  1.20000000E+00  1.70000000E+00  1.50000000E+00  1.55000000E+00  1.30000000E+00
  1.70000000E+00  1.20000000E+00  1.70000000E+00  1.20000000E+00  1.20000000E+00
  1.80000000E+00  1.70000000E+00  1.50000000E+00  1.55000000E+00  1.30000000E+00
  1.70000000E+00  1.20000000E+00  1.20000000E+00  1.20000000E+00  1.20000000E+00
  1.70000000E+00  1.20000000E+00  1.20000000E+00  1.70000000E+00  1.50000000E+00
  1.55000000E+00  1.30000000E+00  1.70000000E+00  1.20000000E+00  1.70000000E+00
  1.20000000E+00  1.20000000E+00  1.70000000E+00  1.55000000E+00  1.30000000E+00
  1.70000000E+00  1.20000000E+00  1.55000000E+00  1.30000000E+00  1.70000000E+00
  1.20000000E+00  1.70000000E+00  1.50000000E+00  1.55000000E+00  1.30000000E+00
  1.70000000E+00  1.20000000E+00  1.70000000E+00  1.20000000E+00  1.20000000E+00
  1.70000000E+00  1.20000000E+00  1.70000000E+00  1.20000000E+00  1.20000000E+00
  1.20000000E+00  1.70000000E+00  1.20000000E+00  1.20000000E+00  1.20000000E+00
  1.70000000E+00  1.50000000E+00  1.55000000E+00  1.30000000E+00  1.70000000E+00
  1.20000000E+00  1.70000000E+00  1.20000000E+00  1.20000000E+00  1.80000000E+00
  1.70000000E+00  1.50000000E+00  1.55000000E+00  1.30000000E+00  1.70000000E+00
  1.20000000E+00  1.20000000E+00  1.70000000E+00  1.50000000E+00  1.55000000E+00
  1.30000000E+00  1.70000000E+00  1.20000000E+00  1.70000000E+00  1.20000000E+00
  1.20000000E+00  1.50000000E+00  1.20000000E+00  1.70000000E+00  1.50000000E+00
  1.55000000E+00  1.30000000E+00  1.70000000E+00  1.20000000E+00  1.70000000E+00
  1.20000000E+00  1.20000000E+00  1.70000000E+00  1.55000000E+00  1.30000000E+00
  1.70000000E+00  1.20000000E+00  1.55000000E+00  1.30000000E+00  1.70000000E+00
  1.20000000E+00  1.70000000E+00  1.50000000E+00  1.55000000E+00  1.30000000E+00
  1.70000000E+00  1.20000000E+00  1.70000000E+00  1.20000000E+00  1.20000000E+00
  1.70000000E+00  1.20000000E+00  1.70000000E+00  1.20000000E+00  1.20000000E+00
  1.20000000E+00  1.70000000E+00  1.20000000E+00  1.20000000E+00  1.20000000E+00
  1.70000000E+00  1.50000000E+00  1.55000000E+00  1.30000000E+00  1.70000000E+00
  1.20000000E+00  1.70000000E+00  1.20000000E+00  1.70000000E+00  1.20000000E+00
  1.20000000E+00  1.20000000E+00  1.70000000E+00  1.20000000E+00  1.20000000E+00
  1.20000000E+00  1.70000000E+00  1.50000000E+00  1.55000000E+00  1.30000000E+00
  1.70000000E+00  1.20000000E+00  1.70000000E+00  1.20000000E+00  1.20000000E+00
  1.70000000E+00  1.20000000E+00  1.20000000E+00  1.70000000E+00  1.50000000E+00
  1.50000000E+00  1.20000000E+00  1.70000000E+00  1.50000000E+00  1.20000000E+00
  1.20000000E+00  1.20000000E+00  1.55000000E+00  1.30000000E+00  1.70000000E+00
  1.20000000E+00  1.70000000E+00  1.20000000E+00  1.20000000E+00  1.20000000E+00
  1.70000000E+00  1.50000000E+00  1.55000000E+00  1.30000000E+00  1.70000000E+00
  1.20000000E+00  1.70000000E+00  1.20000000E+00  1.20000000E+00  1.70000000E+00
  1.20000000E+00  1.70000000E+00  1.20000000E+00  1.20000000E+00  1.20000000E+00
  1.70000000E+00  1.20000000E+00  1.20000000E+00  1.20000000E+00  1.70000000E+00
  1.50000000E+00  1.55000000E+00  1.30000000E+00  1.70000000E+00  1.20000000E+00
  1.70000000E+00  1.20000000E+00  1.20000000E+00  1.70000000E+00  1.70000000E+00
  1.20000000E+00  1.70000000E+00  1.20000000E+00  1.70000000E+00  1.50000000E+00
  1.20000000E+00  1.70000000E+00  1.20000000E+00  1.70000000E+00  1.20000000E+00
  1.70000000E+00  1.50000000E+00  1.55000000E+00  1.30000000E+00  1.70000000E+00
  1.20000000E+00  1.70000000E+00  1.20000000E+00  1.20000000E+00  1.70000000E+00
  1.20000000E+00  1.70000000E+00  1.20000000E+00  1.20000000E+00  1.20000000E+00
  1.70000000E+00  1.20000000E+00  1.20000000E+00  1.20000000E+00  1.70000000E+00
  1.50000000E+00  1.55000000E+00  1.30000000E+00  1.70000000E+00  1.20000000E+00
  1.70000000E+00  1.20000000E+00  1.70000000E+00  1.20000000E+00  1.20000000E+00
  1.20000000E+00  1.70000000E+00  1.20000000E+00  1.20000000E+00  1.20000000E+00
  1.70000000E+00  1.50000000E+00  1.55000000E+00  1.30000000E+00  1.70000000E+00
  1.20000000E+00  1.70000000E+00  1.20000000E+00  1.20000000E+00  1.80000000E+00
  1.70000000E+00  1.50000000E+00  1.55000000E+00  1.30000000E+00  1.70000000E+00
  1.20000000E+00  1.20000000E+00  1.70000000E+00  1.50000000E+00  1.55000000E+00
  1.30000000E+00  1.70000000E+00  1.20000000E+00  1.70000000E+00  1.20000000E+00
  1.20000000E+00  1.70000000E+00  1.20000000E+00  1.20000000E+00  1.70000000E+00
  1.50000000E+00  1.50000000E+00  1.20000000E+00  1.70000000E+00  1.50000000E+00
  1.20000000E+00  1.20000000E+00  1.20000000E+00  1.55000000E+00  1.30000000E+00
  1.70000000E+00  1.20000000E+00  1.70000000E+00  1.20000000E+00  1.20000000E+00
  1.70000000E+00  1.20000000E+00  1.20000000E+00  1.70000000E+00  1.20000000E+00
  1.20000000E+00  1.55000000E+00  1.30000000E+00  1.70000000E+00  1.55000000E+00
  1.30000000E+00  1.30000000E+00  1.55000000E+00  1.30000000E+00  1.30000000E+00
  1.70000000E+00  1.50000000E+00  1.55000000E+00  1.30000000E+00  1.70000000E+00
  1.20000000E+00  1.20000000E+00  1.70000000E+00  1.50000000E+00  1.55000000E+00
  1.30000000E+00  1.70000000E+00  1.20000000E+00  1.70000000E+00  1.20000000E+00
  1.20000000E+00  1.70000000E+00  1.70000000E+00  1.20000000E+00  1.70000000E+00
  1.20000000E+00  1.70000000E+00  1.20000000E+00  1.70000000E+00  1.20000000E+00
  1.70000000E+00  1.20000000E+00  1.70000000E+00  1.50000000E+00  1.55000000E+00
  1.30000000E+00  1.70000000E+00  1.20000000E+00  1.70000000E+00  1.20000000E+00
  1.20000000E+00  1.70000000E+00  1.70000000E+00  1.20000000E+00  1.70000000E+00
  1.20000000E+00  1.70000000E+00  1.20000000E+00  1.70000000E+00  1.20000000E+00
  1.70000000E+00  1.20000000E+00  1.70000000E+00  1.50000000E+00  1.55000000E+00
  1.30000000E+00  1.70000000E+00  1.20000000E+00  1.70000000E+00  1.20000000E+00
  1.20000000E+00  1.70000000E+00  1.70000000E+00  1.20000000E+00  1.70000000E+00
  1.20000000E+00  1.70000000E+00  1.50000000E+00  1.20000000E+00  1.70000000E+00
  1.20000000E+00  1.70000000E+00  1.20000000E+00  1.70000000E+00  1.50000000E+00
  1.55000000E+00  1.30000000E+00  1.70000000E+00  1.20000000E+00  1.70000000E+00
  1.20000000E+00  1.70000000E+00  1.20000000E+00  1.20000000E+00  1.20000000E+00
  1.50000000E+00  1.20000000E+00  1.70000000E+00  1.50000000E+00  1.55000000E+00
  1.30000000E+00  1.70000000E+00  1.20000000E+00  1.20000000E+00  1.20000000E+00
  1.20000000E+00  1.70000000E+00  1.20000000E+00  1.20000000E+00  1.70000000E+00
  1.50000000E+00  1.55000000E+00  1.30000000E+00  1.70000000E+00  1.20000000E+00
  1.70000000E+00  1.20000000E+00  1.20000000E+00  1.70000000E+00  1.20000000E+00
  1.20000000E+00  1.70000000E+00  1.50000000E+00  1.55000000E+00  1.30000000E+00
  1.30000000E+00  1.70000000E+00  1.50000000E+00  1.55000000E+00  1.30000000E+00
  1.70000000E+00  1.20000000E+00  1.70000000E+00  1.20000000E+00  1.20000000E+00
  1.80000000E+00  1.70000000E+00  1.50000000E+00  1.55000000E+00  1.30000000E+00
  1.70000000E+00  1.20000000E+00  1.70000000E+00  1.20000000E+00  1.20000000E+00
  1.80000000E+00  1.70000000E+00  1.50000000E+00  1.55000000E+00  1.30000000E+00
  1.70000000E+00  1.20000000E+00  1.70000000E+00  1.20000000E+00  1.70000000E+00
  1.20000000E+00  1.20000000E+00  1.20000000E+00  1.50000000E+00  1.20000000E+00
  1.70000000E+00  1.50000000E+00  1.55000000E+00  1.30000000E+00  1.70000000E+00
  1.20000000E+00  1.70000000E+00  1.20000000E+00  1.20000000E+00  1.50000000E+00
  1.20000000E+00  1.70000000E+00  1.50000000E+00  1.55000000E+00  1.30000000E+00
  1.70000000E+00  1.20000000E+00  1.70000000E+00  1.20000000E+00  1.70000000E+00
  1.20000000E+00  1.20000000E+00  1.20000000E+00  1.70000000E+00  1.20000000E+00
  1.20000000E+00  1.70000000E+00  1.20000000E+00  1.20000000E+00  1.20000000E+00
  1.70000000E+00  1.50000000E+00  1.55000000E+00  1.30000000E+00  1.70000000E+00
  1.20000000E+00  1.70000000E+00  1.20000000E+00  1.20000000E+00  1.80000000E+00
  1.70000000E+00  1.50000000E+00  1.55000000E+00  1.30000000E+00  1.70000000E+00
  1.20000000E+00  1.70000000E+00  1.20000000E+00  1.20000000E+00  1.50000000E+00
  1.20000000E+00  1.70000000E+00  1.50000000E+00  1.55000000E+00  1.30000000E+00
  1.70000000E+00  1.20000000E+00  1.70000000E+00  1.20000000E+00  1.20000000E+00
  1.70000000E+00  1.20000000E+00  1.70000000E+00  1.20000000E+00  1.20000000E+00
  1.20000000E+00  1.70000000E+00  1.20000000E+00  1.20000000E+00  1.20000000E+00
  1.70000000E+00  1.50000000E+00  1.55000000E+00  1.30000000E+00  1.70000000E+00
  1.20000000E+00  1.70000000E+00  1.20000000E+00  1.20000000E+00  1.70000000E+00
  1.70000000E+00  1.20000000E+00  1.70000000E+00  1.20000000E+00  1.70000000E+00
  1.50000000E+00  1.20000000E+00  1.70000000E+00  1.20000000E+00  1.70000000E+00
  1.20000000E+00  1.70000000E+00  1.50000000E+00  1.55000000E+00  1.30000000E+00
  1.70000000E+00  1.20000000E+00  1.70000000E+00  1.20000000E+00  1.20000000E+00
  1.70000000E+00  1.20000000E+00  1.20000000E+00  1.70000000E+00  1.50000000E+00
  1.55000000E+00  1.30000000E+00  1.30000000E+00  1.70000000E+00  1.50000000E+00
  1.55000000E+00  1.30000000E+00  1.70000000E+00  1.20000000E+00  1.70000000E+00
  1.20000000E+00  1.20000000E+00  1.70000000E+00  1.20000000E+00  1.70000000E+00
  1.20000000E+00  1.20000000E+00  1.20000000E+00  1.70000000E+00  1.20000000E+00
  1.20000000E+00  1.20000000E+00  1.70000000E+00  1.50000000E+00  1.55000000E+00
  1.30000000E+00  1.70000000E+00  1.20000000E+00  1.70000000E+00  1.20000000E+00
  1.20000000E+00  1.70000000E+00  1.20000000E+00  1.20000000E+00  1.70000000E+00
  1.50000000E+00  1.50000000E+00  1.20000000E+00  1.70000000E+00  1.50000000E+00
  1.20000000E+00  1.20000000E+00  1.20000000E+00  1.55000000E+00  1.30000000E+00
  1.70000000E+00  1.20000000E+00  1.70000000E+00  1.20000000E+00  1.20000000E+00
  1.70000000E+00  1.50000000E+00  1.55000000E+00  1.30000000E+00  1.30000000E+00
  1.70000000E+00  1.50000000E+00  1.55000000E+00  1.30000000E+00  1.70000000E+00
  1.20000000E+00  1.70000000E+00  1.20000000E+00  1.20000000E+00  1.70000000E+00
  1.70000000E+00  1.20000000E+00  1.70000000E+00  1.20000000E+00  1.70000000E+00
  1.50000000E+00  1.20000000E+00  1.70000000E+00  1.20000000E+00  1.70000000E+00
  1.20000000E+00  1.70000000E+00  1.50000000E+00  1.55000000E+00  1.30000000E+00
  1.70000000E+00  1.20000000E+00  1.70000000E+00  1.20000000E+00  1.20000000E+00
  1.80000000E+00  1.70000000E+00  1.50000000E+00  1.55000000E+00  1.30000000E+00
  1.70000000E+00  1.20000000E+00  1.20000000E+00  1.20000000E+00  1.20000000E+00
  1.70000000E+00  1.20000000E+00  1.20000000E+00  1.70000000E+00  1.50000000E+00
  1.55000000E+00  1.30000000E+00  1.70000000E+00  1.20000000E+00  1.70000000E+00
  1.20000000E+00  1.20000000E+00  1.70000000E+00  1.55000000E+00  1.30000000E+00
  1.70000000E+00  1.20000000E+00  1.55000000E+00  1.30000000E+00  1.70000000E+00
  1.20000000E+00  1.70000000E+00  1.50000000E+00  1.55000000E+00  1.30000000E+00
  1.70000000E+00  1.20000000E+00  1.70000000E+00  1.20000000E+00  1.20000000E+00
  1.70000000E+00  1.20000000E+00  1.70000000E+00  1.20000000E+00  1.20000000E+00
  1.20000000E+00  1.70000000E+00  1.20000000E+00  1.20000000E+00  1.20000000E+00
  1.70000000E+00  1.50000000E+00  1.55000000E+00  1.30000000E+00  1.70000000E+00
  1.20000000E+00  1.70000000E+00  1.20000000E+00  1.20000000E+00  1.80000000E+00
  1.70000000E+00  1.50000000E+00  1.55000000E+00  1.30000000E+00  1.70000000E+00
  1.20000000E+00  1.20000000E+00  1.70000000E+00  1.50000000E+00  1.55000000E+00
  1.30000000E+00  1.70000000E+00  1.20000000E+00  1.70000000E+00  1.20000000E+00
  1.20000000E+00  1.50000000E+00  1.20000000E+00  1.70000000E+00  1.50000000E+00
  1.55000000E+00  1.30000000E+00  1.70000000E+00  1.20000000E+00  1.70000000E+00
  1.20000000E+00  1.20000000E+00  1.70000000E+00  1.55000000E+00  1.30000000E+00
  1.70000000E+00  1.20000000E+00  1.55000000E+00  1.30000000E+00  1.70000000E+00
  1.20000000E+00  1.70000000E+00  1.50000000E+00  1.55000000E+00  1.30000000E+00
  1.70000000E+00  1.20000000E+00  1.70000000E+00  1.20000000E+00  1.20000000E+00
  1.70000000E+00  1.20000000E+00  1.70000000E+00  1.20000000E+00  1.20000000E+00
  1.20000000E+00  1.70000000E+00  1.20000000E+00  1.20000000E+00  1.20000000E+00
  1.70000000E+00  1.50000000E+00  1.55000000E+00  1.30000000E+00  1.70000000E+00
  1.20000000E+00  1.70000000E+00  1.20000000E+00  1.70000000E+00  1.20000000E+00
  1.20000000E+00  1.20000000E+00  1.70000000E+00  1.20000000E+00  1.20000000E+00
  1.20000000E+00  1.70000000E+00  1.50000000E+00  1.55000000E+00  1.30000000E+00
  1.70000000E+00  1.20000000E+00  1.70000000E+00  1.20000000E+00  1.20000000E+00
  1.70000000E+00  1.20000000E+00  1.20000000E+00  1.70000000E+00  1.50000000E+00
  1.50000000E+00  1.20000000E+00  1.70000000E+00  1.50000000E+00  1.20000000E+00
  1.20000000E+00  1.20000000E+00  1.55000000E+00  1.30000000E+00  1.70000000E+00
  1.20000000E+00  1.70000000E+00  1.20000000E+00  1.20000000E+00  1.20000000E+00
  1.70000000E+00  1.50000000E+00  1.55000000E+00  1.30000000E+00  1.70000000E+00
  1.20000000E+00  1.70000000E+00  1.20000000E+00  1.20000000E+00  1.70000000E+00
  1.20000000E+00  1.70000000E+00  1.20000000E+00  1.20000000E+00  1.20000000E+00
  1.70000000E+00  1.20000000E+00  1.20000000E+00  1.20000000E+00  1.70000000E+00
  1.50000000E+00  1.55000000E+00  1.30000000E+00  1.70000000E+00  1.20000000E+00
  1.70000000E+00  1.20000000E+00  1.20000000E+00  1.70000000E+00  1.70000000E+00
  1.20000000E+00  1.70000000E+00  1.20000000E+00  1.70000000E+00  1.50000000E+00
  1.20000000E+00  1.70000000E+00  1.20000000E+00  1.70000000E+00  1.20000000E+00
  1.70000000E+00  1.50000000E+00  1.55000000E+00  1.30000000E+00  1.70000000E+00
  1.20000000E+00  1.70000000E+00  1.20000000E+00  1.20000000E+00  1.70000000E+00
  1.20000000E+00  1.70000000E+00  1.20000000E+00  1.20000000E+00  1.20000000E+00
  1.70000000E+00  1.20000000E+00  1.20000000E+00  1.20000000E+00  1.70000000E+00
  1.50000000E+00  1.55000000E+00  1.30000000E+00  1.70000000E+00  1.20000000E+00
  1.70000000E+00  1.20000000E+00  1.70000000E+00  1.20000000E+00  1.20000000E+00
  1.20000000E+00  1.70000000E+00  1.20000000E+00  1.20000000E+00  1.20000000E+00
  1.70000000E+00  1.50000000E+00  1.55000000E+00  1.30000000E+00  1.70000000E+00
  1.20000000E+00  1.70000000E+00  1.20000000E+00  1.20000000E+00  1.80000000E+00
  1.70000000E+00  1.50000000E+00  1.55000000E+00  1.30000000E+00  1.70000000E+00
  1.20000000E+00  1.20000000E+00  1.70000000E+00  1.50000000E+00  1.55000000E+00
  1.30000000E+00  1.70000000E+00  1.20000000E+00  1.70000000E+00  1.20000000E+00
  1.20000000E+00  1.70000000E+00  1.20000000E+00  1.20000000E+00  1.70000000E+00
  1.50000000E+00  1.50000000E+00  1.20000000E+00  1.70000000E+00  1.50000000E+00
  1.20000000E+00  1.20000000E+00  1.20000000E+00  1.55000000E+00  1.30000000E+00
  1.70000000E+00  1.20000000E+00  1.70000000E+00  1.20000000E+00  1.20000000E+00
  1.70000000E+00  1.20000000E+00  1.20000000E+00  1.70000000E+00  1.20000000E+00
  1.20000000E+00  1.55000000E+00  1.30000000E+00  1.70000000E+00  1.55000000E+00
  1.30000000E+00  1.30000000E+00  1.55000000E+00  1.30000000E+00  1.30000000E+00
  1.70000000E+00  1.50000000E+00  1.55000000E+00  1.30000000E+00  1.70000000E+00
  1.20000000E+00  1.20000000E+00  1.70000000E+00  1.50000000E+00  1.55000000E+00
  1.30000000E+00  1.70000000E+00  1.20000000E+00  1.70000000E+00  1.20000000E+00
  1.20000000E+00  1.70000000E+00  1.70000000E+00  1.20000000E+00  1.70000000E+00
  1.20000000E+00  1.70000000E+00  1.20000000E+00  1.70000000E+00  1.20000000E+00
  1.70000000E+00  1.20000000E+00  1.70000000E+00  1.50000000E+00  1.55000000E+00
  1.30000000E+00  1.70000000E+00  1.20000000E+00  1.70000000E+00  1.20000000E+00
  1.20000000E+00  1.70000000E+00  1.70000000E+00  1.20000000E+00  1.70000000E+00
  1.20000000E+00  1.70000000E+00  1.20000000E+00  1.70000000E+00  1.20000000E+00
  1.70000000E+00  1.20000000E+00  1.70000000E+00  1.50000000E+00  1.55000000E+00
  1.30000000E+00  1.70000000E+00  1.20000000E+00  1.70000000E+00  1.20000000E+00
  1.20000000E+00  1.70000000E+00  1.70000000E+00  1.20000000E+00  1.70000000E+00
  1.20000000E+00  1.70000000E+00  1.50000000E+00  1.20000000E+00  1.70000000E+00
  1.20000000E+00  1.70000000E+00  1.20000000E+00  1.70000000E+00  1.50000000E+00
  1.55000000E+00  1.30000000E+00  1.70000000E+00  1.20000000E+00  1.70000000E+00
  1.20000000E+00  1.70000000E+00  1.20000000E+00  1.20000000E+00  1.20000000E+00
  1.50000000E+00  1.20000000E+00  1.70000000E+00  1.50000000E+00  1.55000000E+00
  1.30000000E+00  1.70000000E+00  1.20000000E+00  1.20000000E+00  1.20000000E+00
  1.20000000E+00  1.70000000E+00  1.20000000E+00  1.20000000E+00  1.70000000E+00
  1.50000000E+00  1.55000000E+00  1.30000000E+00  1.70000000E+00  1.20000000E+00
  1.70000000E+00  1.20000000E+00  1.20000000E+00  1.70000000E+00  1.20000000E+00
  1.20000000E+00  1.70000000E+00  1.50000000E+00  1.55000000E+00  1.30000000E+00
  1.30000000E+00  1.70000000E+00  1.50000000E+00  1.55000000E+00  1.30000000E+00
  1.70000000E+00  1.20000000E+00  1.70000000E+00  1.20000000E+00  1.20000000E+00
  1.80000000E+00  1.70000000E+00  1.50000000E+00  1.55000000E+00  1.30000000E+00
  1.70000000E+00  1.20000000E+00  1.70000000E+00  1.20000000E+00  1.20000000E+00
  1.80000000E+00  1.70000000E+00  1.50000000E+00  1.55000000E+00  1.30000000E+00
  1.70000000E+00  1.20000000E+00  1.70000000E+00  1.20000000E+00  1.70000000E+00
  1.20000000E+00  1.20000000E+00  1.20000000E+00  1.50000000E+00  1.20000000E+00
  1.70000000E+00  1.50000000E+00  1.55000000E+00  1.30000000E+00  1.70000000E+00
  1.20000000E+00  1.70000000E+00  1.20000000E+00  1.20000000E+00  1.50000000E+00
  1.20000000E+00  1.70000000E+00  1.50000000E+00  1.55000000E+00  1.30000000E+00
  1.70000000E+00  1.20000000E+00  1.70000000E+00  1.20000000E+00  1.70000000E+00
  1.20000000E+00  1.20000000E+00  1.20000000E+00  1.70000000E+00  1.20000000E+00
  1.20000000E+00  1.70000000E+00  1.20000000E+00  1.20000000E+00  1.20000000E+00
  1.70000000E+00  1.50000000E+00  1.55000000E+00  1.30000000E+00  1.70000000E+00
  1.20000000E+00  1.70000000E+00  1.20000000E+00  1.20000000E+00  1.80000000E+00
  1.70000000E+00  1.50000000E+00  1.55000000E+00  1.30000000E+00  1.70000000E+00
  1.20000000E+00  1.70000000E+00  1.20000000E+00  1.20000000E+00  1.50000000E+00
  1.20000000E+00  1.70000000E+00  1.50000000E+00  1.55000000E+00  1.30000000E+00
  1.70000000E+00  1.20000000E+00  1.70000000E+00  1.20000000E+00  1.20000000E+00
  1.70000000E+00  1.20000000E+00  1.70000000E+00  1.20000000E+00  1.20000000E+00
  1.20000000E+00  1.70000000E+00  1.20000000E+00  1.20000000E+00  1.20000000E+00
  1.70000000E+00  1.50000000E+00  1.55000000E+00  1.30000000E+00  1.70000000E+00
  1.20000000E+00  1.70000000E+00  1.20000000E+00  1.20000000E+00  1.70000000E+00
  1.70000000E+00  1.20000000E+00  1.70000000E+00  1.20000000E+00  1.70000000E+00
  1.50000000E+00  1.20000000E+00  1.70000000E+00  1.20000000E+00  1.70000000E+00
  1.20000000E+00  1.70000000E+00  1.50000000E+00  1.55000000E+00  1.30000000E+00
  1.70000000E+00  1.20000000E+00  1.70000000E+00  1.20000000E+00  1.20000000E+00
  1.70000000E+00  1.20000000E+00  1.20000000E+00  1.70000000E+00  1.50000000E+00
  1.55000000E+00  1.30000000E+00  1.30000000E+00  1.70000000E+00  1.50000000E+00
  1.55000000E+00  1.30000000E+00  1.70000000E+00  1.20000000E+00  1.70000000E+00
  1.20000000E+00  1.20000000E+00  1.70000000E+00  1.20000000E+00  1.70000000E+00
  1.20000000E+00  1.20000000E+00  1.20000000E+00  1.70000000E+00  1.20000000E+00
  1.20000000E+00  1.20000000E+00  1.70000000E+00  1.50000000E+00  1.55000000E+00
  1.30000000E+00  1.70000000E+00  1.20000000E+00  1.70000000E+00  1.20000000E+00
  1.20000000E+00  1.70000000E+00  1.20000000E+00  1.20000000E+00  1.70000000E+00
  1.50000000E+00  1.50000000E+00  1.20000000E+00  1.70000000E+00  1.50000000E+00
  1.20000000E+00  1.20000000E+00  1.20000000E+00  1.55000000E+00  1.30000000E+00
  1.70000000E+00  1.20000000E+00  1.70000000E+00  1.20000000E+00  1.20000000E+00
  1.70000000E+00  1.50000000E+00  1.55000000E+00  1.30000000E+00  1.30000000E+00
  1.70000000E+00  1.50000000E+00  1.55000000E+00  1.30000000E+00  1.70000000E+00
  1.20000000E+00  1.70000000E+00  1.20000000E+00  1.20000000E+00  1.70000000E+00
  1.70000000E+00  1.20000000E+00  1.70000000E+00  1.20000000E+00  1.70000000E+00
  1.50000000E+00  1.20000000E+00  1.70000000E+00  1.20000000E+00  1.70000000E+00
  1.20000000E+00  1.70000000E+00  1.50000000E+00  1.55000000E+00  1.30000000E+00
  1.70000000E+00  1.20000000E+00  1.70000000E+00  1.20000000E+00  1.20000000E+00
  1.80000000E+00  1.70000000E+00  1.50000000E+00  1.55000000E+00  1.30000000E+00
  1.70000000E+00  1.20000000E+00  1.20000000E+00  1.20000000E+00  1.20000000E+00
  1.70000000E+00  1.20000000E+00  1.20000000E+00  1.70000000E+00  1.50000000E+00
  1.55000000E+00  1.30000000E+00  1.70000000E+00  1.20000000E+00  1.70000000E+00
  1.20000000E+00  1.20000000E+00  1.70000000E+00  1.55000000E+00  1.30000000E+00
  1.70000000E+00  1.20000000E+00  1.55000000E+00  1.30000000E+00  1.70000000E+00
  1.20000000E+00  1.70000000E+00  1.50000000E+00  1.55000000E+00  1.30000000E+00
  1.70000000E+00  1.20000000E+00  1.70000000E+00  1.20000000E+00  1.20000000E+00
  1.70000000E+00  1.20000000E+00  1.70000000E+00  1.20000000E+00  1.20000000E+00
  1.20000000E+00  1.70000000E+00  1.20000000E+00  1.20000000E+00  1.20000000E+00
  1.70000000E+00  1.50000000E+00  1.55000000E+00  1.30000000E+00  1.70000000E+00
  1.20000000E+00  1.70000000E+00  1.20000000E+00  1.20000000E+00  1.80000000E+00
  1.70000000E+00  1.50000000E+00  1.55000000E+00  1.30000000E+00  1.70000000E+00
  1.20000000E+00  1.20000000E+00  1.70000000E+00  1.50000000E+00  1.55000000E+00
  1.30000000E+00  1.70000000E+00  1.20000000E+00  1.70000000E+00  1.20000000E+00
  1.20000000E+00  1.50000000E+00  1.20000000E+00  1.70000000E+00  1.50000000E+00
  1.55000000E+00  1.30000000E+00  1.70000000E+00  1.20000000E+00  1.70000000E+00
  1.20000000E+00  1.20000000E+00  1.70000000E+00  1.55000000E+00  1.30000000E+00
  1.70000000E+00  1.20000000E+00  1.55000000E+00  1.30000000E+00  1.70000000E+00
  1.20000000E+00  1.70000000E+00  1.50000000E+00  1.55000000E+00  1.30000000E+00
  1.70000000E+00  1.20000000E+00  1.70000000E+00  1.20000000E+00  1.20000000E+00
  1.70000000E+00  1.20000000E+00  1.70000000E+00  1.20000000E+00  1.20000000E+00
  1.20000000E+00  1.70000000E+00  1.20000000E+00  1.20000000E+00  1.20000000E+00
  1.70000000E+00  1.50000000E+00  1.55000000E+00  1.30000000E+00  1.70000000E+00
  1.20000000E+00  1.70000000E+00  1.20000000E+00  1.70000000E+00  1.20000000E+00
  1.20000000E+00  1.20000000E+00  1.70000000E+00  1.20000000E+00  1.20000000E+00
  1.20000000E+00  1.70000000E+00  1.50000000E+00  1.55000000E+00  1.30000000E+00
  1.70000000E+00  1.20000000E+00  1.70000000E+00  1.20000000E+00  1.20000000E+00
  1.70000000E+00  1.20000000E+00  1.20000000E+00  1.70000000E+00  1.50000000E+00
  1.50000000E+00  1.20000000E+00  1.70000000E+00  1.50000000E+00  1.20000000E+00
  1.20000000E+00  1.20000000E+00  1.55000000E+00  1.30000000E+00  1.70000000E+00
  1.20000000E+00  1.70000000E+00  1.20000000E+00  1.20000000E+00  1.20000000E+00
  1.70000000E+00  1.50000000E+00  1.55000000E+00  1.30000000E+00  1.70000000E+00
  1.20000000E+00  1.70000000E+00  1.20000000E+00  1.20000000E+00  1.70000000E+00
  1.20000000E+00  1.70000000E+00  1.20000000E+00  1.20000000E+00  1.20000000E+00
  1.70000000E+00  1.20000000E+00  1.20000000E+00  1.20000000E+00  1.70000000E+00
  1.50000000E+00  1.55000000E+00  1.30000000E+00  1.70000000E+00  1.20000000E+00
  1.70000000E+00  1.20000000E+00  1.20000000E+00  1.70000000E+00  1.70000000E+00
  1.20000000E+00  1.70000000E+00  1.20000000E+00  1.70000000E+00  1.50000000E+00
  1.20000000E+00  1.70000000E+00  1.20000000E+00  1.70000000E+00  1.20000000E+00
  1.70000000E+00  1.50000000E+00  1.55000000E+00  1.30000000E+00  1.70000000E+00
  1.20000000E+00  1.70000000E+00  1.20000000E+00  1.20000000E+00  1.70000000E+00
  1.20000000E+00  1.70000000E+00  1.20000000E+00  1.20000000E+00  1.20000000E+00
  1.70000000E+00  1.20000000E+00  1.20000000E+00  1.20000000E+00  1.70000000E+00
  1.50000000E+00  1.55000000E+00  1.30000000E+00  1.70000000E+00  1.20000000E+00
  1.70000000E+00  1.20000000E+00  1.70000000E+00  1.20000000E+00  1.20000000E+00
  1.20000000E+00  1.70000000E+00  1.20000000E+00  1.20000000E+00  1.20000000E+00
  1.70000000E+00  1.50000000E+00  1.55000000E+00  1.30000000E+00  1.70000000E+00
  1.20000000E+00  1.70000000E+00  1.20000000E+00  1.20000000E+00  1.80000000E+00
  1.70000000E+00  1.50000000E+00  1.55000000E+00  1.30000000E+00  1.70000000E+00
  1.20000000E+00  1.20000000E+00  1.70000000E+00  1.50000000E+00  1.55000000E+00
  1.30000000E+00  1.70000000E+00  1.20000000E+00  1.70000000E+00  1.20000000E+00
  1.20000000E+00  1.70000000E+00  1.20000000E+00  1.20000000E+00  1.70000000E+00
  1.50000000E+00  1.50000000E+00  1.20000000E+00  1.70000000E+00  1.50000000E+00
  1.20000000E+00  1.20000000E+00  1.20000000E+00  1.55000000E+00  1.30000000E+00
  1.70000000E+00  1.20000000E+00  1.70000000E+00  1.20000000E+00  1.20000000E+00
  1.70000000E+00  1.20000000E+00  1.20000000E+00  1.70000000E+00  1.20000000E+00
  1.20000000E+00  1.55000000E+00  1.30000000E+00  1.70000000E+00  1.55000000E+00
  1.30000000E+00  1.30000000E+00  1.55000000E+00  1.30000000E+00  1.30000000E+00
  1.70000000E+00  1.50000000E+00  1.55000000E+00  1.30000000E+00  1.70000000E+00
  1.20000000E+00  1.20000000E+00  1.70000000E+00  1.50000000E+00  1.55000000E+00
  1.30000000E+00  1.70000000E+00  1.20000000E+00  1.70000000E+00  1.20000000E+00
  1.20000000E+00  1.70000000E+00  1.70000000E+00  1.20000000E+00  1.70000000E+00
  1.20000000E+00  1.70000000E+00  1.20000000E+00  1.70000000E+00  1.20000000E+00
  1.70000000E+00  1.20000000E+00  1.70000000E+00  1.50000000E+00  1.55000000E+00
  1.30000000E+00  1.70000000E+00  1.20000000E+00  1.70000000E+00  1.20000000E+00
  1.20000000E+00  1.70000000E+00  1.70000000E+00  1.20000000E+00  1.70000000E+00
  1.20000000E+00  1.70000000E+00  1.20000000E+00  1.70000000E+00  1.20000000E+00
  1.70000000E+00  1.20000000E+00  1.70000000E+00  1.50000000E+00  1.55000000E+00
  1.30000000E+00  1.70000000E+00  1.20000000E+00  1.70000000E+00  1.20000000E+00
  1.20000000E+00  1.70000000E+00  1.70000000E+00  1.20000000E+00  1.70000000E+00
  1.20000000E+00  1.70000000E+00  1.50000000E+00  1.20000000E+00  1.70000000E+00
  1.20000000E+00  1.70000000E+00  1.20000000E+00  1.70000000E+00  1.50000000E+00
  1.55000000E+00  1.30000000E+00  1.70000000E+00  1.20000000E+00  1.70000000E+00
  1.20000000E+00  1.70000000E+00  1.20000000E+00  1.20000000E+00  1.20000000E+00
  1.50000000E+00  1.20000000E+00  1.70000000E+00  1.50000000E+00  1.55000000E+00
  1.30000000E+00  1.70000000E+00  1.20000000E+00  1.20000000E+00  1.20000000E+00
  1.20000000E+00  1.70000000E+00  1.20000000E+00  1.20000000E+00  1.70000000E+00
  1.50000000E+00  1.55000000E+00  1.30000000E+00  1.70000000E+00  1.20000000E+00
  1.70000000E+00  1.20000000E+00  1.20000000E+00  1.70000000E+00  1.20000000E+00
  1.20000000E+00  1.70000000E+00  1.50000000E+00  1.55000000E+00  1.30000000E+00
  1.30000000E+00  1.70000000E+00  1.50000000E+00  1.55000000E+00  1.30000000E+00
  1.70000000E+00  1.20000000E+00  1.70000000E+00  1.20000000E+00  1.20000000E+00
  1.80000000E+00  1.70000000E+00  1.50000000E+00  1.55000000E+00  1.30000000E+00
  1.70000000E+00  1.20000000E+00  1.70000000E+00  1.20000000E+00  1.20000000E+00
  1.80000000E+00  1.70000000E+00  1.50000000E+00  1.55000000E+00  1.30000000E+00
  1.70000000E+00  1.20000000E+00  1.70000000E+00  1.20000000E+00  1.70000000E+00
  1.20000000E+00  1.20000000E+00  1.20000000E+00  1.50000000E+00  1.20000000E+00
  1.70000000E+00  1.50000000E+00  1.55000000E+00  1.30000000E+00  1.70000000E+00
  1.20000000E+00  1.70000000E+00  1.20000000E+00  1.20000000E+00  1.50000000E+00
  1.20000000E+00  1.70000000E+00  1.50000000E+00  1.55000000E+00  1.30000000E+00
  1.70000000E+00  1.20000000E+00  1.70000000E+00  1.20000000E+00  1.70000000E+00
  1.20000000E+00  1.20000000E+00  1.20000000E+00  1.70000000E+00  1.20000000E+00
  1.20000000E+00  1.70000000E+00  1.20000000E+00  1.20000000E+00  1.20000000E+00
  1.70000000E+00  1.50000000E+00  1.55000000E+00  1.30000000E+00  1.70000000E+00
  1.20000000E+00  1.70000000E+00  1.20000000E+00  1.20000000E+00  1.80000000E+00
  1.70000000E+00  1.50000000E+00  1.55000000E+00  1.30000000E+00  1.70000000E+00
  1.20000000E+00  1.70000000E+00  1.20000000E+00  1.20000000E+00  1.50000000E+00
  1.20000000E+00  1.70000000E+00  1.50000000E+00  1.55000000E+00  1.30000000E+00
  1.70000000E+00  1.20000000E+00  1.70000000E+00  1.20000000E+00  1.20000000E+00
  1.70000000E+00  1.20000000E+00  1.70000000E+00  1.20000000E+00  1.20000000E+00
  1.20000000E+00  1.70000000E+00  1.20000000E+00  1.20000000E+00  1.20000000E+00
  1.70000000E+00  1.50000000E+00  1.55000000E+00  1.30000000E+00  1.70000000E+00
  1.20000000E+00  1.70000000E+00  1.20000000E+00  1.20000000E+00  1.70000000E+00
  1.70000000E+00  1.20000000E+00  1.70000000E+00  1.20000000E+00  1.70000000E+00
  1.50000000E+00  1.20000000E+00  1.70000000E+00  1.20000000E+00  1.70000000E+00
  1.20000000E+00  1.70000000E+00  1.50000000E+00  1.55000000E+00  1.30000000E+00
  1.70000000E+00  1.20000000E+00  1.70000000E+00  1.20000000E+00  1.20000000E+00
  1.70000000E+00  1.20000000E+00  1.20000000E+00  1.70000000E+00  1.50000000E+00
  1.55000000E+00  1.30000000E+00  1.30000000E+00  1.70000000E+00  1.50000000E+00
  1.55000000E+00  1.30000000E+00  1.70000000E+00  1.20000000E+00  1.70000000E+00
  1.20000000E+00  1.20000000E+00  1.70000000E+00  1.20000000E+00  1.70000000E+00
  1.20000000E+00  1.20000000E+00  1.20000000E+00  1.70000000E+00  1.20000000E+00
  1.20000000E+00  1.20000000E+00  1.70000000E+00  1.50000000E+00  1.55000000E+00
  1.30000000E+00  1.70000000E+00  1.20000000E+00  1.70000000E+00  1.20000000E+00
  1.20000000E+00  1.70000000E+00  1.20000000E+00  1.20000000E+00  1.70000000E+00
  1.50000000E+00  1.50000000E+00  1.20000000E+00  1.70000000E+00  1.50000000E+00
  1.20000000E+00  1.20000000E+00  1.20000000E+00  1.55000000E+00  1.30000000E+00
  1.70000000E+00  1.20000000E+00  1.70000000E+00  1.20000000E+00  1.20000000E+00
  1.70000000E+00  1.50000000E+00  1.55000000E+00  1.30000000E+00  1.30000000E+00
  1.70000000E+00  1.50000000E+00  1.55000000E+00  1.30000000E+00  1.70000000E+00
  1.20000000E+00  1.70000000E+00  1.20000000E+00  1.20000000E+00  1.70000000E+00
  1.70000000E+00  1.20000000E+00  1.70000000E+00  1.20000000E+00  1.70000000E+00
  1.50000000E+00  1.20000000E+00  1.70000000E+00  1.20000000E+00  1.70000000E+00
  1.20000000E+00  1.70000000E+00  1.50000000E+00  1.55000000E+00  1.30000000E+00
  1.70000000E+00  1.20000000E+00  1.70000000E+00  1.20000000E+00  1.20000000E+00
  1.80000000E+00  1.70000000E+00  1.50000000E+00  1.55000000E+00  1.30000000E+00
  1.70000000E+00  1.20000000E+00  1.20000000E+00  1.20000000E+00  1.20000000E+00
  1.70000000E+00  1.20000000E+00  1.20000000E+00  1.70000000E+00  1.50000000E+00
  1.55000000E+00  1.30000000E+00  1.70000000E+00  1.20000000E+00  1.70000000E+00
  1.20000000E+00  1.20000000E+00  1.70000000E+00  1.55000000E+00  1.30000000E+00
  1.70000000E+00  1.20000000E+00  1.55000000E+00  1.30000000E+00  1.70000000E+00
  1.20000000E+00  1.70000000E+00  1.50000000E+00  1.55000000E+00  1.30000000E+00
  1.70000000E+00  1.20000000E+00  1.70000000E+00  1.20000000E+00  1.20000000E+00
  1.70000000E+00  1.20000000E+00  1.70000000E+00  1.20000000E+00  1.20000000E+00
  1.20000000E+00  1.70000000E+00  1.20000000E+00  1.20000000E+00  1.20000000E+00
  1.70000000E+00  1.50000000E+00  1.55000000E+00  1.30000000E+00  1.70000000E+00
  1.20000000E+00  1.70000000E+00  1.20000000E+00  1.20000000E+00  1.80000000E+00
  1.70000000E+00  1.50000000E+00  1.55000000E+00  1.30000000E+00  1.70000000E+00
  1.20000000E+00  1.20000000E+00  1.70000000E+00  1.50000000E+00  1.55000000E+00
  1.30000000E+00  1.70000000E+00  1.20000000E+00  1.70000000E+00  1.20000000E+00
  1.20000000E+00  1.50000000E+00  1.20000000E+00  1.70000000E+00  1.50000000E+00
  1.55000000E+00  1.30000000E+00  1.70000000E+00  1.20000000E+00  1.70000000E+00
  1.20000000E+00  1.20000000E+00  1.70000000E+00  1.55000000E+00  1.30000000E+00
  1.70000000E+00  1.20000000E+00  1.55000000E+00  1.30000000E+00  1.70000000E+00
  1.20000000E+00  1.70000000E+00  1.50000000E+00  1.55000000E+00  1.30000000E+00
  1.70000000E+00  1.20000000E+00  1.70000000E+00  1.20000000E+00  1.20000000E+00
  1.70000000E+00  1.20000000E+00  1.70000000E+00  1.20000000E+00  1.20000000E+00
  1.20000000E+00  1.70000000E+00  1.20000000E+00  1.20000000E+00  1.20000000E+00
  1.70000000E+00  1.50000000E+00  1.55000000E+00  1.30000000E+00  1.70000000E+00
  1.20000000E+00  1.70000000E+00  1.20000000E+00  1.70000000E+00  1.20000000E+00
  1.20000000E+00  1.20000000E+00  1.70000000E+00  1.20000000E+00  1.20000000E+00
  1.20000000E+00  1.70000000E+00  1.50000000E+00  1.55000000E+00  1.30000000E+00
  1.70000000E+00  1.20000000E+00  1.70000000E+00  1.20000000E+00  1.20000000E+00
  1.70000000E+00  1.20000000E+00  1.20000000E+00  1.70000000E+00  1.50000000E+00
  1.50000000E+00  1.20000000E+00  1.70000000E+00  1.50000000E+00  1.20000000E+00
  1.20000000E+00  1.20000000E+00  1.55000000E+00  1.30000000E+00  1.70000000E+00
  1.20000000E+00  1.70000000E+00  1.20000000E+00  1.20000000E+00  1.20000000E+00
  1.70000000E+00  1.50000000E+00  1.55000000E+00  1.30000000E+00  1.70000000E+00
  1.20000000E+00  1.70000000E+00  1.20000000E+00  1.20000000E+00  1.70000000E+00
  1.20000000E+00  1.70000000E+00  1.20000000E+00  1.20000000E+00  1.20000000E+00
  1.70000000E+00  1.20000000E+00  1.20000000E+00  1.20000000E+00  1.70000000E+00
  1.50000000E+00  1.55000000E+00  1.30000000E+00  1.70000000E+00  1.20000000E+00
  1.70000000E+00  1.20000000E+00  1.20000000E+00  1.70000000E+00  1.70000000E+00
  1.20000000E+00  1.70000000E+00  1.20000000E+00  1.70000000E+00  1.50000000E+00
  1.20000000E+00  1.70000000E+00  1.20000000E+00  1.70000000E+00  1.20000000E+00
  1.70000000E+00  1.50000000E+00  1.55000000E+00  1.30000000E+00  1.70000000E+00
  1.20000000E+00  1.70000000E+00  1.20000000E+00  1.20000000E+00  1.70000000E+00
  1.20000000E+00  1.70000000E+00  1.20000000E+00  1.20000000E+00  1.20000000E+00
  1.70000000E+00  1.20000000E+00  1.20000000E+00  1.20000000E+00  1.70000000E+00
  1.50000000E+00  1.55000000E+00  1.30000000E+00  1.70000000E+00  1.20000000E+00
  1.70000000E+00  1.20000000E+00  1.70000000E+00  1.20000000E+00  1.20000000E+00
  1.20000000E+00  1.70000000E+00  1.20000000E+00  1.20000000E+00  1.20000000E+00
  1.70000000E+00  1.50000000E+00  1.55000000E+00  1.30000000E+00  1.70000000E+00
  1.20000000E+00  1.70000000E+00  1.20000000E+00  1.20000000E+00  1.80000000E+00
  1.70000000E+00  1.50000000E+00  1.55000000E+00  1.30000000E+00  1.70000000E+00
  1.20000000E+00  1.20000000E+00  1.70000000E+00  1.50000000E+00  1.55000000E+00
  1.30000000E+00  1.70000000E+00  1.20000000E+00  1.70000000E+00  1.20000000E+00
  1.20000000E+00  1.70000000E+00  1.20000000E+00  1.20000000E+00  1.70000000E+00
  1.50000000E+00  1.50000000E+00  1.20000000E+00  1.70000000E+00  1.50000000E+00
  1.20000000E+00  1.20000000E+00  1.20000000E+00  1.55000000E+00  1.30000000E+00
  1.70000000E+00  1.20000000E+00  1.70000000E+00  1.20000000E+00  1.20000000E+00
  1.70000000E+00  1.20000000E+00  1.20000000E+00  1.70000000E+00  1.20000000E+00
  1.20000000E+00  1.55000000E+00  1.30000000E+00  1.70000000E+00  1.55000000E+00
  1.30000000E+00  1.30000000E+00  1.55000000E+00  1.30000000E+00  1.30000000E+00
  1.70000000E+00  1.50000000E+00  1.55000000E+00  1.30000000E+00  1.70000000E+00
  1.20000000E+00  1.20000000E+00  1.70000000E+00  1.50000000E+00  1.55000000E+00
  1.30000000E+00  1.70000000E+00  1.20000000E+00  1.70000000E+00  1.20000000E+00
  1.20000000E+00  1.70000000E+00  1.70000000E+00  1.20000000E+00  1.70000000E+00
  1.20000000E+00  1.70000000E+00  1.20000000E+00  1.70000000E+00  1.20000000E+00
  1.70000000E+00  1.20000000E+00  1.70000000E+00  1.50000000E+00  1.55000000E+00
  1.30000000E+00  1.70000000E+00  1.20000000E+00  1.70000000E+00  1.20000000E+00
  1.20000000E+00  1.70000000E+00  1.70000000E+00  1.20000000E+00  1.70000000E+00
  1.20000000E+00  1.70000000E+00  1.20000000E+00  1.70000000E+00  1.20000000E+00
  1.70000000E+00  1.20000000E+00  1.70000000E+00  1.50000000E+00  1.55000000E+00
  1.30000000E+00  1.70000000E+00  1.20000000E+00  1.70000000E+00  1.20000000E+00
  1.20000000E+00  1.70000000E+00  1.70000000E+00  1.20000000E+00  1.70000000E+00
  1.20000000E+00  1.70000000E+00  1.50000000E+00  1.20000000E+00  1.70000000E+00
  1.20000000E+00  1.70000000E+00  1.20000000E+00  1.70000000E+00  1.50000000E+00
  1.55000000E+00  1.30000000E+00  1.70000000E+00  1.20000000E+00  1.70000000E+00
  1.20000000E+00  1.70000000E+00  1.20000000E+00  1.20000000E+00  1.20000000E+00
  1.50000000E+00  1.20000000E+00  1.70000000E+00  1.50000000E+00  1.55000000E+00
  1.30000000E+00  1.70000000E+00  1.20000000E+00  1.20000000E+00  1.20000000E+00
  1.50000000E+00  1.20000000E+00  1.20000000E+00  1.50000000E+00  1.20000000E+00
  1.20000000E+00  1.50000000E+00  1.20000000E+00  1.20000000E+00  1.50000000E+00
  1.20000000E+00  1.20000000E+00  1.50000000E+00  1.20000000E+00  1.20000000E+00
  1.50000000E+00  1.20000000E+00  1.20000000E+00  1.50000000E+00  1.20000000E+00
  1.20000000E+00  1.50000000E+00  1.20000000E+00  1.20000000E+00  1.50000000E+00
  1.20000000E+00  1.20000000E+00  1.50000000E+00  1.20000000E+00  1.20000000E+00
  1.50000000E+00  1.20000000E+00  1.20000000E+00  1.50000000E+00  1.20000000E+00
  1.20000000E+00  1.50000000E+00  1.20000000E+00  1.20000000E+00  1.50000000E+00
  1.20000000E+00  1.20000000E+00  1.50000000E+00  1.20000000E+00  1.20000000E+00
  1.50000000E+00  1.20000000E+00  1.20000000E+00  1.50000000E+00  1.20000000E+00
  1.20000000E+00  1.50000000E+00  1.20000000E+00  1.20000000E+00  1.50000000E+00
  1.20000000E+00  1.20000000E+00  1.50000000E+00  1.20000000E+00  1.20000000E+00
  1.50000000E+00  1.20000000E+00  1.20000000E+00  1.50000000E+00  1.20000000E+00
  1.20000000E+00  1.50000000E+00  1.20000000E+00  1.20000000E+00  1.50000000E+00
  1.20000000E+00  1.20000000E+00  1.50000000E+00  1.20000000E+00  1.20000000E+00
  1.50000000E+00  1.20000000E+00  1.20000000E+00  1.50000000E+00  1.20000000E+00
  1.20000000E+00  1.50000000E+00  1.20000000E+00  1.20000000E+00  1.50000000E+00
  1.20000000E+00  1.20000000E+00  1.50000000E+00  1.20000000E+00  1.20000000E+00
  1.50000000E+00  1.20000000E+00  1.20000000E+00  1.50000000E+00  1.20000000E+00
  1.20000000E+00  1.50000000E+00  1.20000000E+00  1.20000000E+00  1.50000000E+00
  1.20000000E+00  1.20000000E+00  1.50000000E+00  1.20000000E+00  1.20000000E+00
  1.50000000E+00  1.20000000E+00  1.20000000E+00  1.50000000E+00  1.20000000E+00
  1.20000000E+00  1.50000000E+00  1.20000000E+00  1.20000000E+00  1.50000000E+00
  1.20000000E+00  1.20000000E+00  1.50000000E+00  1.20000000E+00  1.20000000E+00
  1.50000000E+00  1.20000000E+00  1.20000000E+00  1.50000000E+00  1.20000000E+00
  1.20000000E+00  1.50000000E+00  1.20000000E+00  1.20000000E+00  1.50000000E+00
  1.20000000E+00  1.20000000E+00  1.50000000E+00  1.20000000E+00  1.20000000E+00
  1.50000000E+00  1.20000000E+00  1.20000000E+00  1.50000000E+00  1.20000000E+00
  1.20000000E+00  1.50000000E+00  1.20000000E+00  1.20000000E+00  1.50000000E+00
  1.20000000E+00  1.20000000E+00  1.50000000E+00  1.20000000E+00  1.20000000E+00
  1.50000000E+00  1.20000000E+00  1.20000000E+00  1.50000000E+00  1.20000000E+00
  1.20000000E+00  1.50000000E+00  1.20000000E+00  1.20000000E+00  1.50000000E+00
  1.20000000E+00  1.20000000E+00  1.50000000E+00  1.20000000E+00  1.20000000E+00
  1.50000000E+00  1.20000000E+00  1.20000000E+00  1.50000000E+00  1.20000000E+00
  1.20000000E+00  1.50000000E+00  1.20000000E+00  1.20000000E+00  1.50000000E+00
  1.20000000E+00  1.20000000E+00  1.50000000E+00  1.20000000E+00  1.20000000E+00
  1.50000000E+00  1.20000000E+00  1.20000000E+00  1.50000000E+00  1.20000000E+00
  1.20000000E+00  1.50000000E+00  1.20000000E+00  1.20000000E+00  1.50000000E+00
  1.20000000E+00  1.20000000E+00  1.50000000E+00  1.20000000E+00  1.20000000E+00
  1.50000000E+00  1.20000000E+00  1.20000000E+00  1.50000000E+00  1.20000000E+00
  1.20000000E+00  1.50000000E+00  1.20000000E+00  1.20000000E+00  1.50000000E+00
  1.20000000E+00  1.20000000E+00  1.50000000E+00  1.20000000E+00  1.20000000E+00
  1.50000000E+00  1.20000000E+00  1.20000000E+00  1.50000000E+00  1.20000000E+00
  1.20000000E+00  1.50000000E+00  1.20000000E+00  1.20000000E+00  1.50000000E+00
  1.20000000E+00  1.20000000E+00  1.50000000E+00  1.20000000E+00  1.20000000E+00
  1.50000000E+00  1.20000000E+00  1.20000000E+00  1.50000000E+00  1.20000000E+00
  1.20000000E+00  1.50000000E+00  1.20000000E+00  1.20000000E+00  1.50000000E+00
  1.20000000E+00  1.20000000E+00  1.50000000E+00  1.20000000E+00  1.20000000E+00
  1.50000000E+00  1.20000000E+00  1.20000000E+00  1.50000000E+00  1.20000000E+00
  1.20000000E+00  1.50000000E+00  1.20000000E+00  1.20000000E+00  1.50000000E+00
  1.20000000E+00  1.20000000E+00  1.50000000E+00  1.20000000E+00  1.20000000E+00
  1.50000000E+00  1.20000000E+00  1.20000000E+00  1.50000000E+00  1.20000000E+00
  1.20000000E+00  1.50000000E+00  1.20000000E+00  1.20000000E+00  1.50000000E+00
  1.20000000E+00  1.20000000E+00  1.50000000E+00  1.20000000E+00  1.20000000E+00
  1.50000000E+00  1.20000000E+00  1.20000000E+00  1.50000000E+00  1.20000000E+00
  1.20000000E+00  1.50000000E+00  1.20000000E+00  1.20000000E+00  1.50000000E+00
  1.20000000E+00  1.20000000E+00  1.50000000E+00  1.20000000E+00  1.20000000E+00
  1.50000000E+00  1.20000000E+00  1.20000000E+00  1.50000000E+00  1.20000000E+00
  1.20000000E+00  1.50000000E+00  1.20000000E+00  1.20000000E+00  1.50000000E+00
  1.20000000E+00  1.20000000E+00  1.50000000E+00  1.20000000E+00  1.20000000E+00
  1.50000000E+00  1.20000000E+00  1.20000000E+00  1.50000000E+00  1.20000000E+00
  1.20000000E+00  1.50000000E+00  1.20000000E+00  1.20000000E+00  1.50000000E+00
  1.20000000E+00  1.20000000E+00  1.50000000E+00  1.20000000E+00  1.20000000E+00
  1.50000000E+00  1.20000000E+00  1.20000000E+00  1.50000000E+00  1.20000000E+00
  1.20000000E+00  1.50000000E+00  1.20000000E+00  1.20000000E+00  1.50000000E+00
  1.20000000E+00  1.20000000E+00  1.50000000E+00  1.20000000E+00  1.20000000E+00
  1.50000000E+00  1.20000000E+00  1.20000000E+00  1.50000000E+00  1.20000000E+00
  1.20000000E+00  1.50000000E+00  1.20000000E+00  1.20000000E+00  1.50000000E+00
  1.20000000E+00  1.20000000E+00  1.50000000E+00  1.20000000E+00  1.20000000E+00
  1.50000000E+00  1.20000000E+00  1.20000000E+00  1.50000000E+00  1.20000000E+00
  1.20000000E+00  1.50000000E+00  1.20000000E+00  1.20000000E+00  1.50000000E+00
  1.20000000E+00  1.20000000E+00  1.50000000E+00  1.20000000E+00  1.20000000E+00
  1.50000000E+00  1.20000000E+00  1.20000000E+00  1.50000000E+00  1.20000000E+00
  1.20000000E+00  1.50000000E+00  1.20000000E+00  1.20000000E+00  1.50000000E+00
  1.20000000E+00  1.20000000E+00  1.50000000E+00  1.20000000E+00  1.20000000E+00
  1.50000000E+00  1.20000000E+00  1.20000000E+00  1.50000000E+00  1.20000000E+00
  1.20000000E+00  1.50000000E+00  1.20000000E+00  1.20000000E+00  1.50000000E+00
  1.20000000E+00  1.20000000E+00  1.50000000E+00  1.20000000E+00  1.20000000E+00
  1.50000000E+00  1.20000000E+00  1.20000000E+00  1.50000000E+00  1.20000000E+00
  1.20000000E+00  1.50000000E+00  1.20000000E+00  1.20000000E+00  1.50000000E+00
  1.20000000E+00  1.20000000E+00  1.50000000E+00  1.20000000E+00  1.20000000E+00
  1.50000000E+00  1.20000000E+00  1.20000000E+00  1.50000000E+00  1.20000000E+00
  1.20000000E+00  1.50000000E+00  1.20000000E+00  1.20000000E+00  1.50000000E+00
  1.20000000E+00  1.20000000E+00  1.50000000E+00  1.20000000E+00  1.20000000E+00
  1.50000000E+00  1.20000000E+00  1.20000000E+00  1.50000000E+00  1.20000000E+00
  1.20000000E+00  1.50000000E+00  1.20000000E+00  1.20000000E+00  1.50000000E+00
  1.20000000E+00  1.20000000E+00  1.50000000E+00  1.20000000E+00  1.20000000E+00
  1.50000000E+00  1.20000000E+00  1.20000000E+00  1.50000000E+00  1.20000000E+00
  1.20000000E+00  1.50000000E+00  1.20000000E+00  1.20000000E+00  1.50000000E+00
  1.20000000E+00  1.20000000E+00  1.50000000E+00  1.20000000E+00  1.20000000E+00
  1.50000000E+00  1.20000000E+00  1.20000000E+00  1.50000000E+00  1.20000000E+00
  1.20000000E+00  1.50000000E+00  1.20000000E+00  1.20000000E+00  1.50000000E+00
  1.20000000E+00  1.20000000E+00  1.50000000E+00  1.20000000E+00  1.20000000E+00
  1.50000000E+00  1.20000000E+00  1.20000000E+00  1.50000000E+00  1.20000000E+00
  1.20000000E+00  1.50000000E+00  1.20000000E+00  1.20000000E+00  1.50000000E+00
  1.20000000E+00  1.20000000E+00  1.50000000E+00  1.20000000E+00  1.20000000E+00
  1.50000000E+00  1.20000000E+00  1.20000000E+00  1.50000000E+00  1.20000000E+00
  1.20000000E+00  1.50000000E+00  1.20000000E+00  1.20000000E+00  1.50000000E+00
  1.20000000E+00  1.20000000E+00  1.50000000E+00  1.20000000E+00  1.20000000E+00
  1.50000000E+00  1.20000000E+00  1.20000000E+00  1.50000000E+00  1.20000000E+00
  1.20000000E+00  1.50000000E+00  1.20000000E+00  1.20000000E+00  1.50000000E+00
  1.20000000E+00  1.20000000E+00  1.50000000E+00  1.20000000E+00  1.20000000E+00
  1.50000000E+00  1.20000000E+00  1.20000000E+00  1.50000000E+00  1.20000000E+00
  1.20000000E+00  1.50000000E+00  1.20000000E+00  1.20000000E+00  1.50000000E+00
  1.20000000E+00  1.20000000E+00  1.50000000E+00  1.20000000E+00  1.20000000E+00
  1.50000000E+00  1.20000000E+00  1.20000000E+00  1.50000000E+00  1.20000000E+00
  1.20000000E+00  1.50000000E+00  1.20000000E+00  1.20000000E+00  1.50000000E+00
  1.20000000E+00  1.20000000E+00  1.50000000E+00  1.20000000E+00  1.20000000E+00
  1.50000000E+00  1.20000000E+00  1.20000000E+00  1.50000000E+00  1.20000000E+00
  1.20000000E+00  1.50000000E+00  1.20000000E+00  1.20000000E+00  1.50000000E+00
  1.20000000E+00  1.20000000E+00  1.50000000E+00  1.20000000E+00  1.20000000E+00
  1.50000000E+00  1.20000000E+00  1.20000000E+00  1.50000000E+00  1.20000000E+00
  1.20000000E+00  1.50000000E+00  1.20000000E+00  1.20000000E+00  1.50000000E+00
  1.20000000E+00  1.20000000E+00  1.50000000E+00  1.20000000E+00  1.20000000E+00
  1.50000000E+00  1.20000000E+00  1.20000000E+00  1.50000000E+00  1.20000000E+00
  1.20000000E+00  1.50000000E+00  1.20000000E+00  1.20000000E+00  1.50000000E+00
  1.20000000E+00  1.20000000E+00  1.50000000E+00  1.20000000E+00  1.20000000E+00
  1.50000000E+00  1.20000000E+00  1.20000000E+00  1.50000000E+00  1.20000000E+00
  1.20000000E+00  1.50000000E+00  1.20000000E+00  1.20000000E+00  1.50000000E+00
  1.20000000E+00  1.20000000E+00  1.50000000E+00  1.20000000E+00  1.20000000E+00
  1.50000000E+00  1.20000000E+00  1.20000000E+00  1.50000000E+00  1.20000000E+00
  1.20000000E+00  1.50000000E+00  1.20000000E+00  1.20000000E+00  1.50000000E+00
  1.20000000E+00  1.20000000E+00  1.50000000E+00  1.20000000E+00  1.20000000E+00
  1.50000000E+00  1.20000000E+00  1.20000000E+00  1.50000000E+00  1.20000000E+00
  1.20000000E+00  1.50000000E+00  1.20000000E+00  1.20000000E+00  1.50000000E+00
  1.20000000E+00  1.20000000E+00  1.50000000E+00  1.20000000E+00  1.20000000E+00
  1.50000000E+00  1.20000000E+00  1.20000000E+00  1.50000000E+00  1.20000000E+00
  1.20000000E+00  1.50000000E+00  1.20000000E+00  1.20000000E+00  1.50000000E+00
  1.20000000E+00  1.20000000E+00  1.50000000E+00  1.20000000E+00  1.20000000E+00
  1.50000000E+00  1.20000000E+00  1.20000000E+00  1.50000000E+00  1.20000000E+00
  1.20000000E+00  1.50000000E+00  1.20000000E+00  1.20000000E+00  1.50000000E+00
  1.20000000E+00  1.20000000E+00  1.50000000E+00  1.20000000E+00  1.20000000E+00
  1.50000000E+00  1.20000000E+00  1.20000000E+00  1.50000000E+00  1.20000000E+00
  1.20000000E+00  1.50000000E+00  1.20000000E+00  1.20000000E+00  1.50000000E+00
  1.20000000E+00  1.20000000E+00  1.50000000E+00  1.20000000E+00  1.20000000E+00
  1.50000000E+00  1.20000000E+00  1.20000000E+00  1.50000000E+00  1.20000000E+00
  1.20000000E+00  1.50000000E+00  1.20000000E+00  1.20000000E+00  1.50000000E+00
  1.20000000E+00  1.20000000E+00  1.50000000E+00  1.20000000E+00  1.20000000E+00
  1.50000000E+00  1.20000000E+00  1.20000000E+00  1.50000000E+00  1.20000000E+00
  1.20000000E+00  1.50000000E+00  1.20000000E+00  1.20000000E+00  1.50000000E+00
  1.20000000E+00  1.20000000E+00  1.50000000E+00  1.20000000E+00  1.20000000E+00
  1.50000000E+00  1.20000000E+00  1.20000000E+00  1.50000000E+00  1.20000000E+00
  1.20000000E+00  1.50000000E+00  1.20000000E+00  1.20000000E+00  1.50000000E+00
  1.20000000E+00  1.20000000E+00  1.50000000E+00  1.20000000E+00  1.20000000E+00
  1.50000000E+00  1.20000000E+00  1.20000000E+00  1.50000000E+00  1.20000000E+00
  1.20000000E+00  1.50000000E+00  1.20000000E+00  1.20000000E+00  1.50000000E+00
  1.20000000E+00  1.20000000E+00  1.50000000E+00  1.20000000E+00  1.20000000E+00
  1.50000000E+00  1.20000000E+00  1.20000000E+00  1.50000000E+00  1.20000000E+00
  1.20000000E+00  1.50000000E+00  1.20000000E+00  1.20000000E+00  1.50000000E+00
  1.20000000E+00  1.20000000E+00  1.50000000E+00  1.20000000E+00  1.20000000E+00
  1.50000000E+00  1.20000000E+00  1.20000000E+00  1.50000000E+00  1.20000000E+00
  1.20000000E+00  1.50000000E+00  1.20000000E+00  1.20000000E+00  1.50000000E+00
  1.20000000E+00  1.20000000E+00  1.50000000E+00  1.20000000E+00  1.20000000E+00
  1.50000000E+00  1.20000000E+00  1.20000000E+00  1.50000000E+00  1.20000000E+00
  1.20000000E+00  1.50000000E+00  1.20000000E+00  1.20000000E+00  1.50000000E+00
  1.20000000E+00  1.20000000E+00  1.50000000E+00  1.20000000E+00  1.20000000E+00
  1.50000000E+00  1.20000000E+00  1.20000000E+00  1.50000000E+00  1.20000000E+00
  1.20000000E+00  1.50000000E+00  1.20000000E+00  1.20000000E+00  1.50000000E+00
  1.20000000E+00  1.20000000E+00  1.50000000E+00  1.20000000E+00  1.20000000E+00
  1.50000000E+00  1.20000000E+00  1.20000000E+00  1.50000000E+00  1.20000000E+00
  1.20000000E+00  1.50000000E+00  1.20000000E+00  1.20000000E+00  1.50000000E+00
  1.20000000E+00  1.20000000E+00  1.50000000E+00  1.20000000E+00  1.20000000E+00
  1.50000000E+00  1.20000000E+00  1.20000000E+00  1.50000000E+00  1.20000000E+00
  1.20000000E+00  1.50000000E+00  1.20000000E+00  1.20000000E+00  1.50000000E+00
  1.20000000E+00  1.20000000E+00  1.50000000E+00  1.20000000E+00  1.20000000E+00
  1.50000000E+00  1.20000000E+00  1.20000000E+00  1.50000000E+00  1.20000000E+00
  1.20000000E+00  1.50000000E+00  1.20000000E+00  1.20000000E+00  1.50000000E+00
  1.20000000E+00  1.20000000E+00  1.50000000E+00  1.20000000E+00  1.20000000E+00
  1.50000000E+00  1.20000000E+00  1.20000000E+00  1.50000000E+00  1.20000000E+00
  1.20000000E+00  1.50000000E+00  1.20000000E+00  1.20000000E+00  1.50000000E+00
  1.20000000E+00  1.20000000E+00  1.50000000E+00  1.20000000E+00  1.20000000E+00
  1.50000000E+00  1.20000000E+00  1.20000000E+00  1.50000000E+00  1.20000000E+00
  1.20000000E+00  1.50000000E+00  1.20000000E+00  1.20000000E+00  1.50000000E+00
  1.20000000E+00  1.20000000E+00  1.50000000E+00  1.20000000E+00  1.20000000E+00
  1.50000000E+00  1.20000000E+00  1.20000000E+00  1.50000000E+00  1.20000000E+00
  1.20000000E+00  1.50000000E+00  1.20000000E+00  1.20000000E+00  1.50000000E+00
  1.20000000E+00  1.20000000E+00  1.50000000E+00  1.20000000E+00  1.20000000E+00
  1.50000000E+00  1.20000000E+00  1.20000000E+00  1.50000000E+00  1.20000000E+00
  1.20000000E+00  1.50000000E+00  1.20000000E+00  1.20000000E+00  1.50000000E+00
  1.20000000E+00  1.20000000E+00  1.50000000E+00  1.20000000E+00  1.20000000E+00
  1.50000000E+00  1.20000000E+00  1.20000000E+00  1.50000000E+00  1.20000000E+00
  1.20000000E+00  1.50000000E+00  1.20000000E+00  1.20000000E+00  1.50000000E+00
  1.20000000E+00  1.20000000E+00  1.50000000E+00  1.20000000E+00  1.20000000E+00
  1.50000000E+00  1.20000000E+00  1.20000000E+00  1.50000000E+00  1.20000000E+00
  1.20000000E+00  1.50000000E+00  1.20000000E+00  1.20000000E+00  1.50000000E+00
  1.20000000E+00  1.20000000E+00  1.50000000E+00  1.20000000E+00  1.20000000E+00
  1.50000000E+00  1.20000000E+00  1.20000000E+00  1.50000000E+00  1.20000000E+00
  1.20000000E+00  1.50000000E+00  1.20000000E+00  1.20000000E+00  1.50000000E+00
  1.20000000E+00  1.20000000E+00  1.50000000E+00  1.20000000E+00  1.20000000E+00
  1.50000000E+00  1.20000000E+00  1.20000000E+00  1.50000000E+00  1.20000000E+00
  1.20000000E+00  1.50000000E+00  1.20000000E+00  1.20000000E+00  1.50000000E+00
  1.20000000E+00  1.20000000E+00  1.50000000E+00  1.20000000E+00  1.20000000E+00
  1.50000000E+00  1.20000000E+00  1.20000000E+00  1.50000000E+00  1.20000000E+00
  1.20000000E+00  1.50000000E+00  1.20000000E+00  1.20000000E+00  1.50000000E+00
  1.20000000E+00  1.20000000E+00  1.50000000E+00  1.20000000E+00  1.20000000E+00
  1.50000000E+00  1.20000000E+00  1.20000000E+00  1.50000000E+00  1.20000000E+00
  1.20000000E+00  1.50000000E+00  1.20000000E+00  1.20000000E+00  1.50000000E+00
  1.20000000E+00  1.20000000E+00  1.50000000E+00  1.20000000E+00  1.20000000E+00
  1.50000000E+00  1.20000000E+00  1.20000000E+00  1.50000000E+00  1.20000000E+00
  1.20000000E+00  1.50000000E+00  1.20000000E+00  1.20000000E+00  1.50000000E+00
  1.20000000E+00  1.20000000E+00  1.50000000E+00  1.20000000E+00  1.20000000E+00
  1.50000000E+00  1.20000000E+00  1.20000000E+00  1.50000000E+00  1.20000000E+00
  1.20000000E+00  1.50000000E+00  1.20000000E+00  1.20000000E+00  1.50000000E+00
  1.20000000E+00  1.20000000E+00  1.50000000E+00  1.20000000E+00  1.20000000E+00
  1.50000000E+00  1.20000000E+00  1.20000000E+00  1.50000000E+00  1.20000000E+00
  1.20000000E+00  1.50000000E+00  1.20000000E+00  1.20000000E+00  1.50000000E+00
  1.20000000E+00  1.20000000E+00  1.50000000E+00  1.20000000E+00  1.20000000E+00
  1.50000000E+00  1.20000000E+00  1.20000000E+00  1.50000000E+00  1.20000000E+00
  1.20000000E+00  1.50000000E+00  1.20000000E+00  1.20000000E+00  1.50000000E+00
  1.20000000E+00  1.20000000E+00  1.50000000E+00  1.20000000E+00  1.20000000E+00
  1.50000000E+00  1.20000000E+00  1.20000000E+00  1.50000000E+00  1.20000000E+00
  1.20000000E+00  1.50000000E+00  1.20000000E+00  1.20000000E+00  1.50000000E+00
  1.20000000E+00  1.20000000E+00  1.50000000E+00  1.20000000E+00  1.20000000E+00
  1.50000000E+00  1.20000000E+00  1.20000000E+00  1.50000000E+00  1.20000000E+00
  1.20000000E+00  1.50000000E+00  1.20000000E+00  1.20000000E+00  1.50000000E+00
  1.20000000E+00  1.20000000E+00  1.50000000E+00  1.20000000E+00  1.20000000E+00
  1.50000000E+00  1.20000000E+00  1.20000000E+00  1.50000000E+00  1.20000000E+00
  1.20000000E+00  1.50000000E+00  1.20000000E+00  1.20000000E+00  1.50000000E+00
  1.20000000E+00  1.20000000E+00  1.50000000E+00  1.20000000E+00  1.20000000E+00
  1.50000000E+00  1.20000000E+00  1.20000000E+00  1.50000000E+00  1.20000000E+00
  1.20000000E+00  1.50000000E+00  1.20000000E+00  1.20000000E+00  1.50000000E+00
  1.20000000E+00  1.20000000E+00  1.50000000E+00  1.20000000E+00  1.20000000E+00
  1.50000000E+00  1.20000000E+00  1.20000000E+00  1.50000000E+00  1.20000000E+00
  1.20000000E+00  1.50000000E+00  1.20000000E+00  1.20000000E+00  1.50000000E+00
  1.20000000E+00  1.20000000E+00  1.50000000E+00  1.20000000E+00  1.20000000E+00
  1.50000000E+00  1.20000000E+00  1.20000000E+00  1.50000000E+00  1.20000000E+00
  1.20000000E+00  1.50000000E+00  1.20000000E+00  1.20000000E+00  1.50000000E+00
  1.20000000E+00  1.20000000E+00  1.50000000E+00  1.20000000E+00  1.20000000E+00
  1.50000000E+00  1.20000000E+00  1.20000000E+00  1.50000000E+00  1.20000000E+00
  1.20000000E+00  1.50000000E+00  1.20000000E+00  1.20000000E+00  1.50000000E+00
  1.20000000E+00  1.20000000E+00  1.50000000E+00  1.20000000E+00  1.20000000E+00
  1.50000000E+00  1.20000000E+00  1.20000000E+00  1.50000000E+00  1.20000000E+00
  1.20000000E+00  1.50000000E+00  1.20000000E+00  1.20000000E+00  1.50000000E+00
  1.20000000E+00  1.20000000E+00  1.50000000E+00  1.20000000E+00  1.20000000E+00
  1.50000000E+00  1.20000000E+00  1.20000000E+00  1.50000000E+00  1.20000000E+00
  1.20000000E+00  1.50000000E+00  1.20000000E+00  1.20000000E+00  1.50000000E+00
  1.20000000E+00  1.20000000E+00  1.50000000E+00  1.20000000E+00  1.20000000E+00
  1.50000000E+00  1.20000000E+00  1.20000000E+00  1.50000000E+00  1.20000000E+00
  1.20000000E+00  1.50000000E+00  1.20000000E+00  1.20000000E+00  1.50000000E+00
  1.20000000E+00  1.20000000E+00  1.50000000E+00  1.20000000E+00  1.20000000E+00
  1.50000000E+00  1.20000000E+00  1.20000000E+00  1.50000000E+00  1.20000000E+00
  1.20000000E+00  1.50000000E+00  1.20000000E+00  1.20000000E+00  1.50000000E+00
  1.20000000E+00  1.20000000E+00  1.50000000E+00  1.20000000E+00  1.20000000E+00
  1.50000000E+00  1.20000000E+00  1.20000000E+00  1.50000000E+00  1.20000000E+00
  1.20000000E+00  1.50000000E+00  1.20000000E+00  1.20000000E+00  1.50000000E+00
  1.20000000E+00  1.20000000E+00  1.50000000E+00  1.20000000E+00  1.20000000E+00
  1.50000000E+00  1.20000000E+00  1.20000000E+00  1.50000000E+00  1.20000000E+00
  1.20000000E+00  1.50000000E+00  1.20000000E+00  1.20000000E+00  1.50000000E+00
  1.20000000E+00  1.20000000E+00  1.50000000E+00  1.20000000E+00  1.20000000E+00
  1.50000000E+00  1.20000000E+00  1.20000000E+00  1.50000000E+00  1.20000000E+00
  1.20000000E+00  1.50000000E+00  1.20000000E+00  1.20000000E+00  1.50000000E+00
  1.20000000E+00  1.20000000E+00  1.50000000E+00  1.20000000E+00  1.20000000E+00
  1.50000000E+00  1.20000000E+00  1.20000000E+00  1.50000000E+00  1.20000000E+00
  1.20000000E+00  1.50000000E+00  1.20000000E+00  1.20000000E+00  1.50000000E+00
  1.20000000E+00  1.20000000E+00  1.50000000E+00  1.20000000E+00  1.20000000E+00
  1.50000000E+00  1.20000000E+00  1.20000000E+00  1.50000000E+00  1.20000000E+00
  1.20000000E+00  1.50000000E+00  1.20000000E+00  1.20000000E+00  1.50000000E+00
  1.20000000E+00  1.20000000E+00  1.50000000E+00  1.20000000E+00  1.20000000E+00
  1.50000000E+00  1.20000000E+00  1.20000000E+00  1.50000000E+00  1.20000000E+00
  1.20000000E+00  1.50000000E+00  1.20000000E+00  1.20000000E+00  1.50000000E+00
  1.20000000E+00  1.20000000E+00  1.50000000E+00  1.20000000E+00  1.20000000E+00
  1.50000000E+00  1.20000000E+00  1.20000000E+00  1.50000000E+00  1.20000000E+00
  1.20000000E+00  1.50000000E+00  1.20000000E+00  1.20000000E+00  1.50000000E+00
  1.20000000E+00  1.20000000E+00  1.50000000E+00  1.20000000E+00  1.20000000E+00
  1.50000000E+00  1.20000000E+00  1.20000000E+00  1.50000000E+00  1.20000000E+00
  1.20000000E+00  1.50000000E+00  1.20000000E+00  1.20000000E+00  1.50000000E+00
  1.20000000E+00  1.20000000E+00  1.50000000E+00  1.20000000E+00  1.20000000E+00
  1.50000000E+00  1.20000000E+00  1.20000000E+00  1.50000000E+00  1.20000000E+00
  1.20000000E+00  1.50000000E+00  1.20000000E+00  1.20000000E+00  1.50000000E+00
  1.20000000E+00  1.20000000E+00  1.50000000E+00  1.20000000E+00  1.20000000E+00
  1.50000000E+00  1.20000000E+00  1.20000000E+00  1.50000000E+00  1.20000000E+00
  1.20000000E+00  1.50000000E+00  1.20000000E+00  1.20000000E+00  1.50000000E+00
  1.20000000E+00  1.20000000E+00  1.50000000E+00  1.20000000E+00  1.20000000E+00
  1.50000000E+00  1.20000000E+00  1.20000000E+00  1.50000000E+00  1.20000000E+00
  1.20000000E+00  1.50000000E+00  1.20000000E+00  1.20000000E+00  1.50000000E+00
  1.20000000E+00  1.20000000E+00  1.50000000E+00  1.20000000E+00  1.20000000E+00
  1.50000000E+00  1.20000000E+00  1.20000000E+00  1.50000000E+00  1.20000000E+00
  1.20000000E+00  1.50000000E+00  1.20000000E+00  1.20000000E+00  1.50000000E+00
  1.20000000E+00  1.20000000E+00  1.50000000E+00  1.20000000E+00  1.20000000E+00
  1.50000000E+00  1.20000000E+00  1.20000000E+00  1.50000000E+00  1.20000000E+00
  1.20000000E+00  1.50000000E+00  1.20000000E+00  1.20000000E+00  1.50000000E+00
  1.20000000E+00  1.20000000E+00  1.50000000E+00  1.20000000E+00  1.20000000E+00
  1.50000000E+00  1.20000000E+00  1.20000000E+00  1.50000000E+00  1.20000000E+00
  1.20000000E+00  1.50000000E+00  1.20000000E+00  1.20000000E+00  1.50000000E+00
  1.20000000E+00  1.20000000E+00  1.50000000E+00  1.20000000E+00  1.20000000E+00
  1.50000000E+00  1.20000000E+00  1.20000000E+00  1.50000000E+00  1.20000000E+00
  1.20000000E+00  1.50000000E+00  1.20000000E+00  1.20000000E+00  1.50000000E+00
  1.20000000E+00  1.20000000E+00  1.50000000E+00  1.20000000E+00  1.20000000E+00
  1.50000000E+00  1.20000000E+00  1.20000000E+00  1.50000000E+00  1.20000000E+00
  1.20000000E+00  1.50000000E+00  1.20000000E+00  1.20000000E+00  1.50000000E+00
  1.20000000E+00  1.20000000E+00  1.50000000E+00  1.20000000E+00  1.20000000E+00
  1.50000000E+00  1.20000000E+00  1.20000000E+00  1.50000000E+00  1.20000000E+00
  1.20000000E+00  1.50000000E+00  1.20000000E+00  1.20000000E+00  1.50000000E+00
  1.20000000E+00  1.20000000E+00  1.50000000E+00  1.20000000E+00  1.20000000E+00
  1.50000000E+00  1.20000000E+00  1.20000000E+00  1.50000000E+00  1.20000000E+00
  1.20000000E+00  1.50000000E+00  1.20000000E+00  1.20000000E+00  1.50000000E+00
  1.20000000E+00  1.20000000E+00  1.50000000E+00  1.20000000E+00  1.20000000E+00
  1.50000000E+00  1.20000000E+00  1.20000000E+00  1.50000000E+00  1.20000000E+00
  1.20000000E+00  1.50000000E+00  1.20000000E+00  1.20000000E+00  1.50000000E+00
  1.20000000E+00  1.20000000E+00  1.50000000E+00  1.20000000E+00  1.20000000E+00
  1.50000000E+00  1.20000000E+00  1.20000000E+00  1.50000000E+00  1.20000000E+00
  1.20000000E+00  1.50000000E+00  1.20000000E+00  1.20000000E+00  1.50000000E+00
  1.20000000E+00  1.20000000E+00  1.50000000E+00  1.20000000E+00  1.20000000E+00
  1.50000000E+00  1.20000000E+00  1.20000000E+00  1.50000000E+00  1.20000000E+00
  1.20000000E+00  1.50000000E+00  1.20000000E+00  1.20000000E+00  1.50000000E+00
  1.20000000E+00  1.20000000E+00  1.50000000E+00  1.20000000E+00  1.20000000E+00
  1.50000000E+00  1.20000000E+00  1.20000000E+00  1.50000000E+00  1.20000000E+00
  1.20000000E+00  1.50000000E+00  1.20000000E+00  1.20000000E+00  1.50000000E+00
  1.20000000E+00  1.20000000E+00  1.50000000E+00  1.20000000E+00  1.20000000E+00
  1.50000000E+00  1.20000000E+00  1.20000000E+00  1.50000000E+00  1.20000000E+00
  1.20000000E+00  1.50000000E+00  1.20000000E+00  1.20000000E+00  1.50000000E+00
  1.20000000E+00  1.20000000E+00  1.50000000E+00  1.20000000E+00  1.20000000E+00
  1.50000000E+00  1.20000000E+00  1.20000000E+00  1.50000000E+00  1.20000000E+00
  1.20000000E+00  1.50000000E+00  1.20000000E+00  1.20000000E+00  1.50000000E+00
  1.20000000E+00  1.20000000E+00  1.50000000E+00  1.20000000E+00  1.20000000E+00
  1.50000000E+00  1.20000000E+00  1.20000000E+00  1.50000000E+00  1.20000000E+00
  1.20000000E+00  1.50000000E+00  1.20000000E+00  1.20000000E+00  1.50000000E+00
  1.20000000E+00  1.20000000E+00  1.50000000E+00  1.20000000E+00  1.20000000E+00
  1.50000000E+00  1.20000000E+00  1.20000000E+00  1.50000000E+00  1.20000000E+00
  1.20000000E+00  1.50000000E+00  1.20000000E+00  1.20000000E+00  1.50000000E+00
  1.20000000E+00  1.20000000E+00  1.50000000E+00  1.20000000E+00  1.20000000E+00
  1.50000000E+00  1.20000000E+00  1.20000000E+00  1.50000000E+00  1.20000000E+00
  1.20000000E+00  1.50000000E+00  1.20000000E+00  1.20000000E+00  1.50000000E+00
  1.20000000E+00  1.20000000E+00  1.50000000E+00  1.20000000E+00  1.20000000E+00
  1.50000000E+00  1.20000000E+00  1.20000000E+00  1.50000000E+00  1.20000000E+00
  1.20000000E+00  1.50000000E+00  1.20000000E+00  1.20000000E+00  1.50000000E+00
  1.20000000E+00  1.20000000E+00  1.50000000E+00  1.20000000E+00  1.20000000E+00
  1.50000000E+00  1.20000000E+00  1.20000000E+00  1.50000000E+00  1.20000000E+00
  1.20000000E+00  1.50000000E+00  1.20000000E+00  1.20000000E+00  1.50000000E+00
  1.20000000E+00  1.20000000E+00  1.50000000E+00  1.20000000E+00  1.20000000E+00
  1.50000000E+00  1.20000000E+00  1.20000000E+00  1.50000000E+00  1.20000000E+00
  1.20000000E+00  1.50000000E+00  1.20000000E+00  1.20000000E+00  1.50000000E+00
  1.20000000E+00  1.20000000E+00  1.50000000E+00  1.20000000E+00  1.20000000E+00
  1.50000000E+00  1.20000000E+00  1.20000000E+00  1.50000000E+00  1.20000000E+00
  1.20000000E+00  1.50000000E+00  1.20000000E+00  1.20000000E+00  1.50000000E+00
  1.20000000E+00  1.20000000E+00  1.50000000E+00  1.20000000E+00  1.20000000E+00
  1.50000000E+00  1.20000000E+00  1.20000000E+00  1.50000000E+00  1.20000000E+00
  1.20000000E+00  1.50000000E+00  1.20000000E+00  1.20000000E+00  1.50000000E+00
  1.20000000E+00  1.20000000E+00  1.50000000E+00  1.20000000E+00  1.20000000E+00
  1.50000000E+00  1.20000000E+00  1.20000000E+00  1.50000000E+00  1.20000000E+00
  1.20000000E+00  1.50000000E+00  1.20000000E+00  1.20000000E+00  1.50000000E+00
  1.20000000E+00  1.20000000E+00  1.50000000E+00  1.20000000E+00  1.20000000E+00
  1.50000000E+00  1.20000000E+00  1.20000000E+00  1.50000000E+00  1.20000000E+00
  1.20000000E+00  1.50000000E+00  1.20000000E+00  1.20000000E+00  1.50000000E+00
  1.20000000E+00  1.20000000E+00  1.50000000E+00  1.20000000E+00  1.20000000E+00
  1.50000000E+00  1.20000000E+00  1.20000000E+00  1.50000000E+00  1.20000000E+00
  1.20000000E+00  1.50000000E+00  1.20000000E+00  1.20000000E+00  1.50000000E+00
  1.20000000E+00  1.20000000E+00  1.50000000E+00  1.20000000E+00  1.20000000E+00
  1.50000000E+00  1.20000000E+00  1.20000000E+00  1.50000000E+00  1.20000000E+00
  1.20000000E+00  1.50000000E+00  1.20000000E+00  1.20000000E+00  1.50000000E+00
  1.20000000E+00  1.20000000E+00  1.50000000E+00  1.20000000E+00  1.20000000E+00
  1.50000000E+00  1.20000000E+00  1.20000000E+00  1.50000000E+00  1.20000000E+00
  1.20000000E+00  1.50000000E+00  1.20000000E+00  1.20000000E+00  1.50000000E+00
  1.20000000E+00  1.20000000E+00  1.50000000E+00  1.20000000E+00  1.20000000E+00
  1.50000000E+00  1.20000000E+00  1.20000000E+00  1.50000000E+00  1.20000000E+00
  1.20000000E+00  1.50000000E+00  1.20000000E+00  1.20000000E+00  1.50000000E+00
  1.20000000E+00  1.20000000E+00  1.50000000E+00  1.20000000E+00  1.20000000E+00
  1.50000000E+00  1.20000000E+00  1.20000000E+00  1.50000000E+00  1.20000000E+00
  1.20000000E+00  1.50000000E+00  1.20000000E+00  1.20000000E+00  1.50000000E+00
  1.20000000E+00  1.20000000E+00  1.50000000E+00  1.20000000E+00  1.20000000E+00
  1.50000000E+00  1.20000000E+00  1.20000000E+00  1.50000000E+00  1.20000000E+00
  1.20000000E+00  1.50000000E+00  1.20000000E+00  1.20000000E+00  1.50000000E+00
  1.20000000E+00  1.20000000E+00  1.50000000E+00  1.20000000E+00  1.20000000E+00
  1.50000000E+00  1.20000000E+00  1.20000000E+00  1.50000000E+00  1.20000000E+00
  1.20000000E+00  1.50000000E+00  1.20000000E+00  1.20000000E+00  1.50000000E+00
  1.20000000E+00  1.20000000E+00  1.50000000E+00  1.20000000E+00  1.20000000E+00
  1.50000000E+00  1.20000000E+00  1.20000000E+00  1.50000000E+00  1.20000000E+00
  1.20000000E+00  1.50000000E+00  1.20000000E+00  1.20000000E+00  1.50000000E+00
  1.20000000E+00  1.20000000E+00  1.50000000E+00  1.20000000E+00  1.20000000E+00
  1.50000000E+00  1.20000000E+00  1.20000000E+00  1.50000000E+00  1.20000000E+00
  1.20000000E+00  1.50000000E+00  1.20000000E+00  1.20000000E+00  1.50000000E+00
  1.20000000E+00  1.20000000E+00  1.50000000E+00  1.20000000E+00  1.20000000E+00
  1.50000000E+00  1.20000000E+00  1.20000000E+00  1.50000000E+00  1.20000000E+00
  1.20000000E+00  1.50000000E+00  1.20000000E+00  1.20000000E+00  1.50000000E+00
  1.20000000E+00  1.20000000E+00  1.50000000E+00  1.20000000E+00  1.20000000E+00
  1.50000000E+00  1.20000000E+00  1.20000000E+00  1.50000000E+00  1.20000000E+00
  1.20000000E+00  1.50000000E+00  1.20000000E+00  1.20000000E+00  1.50000000E+00
  1.20000000E+00  1.20000000E+00  1.50000000E+00  1.20000000E+00  1.20000000E+00
  1.50000000E+00  1.20000000E+00  1.20000000E+00  1.50000000E+00  1.20000000E+00
  1.20000000E+00  1.50000000E+00  1.20000000E+00  1.20000000E+00  1.50000000E+00
  1.20000000E+00  1.20000000E+00  1.50000000E+00  1.20000000E+00  1.20000000E+00
  1.50000000E+00  1.20000000E+00  1.20000000E+00  1.50000000E+00  1.20000000E+00
  1.20000000E+00  1.50000000E+00  1.20000000E+00  1.20000000E+00  1.50000000E+00
  1.20000000E+00  1.20000000E+00  1.50000000E+00  1.20000000E+00  1.20000000E+00
  1.50000000E+00  1.20000000E+00  1.20000000E+00  1.50000000E+00  1.20000000E+00
  1.20000000E+00  1.50000000E+00  1.20000000E+00  1.20000000E+00  1.50000000E+00
  1.20000000E+00  1.20000000E+00  1.50000000E+00  1.20000000E+00  1.20000000E+00
  1.50000000E+00  1.20000000E+00  1.20000000E+00  1.50000000E+00  1.20000000E+00
  1.20000000E+00  1.50000000E+00  1.20000000E+00  1.20000000E+00  1.50000000E+00
  1.20000000E+00  1.20000000E+00  1.50000000E+00  1.20000000E+00  1.20000000E+00
  1.50000000E+00  1.20000000E+00  1.20000000E+00  1.50000000E+00  1.20000000E+00
  1.20000000E+00  1.50000000E+00  1.20000000E+00  1.20000000E+00  1.50000000E+00
  1.20000000E+00  1.20000000E+00  1.50000000E+00  1.20000000E+00  1.20000000E+00
  1.50000000E+00  1.20000000E+00  1.20000000E+00  1.50000000E+00  1.20000000E+00
  1.20000000E+00  1.50000000E+00  1.20000000E+00  1.20000000E+00  1.50000000E+00
  1.20000000E+00  1.20000000E+00  1.50000000E+00  1.20000000E+00  1.20000000E+00
  1.50000000E+00  1.20000000E+00  1.20000000E+00  1.50000000E+00  1.20000000E+00
  1.20000000E+00  1.50000000E+00  1.20000000E+00  1.20000000E+00  1.50000000E+00
  1.20000000E+00  1.20000000E+00  1.50000000E+00  1.20000000E+00  1.20000000E+00
  1.50000000E+00  1.20000000E+00  1.20000000E+00  1.50000000E+00  1.20000000E+00
  1.20000000E+00  1.50000000E+00  1.20000000E+00  1.20000000E+00  1.50000000E+00
  1.20000000E+00  1.20000000E+00  1.50000000E+00  1.20000000E+00  1.20000000E+00
  1.50000000E+00  1.20000000E+00  1.20000000E+00  1.50000000E+00  1.20000000E+00
  1.20000000E+00  1.50000000E+00  1.20000000E+00  1.20000000E+00  1.50000000E+00
  1.20000000E+00  1.20000000E+00  1.50000000E+00  1.20000000E+00  1.20000000E+00
  1.50000000E+00  1.20000000E+00  1.20000000E+00  1.50000000E+00  1.20000000E+00
  1.20000000E+00  1.50000000E+00  1.20000000E+00  1.20000000E+00  1.50000000E+00
  1.20000000E+00  1.20000000E+00  1.50000000E+00  1.20000000E+00  1.20000000E+00
  1.50000000E+00  1.20000000E+00  1.20000000E+00  1.50000000E+00  1.20000000E+00
  1.20000000E+00  1.50000000E+00  1.20000000E+00  1.20000000E+00  1.50000000E+00
  1.20000000E+00  1.20000000E+00  1.50000000E+00  1.20000000E+00  1.20000000E+00
  1.50000000E+00  1.20000000E+00  1.20000000E+00  1.50000000E+00  1.20000000E+00
  1.20000000E+00  1.50000000E+00  1.20000000E+00  1.20000000E+00  1.50000000E+00
  1.20000000E+00  1.20000000E+00  1.50000000E+00  1.20000000E+00  1.20000000E+00
  1.50000000E+00  1.20000000E+00  1.20000000E+00  1.50000000E+00  1.20000000E+00
  1.20000000E+00  1.50000000E+00  1.20000000E+00  1.20000000E+00  1.50000000E+00
  1.20000000E+00  1.20000000E+00  1.50000000E+00  1.20000000E+00  1.20000000E+00
  1.50000000E+00  1.20000000E+00  1.20000000E+00  1.50000000E+00  1.20000000E+00
  1.20000000E+00  1.50000000E+00  1.20000000E+00  1.20000000E+00  1.50000000E+00
  1.20000000E+00  1.20000000E+00  1.50000000E+00  1.20000000E+00  1.20000000E+00
  1.50000000E+00  1.20000000E+00  1.20000000E+00  1.50000000E+00  1.20000000E+00
  1.20000000E+00  1.50000000E+00  1.20000000E+00  1.20000000E+00  1.50000000E+00
  1.20000000E+00  1.20000000E+00  1.50000000E+00  1.20000000E+00  1.20000000E+00
  1.50000000E+00  1.20000000E+00  1.20000000E+00  1.50000000E+00  1.20000000E+00
  1.20000000E+00  1.50000000E+00  1.20000000E+00  1.20000000E+00  1.50000000E+00
  1.20000000E+00  1.20000000E+00  1.50000000E+00  1.20000000E+00  1.20000000E+00
  1.50000000E+00  1.20000000E+00  1.20000000E+00  1.50000000E+00  1.20000000E+00
  1.20000000E+00  1.50000000E+00  1.20000000E+00  1.20000000E+00  1.50000000E+00
  1.20000000E+00  1.20000000E+00  1.50000000E+00  1.20000000E+00  1.20000000E+00
  1.50000000E+00  1.20000000E+00  1.20000000E+00  1.50000000E+00  1.20000000E+00
  1.20000000E+00  1.50000000E+00  1.20000000E+00  1.20000000E+00  1.50000000E+00
  1.20000000E+00  1.20000000E+00  1.50000000E+00  1.20000000E+00  1.20000000E+00
  1.50000000E+00  1.20000000E+00  1.20000000E+00  1.50000000E+00  1.20000000E+00
  1.20000000E+00  1.50000000E+00  1.20000000E+00  1.20000000E+00  1.50000000E+00
  1.20000000E+00  1.20000000E+00  1.50000000E+00  1.20000000E+00  1.20000000E+00
  1.50000000E+00  1.20000000E+00  1.20000000E+00  1.50000000E+00  1.20000000E+00
  1.20000000E+00  1.50000000E+00  1.20000000E+00  1.20000000E+00  1.50000000E+00
  1.20000000E+00  1.20000000E+00  1.50000000E+00  1.20000000E+00  1.20000000E+00
  1.50000000E+00  1.20000000E+00  1.20000000E+00  1.50000000E+00  1.20000000E+00
  1.20000000E+00  1.50000000E+00  1.20000000E+00  1.20000000E+00  1.50000000E+00
  1.20000000E+00  1.20000000E+00  1.50000000E+00  1.20000000E+00  1.20000000E+00
  1.50000000E+00  1.20000000E+00  1.20000000E+00  1.50000000E+00  1.20000000E+00
  1.20000000E+00  1.50000000E+00  1.20000000E+00  1.20000000E+00  1.50000000E+00
  1.20000000E+00  1.20000000E+00  1.50000000E+00  1.20000000E+00  1.20000000E+00
  1.50000000E+00  1.20000000E+00  1.20000000E+00  1.50000000E+00  1.20000000E+00
  1.20000000E+00  1.50000000E+00  1.20000000E+00  1.20000000E+00  1.50000000E+00
  1.20000000E+00  1.20000000E+00  1.50000000E+00  1.20000000E+00  1.20000000E+00
  1.50000000E+00  1.20000000E+00  1.20000000E+00  1.50000000E+00  1.20000000E+00
  1.20000000E+00  1.50000000E+00  1.20000000E+00  1.20000000E+00  1.50000000E+00
  1.20000000E+00  1.20000000E+00  1.50000000E+00  1.20000000E+00  1.20000000E+00
  1.50000000E+00  1.20000000E+00  1.20000000E+00  1.50000000E+00  1.20000000E+00
  1.20000000E+00  1.50000000E+00  1.20000000E+00  1.20000000E+00  1.50000000E+00
  1.20000000E+00  1.20000000E+00  1.50000000E+00  1.20000000E+00  1.20000000E+00
  1.50000000E+00  1.20000000E+00  1.20000000E+00  1.50000000E+00  1.20000000E+00
  1.20000000E+00  1.50000000E+00  1.20000000E+00  1.20000000E+00  1.50000000E+00
  1.20000000E+00  1.20000000E+00  1.50000000E+00  1.20000000E+00  1.20000000E+00
  1.50000000E+00  1.20000000E+00  1.20000000E+00  1.50000000E+00  1.20000000E+00
  1.20000000E+00  1.50000000E+00  1.20000000E+00  1.20000000E+00  1.50000000E+00
  1.20000000E+00  1.20000000E+00  1.50000000E+00  1.20000000E+00  1.20000000E+00
  1.50000000E+00  1.20000000E+00  1.20000000E+00  1.50000000E+00  1.20000000E+00
  1.20000000E+00  1.50000000E+00  1.20000000E+00  1.20000000E+00  1.50000000E+00
  1.20000000E+00  1.20000000E+00  1.50000000E+00  1.20000000E+00  1.20000000E+00
  1.50000000E+00  1.20000000E+00  1.20000000E+00  1.50000000E+00  1.20000000E+00
  1.20000000E+00  1.50000000E+00  1.20000000E+00  1.20000000E+00  1.50000000E+00
  1.20000000E+00  1.20000000E+00  1.50000000E+00  1.20000000E+00  1.20000000E+00
  1.50000000E+00  1.20000000E+00  1.20000000E+00  1.50000000E+00  1.20000000E+00
  1.20000000E+00  1.50000000E+00  1.20000000E+00  1.20000000E+00  1.50000000E+00
  1.20000000E+00  1.20000000E+00  1.50000000E+00  1.20000000E+00  1.20000000E+00
  1.50000000E+00  1.20000000E+00  1.20000000E+00  1.50000000E+00  1.20000000E+00
  1.20000000E+00  1.50000000E+00  1.20000000E+00  1.20000000E+00  1.50000000E+00
  1.20000000E+00  1.20000000E+00  1.50000000E+00  1.20000000E+00  1.20000000E+00
  1.50000000E+00  1.20000000E+00  1.20000000E+00  1.50000000E+00  1.20000000E+00
  1.20000000E+00  1.50000000E+00  1.20000000E+00  1.20000000E+00  1.50000000E+00
  1.20000000E+00  1.20000000E+00  1.50000000E+00  1.20000000E+00  1.20000000E+00
  1.50000000E+00  1.20000000E+00  1.20000000E+00  1.50000000E+00  1.20000000E+00
  1.20000000E+00  1.50000000E+00  1.20000000E+00  1.20000000E+00  1.50000000E+00
  1.20000000E+00  1.20000000E+00  1.50000000E+00  1.20000000E+00  1.20000000E+00
  1.50000000E+00  1.20000000E+00  1.20000000E+00  1.50000000E+00  1.20000000E+00
  1.20000000E+00  1.50000000E+00  1.20000000E+00  1.20000000E+00  1.50000000E+00
  1.20000000E+00  1.20000000E+00  1.50000000E+00  1.20000000E+00  1.20000000E+00
  1.50000000E+00  1.20000000E+00  1.20000000E+00  1.50000000E+00  1.20000000E+00
  1.20000000E+00  1.50000000E+00  1.20000000E+00  1.20000000E+00  1.50000000E+00
  1.20000000E+00  1.20000000E+00  1.50000000E+00  1.20000000E+00  1.20000000E+00
  1.50000000E+00  1.20000000E+00  1.20000000E+00  1.50000000E+00  1.20000000E+00
  1.20000000E+00  1.50000000E+00  1.20000000E+00  1.20000000E+00  1.50000000E+00
  1.20000000E+00  1.20000000E+00  1.50000000E+00  1.20000000E+00  1.20000000E+00
  1.50000000E+00  1.20000000E+00  1.20000000E+00  1.50000000E+00  1.20000000E+00
  1.20000000E+00  1.50000000E+00  1.20000000E+00  1.20000000E+00  1.50000000E+00
  1.20000000E+00  1.20000000E+00  1.50000000E+00  1.20000000E+00  1.20000000E+00
  1.50000000E+00  1.20000000E+00  1.20000000E+00  1.50000000E+00  1.20000000E+00
  1.20000000E+00  1.50000000E+00  1.20000000E+00  1.20000000E+00  1.50000000E+00
  1.20000000E+00  1.20000000E+00  1.50000000E+00  1.20000000E+00  1.20000000E+00
  1.50000000E+00  1.20000000E+00  1.20000000E+00  1.50000000E+00  1.20000000E+00
  1.20000000E+00  1.50000000E+00  1.20000000E+00  1.20000000E+00  1.50000000E+00
  1.20000000E+00  1.20000000E+00  1.50000000E+00  1.20000000E+00  1.20000000E+00
  1.50000000E+00  1.20000000E+00  1.20000000E+00  1.50000000E+00  1.20000000E+00
  1.20000000E+00  1.50000000E+00  1.20000000E+00  1.20000000E+00  1.50000000E+00
  1.20000000E+00  1.20000000E+00  1.50000000E+00  1.20000000E+00  1.20000000E+00
  1.50000000E+00  1.20000000E+00  1.20000000E+00  1.50000000E+00  1.20000000E+00
  1.20000000E+00  1.50000000E+00  1.20000000E+00  1.20000000E+00  1.50000000E+00
  1.20000000E+00  1.20000000E+00  1.50000000E+00  1.20000000E+00  1.20000000E+00
  1.50000000E+00  1.20000000E+00  1.20000000E+00  1.50000000E+00  1.20000000E+00
  1.20000000E+00  1.50000000E+00  1.20000000E+00  1.20000000E+00  1.50000000E+00
  1.20000000E+00  1.20000000E+00  1.50000000E+00  1.20000000E+00  1.20000000E+00
  1.50000000E+00  1.20000000E+00  1.20000000E+00  1.50000000E+00  1.20000000E+00
  1.20000000E+00  1.50000000E+00  1.20000000E+00  1.20000000E+00  1.50000000E+00
  1.20000000E+00  1.20000000E+00  1.50000000E+00  1.20000000E+00  1.20000000E+00
  1.50000000E+00  1.20000000E+00  1.20000000E+00  1.50000000E+00  1.20000000E+00
  1.20000000E+00  1.50000000E+00  1.20000000E+00  1.20000000E+00  1.50000000E+00
  1.20000000E+00  1.20000000E+00  1.50000000E+00  1.20000000E+00  1.20000000E+00
  1.50000000E+00  1.20000000E+00  1.20000000E+00  1.50000000E+00  1.20000000E+00
  1.20000000E+00  1.50000000E+00  1.20000000E+00  1.20000000E+00  1.50000000E+00
  1.20000000E+00  1.20000000E+00  1.50000000E+00  1.20000000E+00  1.20000000E+00
  1.50000000E+00  1.20000000E+00  1.20000000E+00  1.50000000E+00  1.20000000E+00
  1.20000000E+00  1.50000000E+00  1.20000000E+00  1.20000000E+00  1.50000000E+00
  1.20000000E+00  1.20000000E+00  1.50000000E+00  1.20000000E+00  1.20000000E+00
  1.50000000E+00  1.20000000E+00  1.20000000E+00  1.50000000E+00  1.20000000E+00
  1.20000000E+00  1.50000000E+00  1.20000000E+00  1.20000000E+00  1.50000000E+00
  1.20000000E+00  1.20000000E+00  1.50000000E+00  1.20000000E+00  1.20000000E+00
  1.50000000E+00  1.20000000E+00  1.20000000E+00  1.50000000E+00  1.20000000E+00
  1.20000000E+00  1.50000000E+00  1.20000000E+00  1.20000000E+00  1.50000000E+00
  1.20000000E+00  1.20000000E+00  1.50000000E+00  1.20000000E+00  1.20000000E+00
  1.50000000E+00  1.20000000E+00  1.20000000E+00  1.50000000E+00  1.20000000E+00
  1.20000000E+00  1.50000000E+00  1.20000000E+00  1.20000000E+00  1.50000000E+00
  1.20000000E+00  1.20000000E+00  1.50000000E+00  1.20000000E+00  1.20000000E+00
  1.50000000E+00  1.20000000E+00  1.20000000E+00  1.50000000E+00  1.20000000E+00
  1.20000000E+00  1.50000000E+00  1.20000000E+00  1.20000000E+00  1.50000000E+00
  1.20000000E+00  1.20000000E+00  1.50000000E+00  1.20000000E+00  1.20000000E+00
  1.50000000E+00  1.20000000E+00  1.20000000E+00  1.50000000E+00  1.20000000E+00
  1.20000000E+00  1.50000000E+00  1.20000000E+00  1.20000000E+00  1.50000000E+00
  1.20000000E+00  1.20000000E+00  1.50000000E+00  1.20000000E+00  1.20000000E+00
  1.50000000E+00  1.20000000E+00  1.20000000E+00  1.50000000E+00  1.20000000E+00
  1.20000000E+00  1.50000000E+00  1.20000000E+00  1.20000000E+00  1.50000000E+00
  1.20000000E+00  1.20000000E+00  1.50000000E+00  1.20000000E+00  1.20000000E+00
  1.50000000E+00  1.20000000E+00  1.20000000E+00  1.50000000E+00  1.20000000E+00
  1.20000000E+00  1.50000000E+00  1.20000000E+00  1.20000000E+00  1.50000000E+00
  1.20000000E+00  1.20000000E+00  1.50000000E+00  1.20000000E+00  1.20000000E+00
  1.50000000E+00  1.20000000E+00  1.20000000E+00  1.50000000E+00  1.20000000E+00
  1.20000000E+00  1.50000000E+00  1.20000000E+00  1.20000000E+00  1.50000000E+00
  1.20000000E+00  1.20000000E+00  1.50000000E+00  1.20000000E+00  1.20000000E+00
  1.50000000E+00  1.20000000E+00  1.20000000E+00  1.50000000E+00  1.20000000E+00
  1.20000000E+00  1.50000000E+00  1.20000000E+00  1.20000000E+00  1.50000000E+00
  1.20000000E+00  1.20000000E+00  1.50000000E+00  1.20000000E+00  1.20000000E+00
  1.50000000E+00  1.20000000E+00  1.20000000E+00  1.50000000E+00  1.20000000E+00
  1.20000000E+00  1.50000000E+00  1.20000000E+00  1.20000000E+00  1.50000000E+00
  1.20000000E+00  1.20000000E+00  1.50000000E+00  1.20000000E+00  1.20000000E+00
  1.50000000E+00  1.20000000E+00  1.20000000E+00  1.50000000E+00  1.20000000E+00
  1.20000000E+00  1.50000000E+00  1.20000000E+00  1.20000000E+00  1.50000000E+00
  1.20000000E+00  1.20000000E+00  1.50000000E+00  1.20000000E+00  1.20000000E+00
  1.50000000E+00  1.20000000E+00  1.20000000E+00  1.50000000E+00  1.20000000E+00
  1.20000000E+00  1.50000000E+00  1.20000000E+00  1.20000000E+00  1.50000000E+00
  1.20000000E+00  1.20000000E+00  1.50000000E+00  1.20000000E+00  1.20000000E+00
  1.50000000E+00  1.20000000E+00  1.20000000E+00  1.50000000E+00  1.20000000E+00
  1.20000000E+00  1.50000000E+00  1.20000000E+00  1.20000000E+00  1.50000000E+00
  1.20000000E+00  1.20000000E+00  1.50000000E+00  1.20000000E+00  1.20000000E+00
  1.50000000E+00  1.20000000E+00  1.20000000E+00  1.50000000E+00  1.20000000E+00
  1.20000000E+00  1.50000000E+00  1.20000000E+00  1.20000000E+00  1.50000000E+00
  1.20000000E+00  1.20000000E+00  1.50000000E+00  1.20000000E+00  1.20000000E+00
  1.50000000E+00  1.20000000E+00  1.20000000E+00  1.50000000E+00  1.20000000E+00
  1.20000000E+00  1.50000000E+00  1.20000000E+00  1.20000000E+00  1.50000000E+00
  1.20000000E+00  1.20000000E+00  1.50000000E+00  1.20000000E+00  1.20000000E+00
  1.50000000E+00  1.20000000E+00  1.20000000E+00  1.50000000E+00  1.20000000E+00
  1.20000000E+00  1.50000000E+00  1.20000000E+00  1.20000000E+00  1.50000000E+00
  1.20000000E+00  1.20000000E+00  1.50000000E+00  1.20000000E+00  1.20000000E+00
  1.50000000E+00  1.20000000E+00  1.20000000E+00  1.50000000E+00  1.20000000E+00
  1.20000000E+00  1.50000000E+00  1.20000000E+00  1.20000000E+00  1.50000000E+00
  1.20000000E+00  1.20000000E+00  1.50000000E+00  1.20000000E+00  1.20000000E+00
  1.50000000E+00  1.20000000E+00  1.20000000E+00  1.50000000E+00  1.20000000E+00
  1.20000000E+00  1.50000000E+00  1.20000000E+00  1.20000000E+00  1.50000000E+00
  1.20000000E+00  1.20000000E+00  1.50000000E+00  1.20000000E+00  1.20000000E+00
  1.50000000E+00  1.20000000E+00  1.20000000E+00  1.50000000E+00  1.20000000E+00
  1.20000000E+00  1.50000000E+00  1.20000000E+00  1.20000000E+00  1.50000000E+00
  1.20000000E+00  1.20000000E+00  1.50000000E+00  1.20000000E+00  1.20000000E+00
  1.50000000E+00  1.20000000E+00  1.20000000E+00  1.50000000E+00  1.20000000E+00
  1.20000000E+00  1.50000000E+00  1.20000000E+00  1.20000000E+00  1.50000000E+00
  1.20000000E+00  1.20000000E+00  1.50000000E+00  1.20000000E+00  1.20000000E+00
  1.50000000E+00  1.20000000E+00  1.20000000E+00  1.50000000E+00  1.20000000E+00
  1.20000000E+00  1.50000000E+00  1.20000000E+00  1.20000000E+00  1.50000000E+00
  1.20000000E+00  1.20000000E+00  1.50000000E+00  1.20000000E+00  1.20000000E+00
  1.50000000E+00  1.20000000E+00  1.20000000E+00  1.50000000E+00  1.20000000E+00
  1.20000000E+00  1.50000000E+00  1.20000000E+00  1.20000000E+00  1.50000000E+00
  1.20000000E+00  1.20000000E+00  1.50000000E+00  1.20000000E+00  1.20000000E+00
  1.50000000E+00  1.20000000E+00  1.20000000E+00  1.50000000E+00  1.20000000E+00
  1.20000000E+00  1.50000000E+00  1.20000000E+00  1.20000000E+00  1.50000000E+00
  1.20000000E+00  1.20000000E+00  1.50000000E+00  1.20000000E+00  1.20000000E+00
  1.50000000E+00  1.20000000E+00  1.20000000E+00  1.50000000E+00  1.20000000E+00
  1.20000000E+00  1.50000000E+00  1.20000000E+00  1.20000000E+00  1.50000000E+00
  1.20000000E+00  1.20000000E+00  1.50000000E+00  1.20000000E+00  1.20000000E+00
  1.50000000E+00  1.20000000E+00  1.20000000E+00  1.50000000E+00  1.20000000E+00
  1.20000000E+00  1.50000000E+00  1.20000000E+00  1.20000000E+00  1.50000000E+00
  1.20000000E+00  1.20000000E+00  1.50000000E+00  1.20000000E+00  1.20000000E+00
  1.50000000E+00  1.20000000E+00  1.20000000E+00  1.50000000E+00  1.20000000E+00
  1.20000000E+00  1.50000000E+00  1.20000000E+00  1.20000000E+00  1.50000000E+00
  1.20000000E+00  1.20000000E+00  1.50000000E+00  1.20000000E+00  1.20000000E+00
  1.50000000E+00  1.20000000E+00  1.20000000E+00  1.50000000E+00  1.20000000E+00
  1.20000000E+00  1.50000000E+00  1.20000000E+00  1.20000000E+00  1.50000000E+00
  1.20000000E+00  1.20000000E+00  1.50000000E+00  1.20000000E+00  1.20000000E+00
  1.50000000E+00  1.20000000E+00  1.20000000E+00  1.50000000E+00  1.20000000E+00
  1.20000000E+00  1.50000000E+00  1.20000000E+00  1.20000000E+00  1.50000000E+00
  1.20000000E+00  1.20000000E+00  1.50000000E+00  1.20000000E+00  1.20000000E+00
  1.50000000E+00  1.20000000E+00  1.20000000E+00  1.50000000E+00  1.20000000E+00
  1.20000000E+00  1.50000000E+00  1.20000000E+00  1.20000000E+00  1.50000000E+00
  1.20000000E+00  1.20000000E+00  1.50000000E+00  1.20000000E+00  1.20000000E+00
  1.50000000E+00  1.20000000E+00  1.20000000E+00  1.50000000E+00  1.20000000E+00
  1.20000000E+00  1.50000000E+00  1.20000000E+00  1.20000000E+00  1.50000000E+00
  1.20000000E+00  1.20000000E+00  1.50000000E+00  1.20000000E+00  1.20000000E+00
  1.50000000E+00  1.20000000E+00  1.20000000E+00  1.50000000E+00  1.20000000E+00
  1.20000000E+00  1.50000000E+00  1.20000000E+00  1.20000000E+00  1.50000000E+00
  1.20000000E+00  1.20000000E+00  1.50000000E+00  1.20000000E+00  1.20000000E+00
  1.50000000E+00  1.20000000E+00  1.20000000E+00  1.50000000E+00  1.20000000E+00
  1.20000000E+00  1.50000000E+00  1.20000000E+00  1.20000000E+00  1.50000000E+00
  1.20000000E+00  1.20000000E+00  1.50000000E+00  1.20000000E+00  1.20000000E+00
  1.50000000E+00  1.20000000E+00  1.20000000E+00  1.50000000E+00  1.20000000E+00
  1.20000000E+00  1.50000000E+00  1.20000000E+00  1.20000000E+00  1.50000000E+00
  1.20000000E+00  1.20000000E+00  1.50000000E+00  1.20000000E+00  1.20000000E+00
  1.50000000E+00  1.20000000E+00  1.20000000E+00  1.50000000E+00  1.20000000E+00
  1.20000000E+00  1.50000000E+00  1.20000000E+00  1.20000000E+00  1.50000000E+00
  1.20000000E+00  1.20000000E+00  1.50000000E+00  1.20000000E+00  1.20000000E+00
  1.50000000E+00  1.20000000E+00  1.20000000E+00  1.50000000E+00  1.20000000E+00
  1.20000000E+00  1.50000000E+00  1.20000000E+00  1.20000000E+00  1.50000000E+00
  1.20000000E+00  1.20000000E+00  1.50000000E+00  1.20000000E+00  1.20000000E+00
  1.50000000E+00  1.20000000E+00  1.20000000E+00  1.50000000E+00  1.20000000E+00
  1.20000000E+00  1.50000000E+00  1.20000000E+00  1.20000000E+00  1.50000000E+00
  1.20000000E+00  1.20000000E+00  1.50000000E+00  1.20000000E+00  1.20000000E+00
  1.50000000E+00  1.20000000E+00  1.20000000E+00  1.50000000E+00  1.20000000E+00
  1.20000000E+00  1.50000000E+00  1.20000000E+00  1.20000000E+00  1.50000000E+00
  1.20000000E+00  1.20000000E+00  1.50000000E+00  1.20000000E+00  1.20000000E+00
  1.50000000E+00  1.20000000E+00  1.20000000E+00  1.50000000E+00  1.20000000E+00
  1.20000000E+00  1.50000000E+00  1.20000000E+00  1.20000000E+00  1.50000000E+00
  1.20000000E+00  1.20000000E+00  1.50000000E+00  1.20000000E+00  1.20000000E+00
  1.50000000E+00  1.20000000E+00  1.20000000E+00  1.50000000E+00  1.20000000E+00
  1.20000000E+00  1.50000000E+00  1.20000000E+00  1.20000000E+00  1.50000000E+00
  1.20000000E+00  1.20000000E+00  1.50000000E+00  1.20000000E+00  1.20000000E+00
  1.50000000E+00  1.20000000E+00  1.20000000E+00  1.50000000E+00  1.20000000E+00
  1.20000000E+00  1.50000000E+00  1.20000000E+00  1.20000000E+00  1.50000000E+00
  1.20000000E+00  1.20000000E+00  1.50000000E+00  1.20000000E+00  1.20000000E+00
  1.50000000E+00  1.20000000E+00  1.20000000E+00  1.50000000E+00  1.20000000E+00
  1.20000000E+00  1.50000000E+00  1.20000000E+00  1.20000000E+00  1.50000000E+00
  1.20000000E+00  1.20000000E+00  1.50000000E+00  1.20000000E+00  1.20000000E+00
  1.50000000E+00  1.20000000E+00  1.20000000E+00  1.50000000E+00  1.20000000E+00
  1.20000000E+00  1.50000000E+00  1.20000000E+00  1.20000000E+00  1.50000000E+00
  1.20000000E+00  1.20000000E+00  1.50000000E+00  1.20000000E+00  1.20000000E+00
  1.50000000E+00  1.20000000E+00  1.20000000E+00  1.50000000E+00  1.20000000E+00
  1.20000000E+00  1.50000000E+00  1.20000000E+00  1.20000000E+00  1.50000000E+00
  1.20000000E+00  1.20000000E+00  1.50000000E+00  1.20000000E+00  1.20000000E+00
  1.50000000E+00  1.20000000E+00  1.20000000E+00  1.50000000E+00  1.20000000E+00
  1.20000000E+00  1.50000000E+00  1.20000000E+00  1.20000000E+00  1.50000000E+00
  1.20000000E+00  1.20000000E+00  1.50000000E+00  1.20000000E+00  1.20000000E+00
  1.50000000E+00  1.20000000E+00  1.20000000E+00  1.50000000E+00  1.20000000E+00
  1.20000000E+00  1.50000000E+00  1.20000000E+00  1.20000000E+00  1.50000000E+00
  1.20000000E+00  1.20000000E+00  1.50000000E+00  1.20000000E+00  1.20000000E+00
  1.50000000E+00  1.20000000E+00  1.20000000E+00  1.50000000E+00  1.20000000E+00
  1.20000000E+00  1.50000000E+00  1.20000000E+00  1.20000000E+00  1.50000000E+00
  1.20000000E+00  1.20000000E+00  1.50000000E+00  1.20000000E+00  1.20000000E+00
  1.50000000E+00  1.20000000E+00  1.20000000E+00  1.50000000E+00  1.20000000E+00
  1.20000000E+00  1.50000000E+00  1.20000000E+00  1.20000000E+00  1.50000000E+00
  1.20000000E+00  1.20000000E+00  1.50000000E+00  1.20000000E+00  1.20000000E+00
  1.50000000E+00  1.20000000E+00  1.20000000E+00  1.50000000E+00  1.20000000E+00
  1.20000000E+00  1.50000000E+00  1.20000000E+00  1.20000000E+00  1.50000000E+00
  1.20000000E+00  1.20000000E+00  1.50000000E+00  1.20000000E+00  1.20000000E+00
  1.50000000E+00  1.20000000E+00  1.20000000E+00  1.50000000E+00  1.20000000E+00
  1.20000000E+00  1.50000000E+00  1.20000000E+00  1.20000000E+00  1.50000000E+00
  1.20000000E+00  1.20000000E+00  1.50000000E+00  1.20000000E+00  1.20000000E+00
  1.50000000E+00  1.20000000E+00  1.20000000E+00  1.50000000E+00  1.20000000E+00
  1.20000000E+00  1.50000000E+00  1.20000000E+00  1.20000000E+00  1.50000000E+00
  1.20000000E+00  1.20000000E+00  1.50000000E+00  1.20000000E+00  1.20000000E+00
  1.50000000E+00  1.20000000E+00  1.20000000E+00  1.50000000E+00  1.20000000E+00
  1.20000000E+00  1.50000000E+00  1.20000000E+00  1.20000000E+00  1.50000000E+00
  1.20000000E+00  1.20000000E+00  1.50000000E+00  1.20000000E+00  1.20000000E+00
  1.50000000E+00  1.20000000E+00  1.20000000E+00  1.50000000E+00  1.20000000E+00
  1.20000000E+00  1.50000000E+00  1.20000000E+00  1.20000000E+00  1.50000000E+00
  1.20000000E+00  1.20000000E+00  1.50000000E+00  1.20000000E+00  1.20000000E+00
  1.50000000E+00  1.20000000E+00  1.20000000E+00  1.50000000E+00  1.20000000E+00
  1.20000000E+00  1.50000000E+00  1.20000000E+00  1.20000000E+00  1.50000000E+00
  1.20000000E+00  1.20000000E+00  1.50000000E+00  1.20000000E+00  1.20000000E+00
  1.50000000E+00  1.20000000E+00  1.20000000E+00  1.50000000E+00  1.20000000E+00
  1.20000000E+00  1.50000000E+00  1.20000000E+00  1.20000000E+00  1.50000000E+00
  1.20000000E+00  1.20000000E+00  1.50000000E+00  1.20000000E+00  1.20000000E+00
  1.50000000E+00  1.20000000E+00  1.20000000E+00  1.50000000E+00  1.20000000E+00
  1.20000000E+00  1.50000000E+00  1.20000000E+00  1.20000000E+00  1.50000000E+00
  1.20000000E+00  1.20000000E+00  1.50000000E+00  1.20000000E+00  1.20000000E+00
  1.50000000E+00  1.20000000E+00  1.20000000E+00  1.50000000E+00  1.20000000E+00
  1.20000000E+00  1.50000000E+00  1.20000000E+00  1.20000000E+00  1.50000000E+00
  1.20000000E+00  1.20000000E+00  1.50000000E+00  1.20000000E+00  1.20000000E+00
  1.50000000E+00  1.20000000E+00  1.20000000E+00  1.50000000E+00  1.20000000E+00
  1.20000000E+00  1.50000000E+00  1.20000000E+00  1.20000000E+00  1.50000000E+00
  1.20000000E+00  1.20000000E+00  1.50000000E+00  1.20000000E+00  1.20000000E+00
  1.50000000E+00  1.20000000E+00  1.20000000E+00  1.50000000E+00  1.20000000E+00
  1.20000000E+00  1.50000000E+00  1.20000000E+00  1.20000000E+00  1.50000000E+00
  1.20000000E+00  1.20000000E+00  1.50000000E+00  1.20000000E+00  1.20000000E+00
  1.50000000E+00  1.20000000E+00  1.20000000E+00  1.50000000E+00  1.20000000E+00
  1.20000000E+00  1.50000000E+00  1.20000000E+00  1.20000000E+00  1.50000000E+00
  1.20000000E+00  1.20000000E+00  1.50000000E+00  1.20000000E+00  1.20000000E+00
  1.50000000E+00  1.20000000E+00  1.20000000E+00  1.50000000E+00  1.20000000E+00
  1.20000000E+00  1.50000000E+00  1.20000000E+00  1.20000000E+00  1.50000000E+00
  1.20000000E+00  1.20000000E+00  1.50000000E+00  1.20000000E+00  1.20000000E+00
  1.50000000E+00  1.20000000E+00  1.20000000E+00  1.50000000E+00  1.20000000E+00
  1.20000000E+00  1.50000000E+00  1.20000000E+00  1.20000000E+00  1.50000000E+00
  1.20000000E+00  1.20000000E+00  1.50000000E+00  1.20000000E+00  1.20000000E+00
  1.50000000E+00  1.20000000E+00  1.20000000E+00  1.50000000E+00  1.20000000E+00
  1.20000000E+00  1.50000000E+00  1.20000000E+00  1.20000000E+00  1.50000000E+00
  1.20000000E+00  1.20000000E+00  1.50000000E+00  1.20000000E+00  1.20000000E+00
  1.50000000E+00  1.20000000E+00  1.20000000E+00  1.50000000E+00  1.20000000E+00
  1.20000000E+00  1.50000000E+00  1.20000000E+00  1.20000000E+00  1.50000000E+00
  1.20000000E+00  1.20000000E+00  1.50000000E+00  1.20000000E+00  1.20000000E+00
  1.50000000E+00  1.20000000E+00  1.20000000E+00  1.50000000E+00  1.20000000E+00
  1.20000000E+00  1.50000000E+00  1.20000000E+00  1.20000000E+00  1.50000000E+00
  1.20000000E+00  1.20000000E+00  1.50000000E+00  1.20000000E+00  1.20000000E+00
  1.50000000E+00  1.20000000E+00  1.20000000E+00  1.50000000E+00  1.20000000E+00
  1.20000000E+00  1.50000000E+00  1.20000000E+00  1.20000000E+00  1.50000000E+00
  1.20000000E+00  1.20000000E+00  1.50000000E+00  1.20000000E+00  1.20000000E+00
  1.50000000E+00  1.20000000E+00  1.20000000E+00  1.50000000E+00  1.20000000E+00
  1.20000000E+00  1.50000000E+00  1.20000000E+00  1.20000000E+00  1.50000000E+00
  1.20000000E+00  1.20000000E+00  1.50000000E+00  1.20000000E+00  1.20000000E+00
  1.50000000E+00  1.20000000E+00  1.20000000E+00  1.50000000E+00  1.20000000E+00
  1.20000000E+00  1.50000000E+00  1.20000000E+00  1.20000000E+00  1.50000000E+00
  1.20000000E+00  1.20000000E+00  1.50000000E+00  1.20000000E+00  1.20000000E+00
  1.50000000E+00  1.20000000E+00  1.20000000E+00  1.50000000E+00  1.20000000E+00
  1.20000000E+00  1.50000000E+00  1.20000000E+00  1.20000000E+00  1.50000000E+00
  1.20000000E+00  1.20000000E+00  1.50000000E+00  1.20000000E+00  1.20000000E+00
  1.50000000E+00  1.20000000E+00  1.20000000E+00  1.50000000E+00  1.20000000E+00
  1.20000000E+00  1.50000000E+00  1.20000000E+00  1.20000000E+00  1.50000000E+00
  1.20000000E+00  1.20000000E+00  1.50000000E+00  1.20000000E+00  1.20000000E+00
  1.50000000E+00  1.20000000E+00  1.20000000E+00  1.50000000E+00  1.20000000E+00
  1.20000000E+00  1.50000000E+00  1.20000000E+00  1.20000000E+00  1.50000000E+00
  1.20000000E+00  1.20000000E+00  1.50000000E+00  1.20000000E+00  1.20000000E+00
  1.50000000E+00  1.20000000E+00  1.20000000E+00  1.50000000E+00  1.20000000E+00
  1.20000000E+00  1.50000000E+00  1.20000000E+00  1.20000000E+00  1.50000000E+00
  1.20000000E+00  1.20000000E+00  1.50000000E+00  1.20000000E+00  1.20000000E+00
  1.50000000E+00  1.20000000E+00  1.20000000E+00  1.50000000E+00  1.20000000E+00
  1.20000000E+00  1.50000000E+00  1.20000000E+00  1.20000000E+00  1.50000000E+00
  1.20000000E+00  1.20000000E+00  1.50000000E+00  1.20000000E+00  1.20000000E+00
  1.50000000E+00  1.20000000E+00  1.20000000E+00  1.50000000E+00  1.20000000E+00
  1.20000000E+00  1.50000000E+00  1.20000000E+00  1.20000000E+00  1.50000000E+00
  1.20000000E+00  1.20000000E+00  1.50000000E+00  1.20000000E+00  1.20000000E+00
  1.50000000E+00  1.20000000E+00  1.20000000E+00  1.50000000E+00  1.20000000E+00
  1.20000000E+00  1.50000000E+00  1.20000000E+00  1.20000000E+00  1.50000000E+00
  1.20000000E+00  1.20000000E+00  1.50000000E+00  1.20000000E+00  1.20000000E+00
  1.50000000E+00  1.20000000E+00  1.20000000E+00  1.50000000E+00  1.20000000E+00
  1.20000000E+00  1.50000000E+00  1.20000000E+00  1.20000000E+00  1.50000000E+00
  1.20000000E+00  1.20000000E+00  1.50000000E+00  1.20000000E+00  1.20000000E+00
  1.50000000E+00  1.20000000E+00  1.20000000E+00  1.50000000E+00  1.20000000E+00
  1.20000000E+00  1.50000000E+00  1.20000000E+00  1.20000000E+00  1.50000000E+00
  1.20000000E+00  1.20000000E+00  1.50000000E+00  1.20000000E+00  1.20000000E+00
  1.50000000E+00  1.20000000E+00  1.20000000E+00  1.50000000E+00  1.20000000E+00
  1.20000000E+00  1.50000000E+00  1.20000000E+00  1.20000000E+00  1.50000000E+00
  1.20000000E+00  1.20000000E+00  1.50000000E+00  1.20000000E+00  1.20000000E+00
  1.50000000E+00  1.20000000E+00  1.20000000E+00  1.50000000E+00  1.20000000E+00
  1.20000000E+00  1.50000000E+00  1.20000000E+00  1.20000000E+00  1.50000000E+00
  1.20000000E+00  1.20000000E+00  1.50000000E+00  1.20000000E+00  1.20000000E+00
  1.50000000E+00  1.20000000E+00  1.20000000E+00  1.50000000E+00  1.20000000E+00
  1.20000000E+00  1.50000000E+00  1.20000000E+00  1.20000000E+00  1.50000000E+00
  1.20000000E+00  1.20000000E+00  1.50000000E+00  1.20000000E+00  1.20000000E+00
  1.50000000E+00  1.20000000E+00  1.20000000E+00  1.50000000E+00  1.20000000E+00
  1.20000000E+00  1.50000000E+00  1.20000000E+00  1.20000000E+00  1.50000000E+00
  1.20000000E+00  1.20000000E+00  1.50000000E+00  1.20000000E+00  1.20000000E+00
  1.50000000E+00  1.20000000E+00  1.20000000E+00  1.50000000E+00  1.20000000E+00
  1.20000000E+00  1.50000000E+00  1.20000000E+00  1.20000000E+00  1.50000000E+00
  1.20000000E+00  1.20000000E+00  1.50000000E+00  1.20000000E+00  1.20000000E+00
  1.50000000E+00  1.20000000E+00  1.20000000E+00  1.50000000E+00  1.20000000E+00
  1.20000000E+00  1.50000000E+00  1.20000000E+00  1.20000000E+00  1.50000000E+00
  1.20000000E+00  1.20000000E+00  1.50000000E+00  1.20000000E+00  1.20000000E+00
  1.50000000E+00  1.20000000E+00  1.20000000E+00  1.50000000E+00  1.20000000E+00
  1.20000000E+00  1.50000000E+00  1.20000000E+00  1.20000000E+00  1.50000000E+00
  1.20000000E+00  1.20000000E+00  1.50000000E+00  1.20000000E+00  1.20000000E+00
  1.50000000E+00  1.20000000E+00  1.20000000E+00  1.50000000E+00  1.20000000E+00
  1.20000000E+00  1.50000000E+00  1.20000000E+00  1.20000000E+00  1.50000000E+00
  1.20000000E+00  1.20000000E+00  1.50000000E+00  1.20000000E+00  1.20000000E+00
  1.50000000E+00  1.20000000E+00  1.20000000E+00  1.50000000E+00  1.20000000E+00
  1.20000000E+00  1.50000000E+00  1.20000000E+00  1.20000000E+00  1.50000000E+00
  1.20000000E+00  1.20000000E+00  1.50000000E+00  1.20000000E+00  1.20000000E+00
  1.50000000E+00  1.20000000E+00  1.20000000E+00  1.50000000E+00  1.20000000E+00
  1.20000000E+00  1.50000000E+00  1.20000000E+00  1.20000000E+00  1.50000000E+00
  1.20000000E+00  1.20000000E+00  1.50000000E+00  1.20000000E+00  1.20000000E+00
  1.50000000E+00  1.20000000E+00  1.20000000E+00  1.50000000E+00  1.20000000E+00
  1.20000000E+00  1.50000000E+00  1.20000000E+00  1.20000000E+00  1.50000000E+00
  1.20000000E+00  1.20000000E+00  1.50000000E+00  1.20000000E+00  1.20000000E+00
  1.50000000E+00  1.20000000E+00  1.20000000E+00  1.50000000E+00  1.20000000E+00
  1.20000000E+00  1.50000000E+00  1.20000000E+00  1.20000000E+00  1.50000000E+00
  1.20000000E+00  1.20000000E+00  1.50000000E+00  1.20000000E+00  1.20000000E+00
  1.50000000E+00  1.20000000E+00  1.20000000E+00  1.50000000E+00  1.20000000E+00
  1.20000000E+00  1.50000000E+00  1.20000000E+00  1.20000000E+00  1.50000000E+00
  1.20000000E+00  1.20000000E+00  1.50000000E+00  1.20000000E+00  1.20000000E+00
  1.50000000E+00  1.20000000E+00  1.20000000E+00  1.50000000E+00  1.20000000E+00
  1.20000000E+00  1.50000000E+00  1.20000000E+00  1.20000000E+00  1.50000000E+00
  1.20000000E+00  1.20000000E+00  1.50000000E+00  1.20000000E+00  1.20000000E+00
  1.50000000E+00  1.20000000E+00  1.20000000E+00  1.50000000E+00  1.20000000E+00
  1.20000000E+00  1.50000000E+00  1.20000000E+00  1.20000000E+00  1.50000000E+00
  1.20000000E+00  1.20000000E+00  1.50000000E+00  1.20000000E+00  1.20000000E+00
  1.50000000E+00  1.20000000E+00  1.20000000E+00  1.50000000E+00  1.20000000E+00
  1.20000000E+00  1.50000000E+00  1.20000000E+00  1.20000000E+00  1.50000000E+00
  1.20000000E+00  1.20000000E+00  1.50000000E+00  1.20000000E+00  1.20000000E+00
  1.50000000E+00  1.20000000E+00  1.20000000E+00  1.50000000E+00  1.20000000E+00
  1.20000000E+00  1.50000000E+00  1.20000000E+00  1.20000000E+00  1.50000000E+00
  1.20000000E+00  1.20000000E+00  1.50000000E+00  1.20000000E+00  1.20000000E+00
  1.50000000E+00  1.20000000E+00  1.20000000E+00  1.50000000E+00  1.20000000E+00
  1.20000000E+00  1.50000000E+00  1.20000000E+00  1.20000000E+00  1.50000000E+00
  1.20000000E+00  1.20000000E+00  1.50000000E+00  1.20000000E+00  1.20000000E+00
  1.50000000E+00  1.20000000E+00  1.20000000E+00  1.50000000E+00  1.20000000E+00
  1.20000000E+00  1.50000000E+00  1.20000000E+00  1.20000000E+00  1.50000000E+00
  1.20000000E+00  1.20000000E+00  1.50000000E+00  1.20000000E+00  1.20000000E+00
  1.50000000E+00  1.20000000E+00  1.20000000E+00  1.50000000E+00  1.20000000E+00
  1.20000000E+00  1.50000000E+00  1.20000000E+00  1.20000000E+00  1.50000000E+00
  1.20000000E+00  1.20000000E+00  1.50000000E+00  1.20000000E+00  1.20000000E+00
  1.50000000E+00  1.20000000E+00  1.20000000E+00  1.50000000E+00  1.20000000E+00
  1.20000000E+00  1.50000000E+00  1.20000000E+00  1.20000000E+00  1.50000000E+00
  1.20000000E+00  1.20000000E+00  1.50000000E+00  1.20000000E+00  1.20000000E+00
  1.50000000E+00  1.20000000E+00  1.20000000E+00  1.50000000E+00  1.20000000E+00
  1.20000000E+00  1.50000000E+00  1.20000000E+00  1.20000000E+00  1.50000000E+00
  1.20000000E+00  1.20000000E+00  1.50000000E+00  1.20000000E+00  1.20000000E+00
  1.50000000E+00  1.20000000E+00  1.20000000E+00  1.50000000E+00  1.20000000E+00
  1.20000000E+00  1.50000000E+00  1.20000000E+00  1.20000000E+00  1.50000000E+00
  1.20000000E+00  1.20000000E+00  1.50000000E+00  1.20000000E+00  1.20000000E+00
  1.50000000E+00  1.20000000E+00  1.20000000E+00  1.50000000E+00  1.20000000E+00
  1.20000000E+00  1.50000000E+00  1.20000000E+00  1.20000000E+00  1.50000000E+00
  1.20000000E+00  1.20000000E+00  1.50000000E+00  1.20000000E+00  1.20000000E+00
  1.50000000E+00  1.20000000E+00  1.20000000E+00  1.50000000E+00  1.20000000E+00
  1.20000000E+00  1.50000000E+00  1.20000000E+00  1.20000000E+00  1.50000000E+00
  1.20000000E+00  1.20000000E+00  1.50000000E+00  1.20000000E+00  1.20000000E+00
  1.50000000E+00  1.20000000E+00  1.20000000E+00  1.50000000E+00  1.20000000E+00
  1.20000000E+00  1.50000000E+00  1.20000000E+00  1.20000000E+00  1.50000000E+00
  1.20000000E+00  1.20000000E+00  1.50000000E+00  1.20000000E+00  1.20000000E+00
  1.50000000E+00  1.20000000E+00  1.20000000E+00  1.50000000E+00  1.20000000E+00
  1.20000000E+00  1.50000000E+00  1.20000000E+00  1.20000000E+00  1.50000000E+00
  1.20000000E+00  1.20000000E+00  1.50000000E+00  1.20000000E+00  1.20000000E+00
  1.50000000E+00  1.20000000E+00  1.20000000E+00  1.50000000E+00  1.20000000E+00
  1.20000000E+00  1.50000000E+00  1.20000000E+00  1.20000000E+00  1.50000000E+00
  1.20000000E+00  1.20000000E+00  1.50000000E+00  1.20000000E+00  1.20000000E+00
  1.50000000E+00  1.20000000E+00  1.20000000E+00  1.50000000E+00  1.20000000E+00
  1.20000000E+00  1.50000000E+00  1.20000000E+00  1.20000000E+00  1.50000000E+00
  1.20000000E+00  1.20000000E+00  1.50000000E+00  1.20000000E+00  1.20000000E+00
  1.50000000E+00  1.20000000E+00  1.20000000E+00  1.50000000E+00  1.20000000E+00
  1.20000000E+00  1.50000000E+00  1.20000000E+00  1.20000000E+00  1.50000000E+00
  1.20000000E+00  1.20000000E+00  1.50000000E+00  1.20000000E+00  1.20000000E+00
  1.50000000E+00  1.20000000E+00  1.20000000E+00  1.50000000E+00  1.20000000E+00
  1.20000000E+00  1.50000000E+00  1.20000000E+00  1.20000000E+00  1.50000000E+00
  1.20000000E+00  1.20000000E+00  1.50000000E+00  1.20000000E+00  1.20000000E+00
  1.50000000E+00  1.20000000E+00  1.20000000E+00  1.50000000E+00  1.20000000E+00
  1.20000000E+00  1.50000000E+00  1.20000000E+00  1.20000000E+00  1.50000000E+00
  1.20000000E+00  1.20000000E+00  1.50000000E+00  1.20000000E+00  1.20000000E+00
  1.50000000E+00  1.20000000E+00  1.20000000E+00  1.50000000E+00  1.20000000E+00
  1.20000000E+00  1.50000000E+00  1.20000000E+00  1.20000000E+00  1.50000000E+00
  1.20000000E+00  1.20000000E+00  1.50000000E+00  1.20000000E+00  1.20000000E+00
  1.50000000E+00  1.20000000E+00  1.20000000E+00  1.50000000E+00  1.20000000E+00
  1.20000000E+00  1.50000000E+00  1.20000000E+00  1.20000000E+00  1.50000000E+00
  1.20000000E+00  1.20000000E+00  1.50000000E+00  1.20000000E+00  1.20000000E+00
  1.50000000E+00  1.20000000E+00  1.20000000E+00  1.50000000E+00  1.20000000E+00
  1.20000000E+00  1.50000000E+00  1.20000000E+00  1.20000000E+00  1.50000000E+00
  1.20000000E+00  1.20000000E+00  1.50000000E+00  1.20000000E+00  1.20000000E+00
  1.50000000E+00  1.20000000E+00  1.20000000E+00  1.50000000E+00  1.20000000E+00
  1.20000000E+00  1.50000000E+00  1.20000000E+00  1.20000000E+00  1.50000000E+00
  1.20000000E+00  1.20000000E+00  1.50000000E+00  1.20000000E+00  1.20000000E+00
  1.50000000E+00  1.20000000E+00  1.20000000E+00  1.50000000E+00  1.20000000E+00
  1.20000000E+00  1.50000000E+00  1.20000000E+00  1.20000000E+00  1.50000000E+00
  1.20000000E+00  1.20000000E+00  1.50000000E+00  1.20000000E+00  1.20000000E+00
  1.50000000E+00  1.20000000E+00  1.20000000E+00  1.50000000E+00  1.20000000E+00
  1.20000000E+00  1.50000000E+00  1.20000000E+00  1.20000000E+00  1.50000000E+00
  1.20000000E+00  1.20000000E+00  1.50000000E+00  1.20000000E+00  1.20000000E+00
  1.50000000E+00  1.20000000E+00  1.20000000E+00  1.50000000E+00  1.20000000E+00
  1.20000000E+00  1.50000000E+00  1.20000000E+00  1.20000000E+00  1.50000000E+00
  1.20000000E+00  1.20000000E+00  1.50000000E+00  1.20000000E+00  1.20000000E+00
  1.50000000E+00  1.20000000E+00  1.20000000E+00  1.50000000E+00  1.20000000E+00
  1.20000000E+00  1.50000000E+00  1.20000000E+00  1.20000000E+00  1.50000000E+00
  1.20000000E+00  1.20000000E+00  1.50000000E+00  1.20000000E+00  1.20000000E+00
  1.50000000E+00  1.20000000E+00  1.20000000E+00  1.50000000E+00  1.20000000E+00
  1.20000000E+00  1.50000000E+00  1.20000000E+00  1.20000000E+00  1.50000000E+00
  1.20000000E+00  1.20000000E+00  1.50000000E+00  1.20000000E+00  1.20000000E+00
  1.50000000E+00  1.20000000E+00  1.20000000E+00  1.50000000E+00  1.20000000E+00
  1.20000000E+00  1.50000000E+00  1.20000000E+00  1.20000000E+00  1.50000000E+00
  1.20000000E+00  1.20000000E+00  1.50000000E+00  1.20000000E+00  1.20000000E+00
  1.50000000E+00  1.20000000E+00  1.20000000E+00  1.50000000E+00  1.20000000E+00
  1.20000000E+00  1.50000000E+00  1.20000000E+00  1.20000000E+00  1.50000000E+00
  1.20000000E+00  1.20000000E+00  1.50000000E+00  1.20000000E+00  1.20000000E+00
  1.50000000E+00  1.20000000E+00  1.20000000E+00  1.50000000E+00  1.20000000E+00
  1.20000000E+00  1.50000000E+00  1.20000000E+00  1.20000000E+00  1.50000000E+00
  1.20000000E+00  1.20000000E+00  1.50000000E+00  1.20000000E+00  1.20000000E+00
  1.50000000E+00  1.20000000E+00  1.20000000E+00  1.50000000E+00  1.20000000E+00
  1.20000000E+00  1.50000000E+00  1.20000000E+00  1.20000000E+00  1.50000000E+00
  1.20000000E+00  1.20000000E+00  1.50000000E+00  1.20000000E+00  1.20000000E+00
  1.50000000E+00  1.20000000E+00  1.20000000E+00  1.50000000E+00  1.20000000E+00
  1.20000000E+00  1.50000000E+00  1.20000000E+00  1.20000000E+00  1.50000000E+00
  1.20000000E+00  1.20000000E+00  1.50000000E+00  1.20000000E+00  1.20000000E+00
  1.50000000E+00  1.20000000E+00  1.20000000E+00  1.50000000E+00  1.20000000E+00
  1.20000000E+00  1.50000000E+00  1.20000000E+00  1.20000000E+00  1.50000000E+00
  1.20000000E+00  1.20000000E+00  1.50000000E+00  1.20000000E+00  1.20000000E+00
  1.50000000E+00  1.20000000E+00  1.20000000E+00  1.50000000E+00  1.20000000E+00
  1.20000000E+00  1.50000000E+00  1.20000000E+00  1.20000000E+00  1.50000000E+00
  1.20000000E+00  1.20000000E+00  1.50000000E+00  1.20000000E+00  1.20000000E+00
  1.50000000E+00  1.20000000E+00  1.20000000E+00  1.50000000E+00  1.20000000E+00
  1.20000000E+00  1.50000000E+00  1.20000000E+00  1.20000000E+00  1.50000000E+00
  1.20000000E+00  1.20000000E+00  1.50000000E+00  1.20000000E+00  1.20000000E+00
  1.50000000E+00  1.20000000E+00  1.20000000E+00  1.50000000E+00  1.20000000E+00
  1.20000000E+00  1.50000000E+00  1.20000000E+00  1.20000000E+00  1.50000000E+00
  1.20000000E+00  1.20000000E+00  1.50000000E+00  1.20000000E+00  1.20000000E+00
  1.50000000E+00  1.20000000E+00  1.20000000E+00  1.50000000E+00  1.20000000E+00
  1.20000000E+00  1.50000000E+00  1.20000000E+00  1.20000000E+00  1.50000000E+00
  1.20000000E+00  1.20000000E+00  1.50000000E+00  1.20000000E+00  1.20000000E+00
  1.50000000E+00  1.20000000E+00  1.20000000E+00  1.50000000E+00  1.20000000E+00
  1.20000000E+00  1.50000000E+00  1.20000000E+00  1.20000000E+00  1.50000000E+00
  1.20000000E+00  1.20000000E+00  1.50000000E+00  1.20000000E+00  1.20000000E+00
  1.50000000E+00  1.20000000E+00  1.20000000E+00  1.50000000E+00  1.20000000E+00
  1.20000000E+00  1.50000000E+00  1.20000000E+00  1.20000000E+00  1.50000000E+00
  1.20000000E+00  1.20000000E+00  1.50000000E+00  1.20000000E+00  1.20000000E+00
  1.50000000E+00  1.20000000E+00  1.20000000E+00  1.50000000E+00  1.20000000E+00
  1.20000000E+00  1.50000000E+00  1.20000000E+00  1.20000000E+00  1.50000000E+00
  1.20000000E+00  1.20000000E+00  1.50000000E+00  1.20000000E+00  1.20000000E+00
  1.50000000E+00  1.20000000E+00  1.20000000E+00  1.50000000E+00  1.20000000E+00
  1.20000000E+00  1.50000000E+00  1.20000000E+00  1.20000000E+00  1.50000000E+00
  1.20000000E+00  1.20000000E+00  1.50000000E+00  1.20000000E+00  1.20000000E+00
  1.50000000E+00  1.20000000E+00  1.20000000E+00  1.50000000E+00  1.20000000E+00
  1.20000000E+00  1.50000000E+00  1.20000000E+00  1.20000000E+00  1.50000000E+00
  1.20000000E+00  1.20000000E+00  1.50000000E+00  1.20000000E+00  1.20000000E+00
  1.50000000E+00  1.20000000E+00  1.20000000E+00  1.50000000E+00  1.20000000E+00
  1.20000000E+00  1.50000000E+00  1.20000000E+00  1.20000000E+00  1.50000000E+00
  1.20000000E+00  1.20000000E+00  1.50000000E+00  1.20000000E+00  1.20000000E+00
  1.50000000E+00  1.20000000E+00  1.20000000E+00  1.50000000E+00  1.20000000E+00
  1.20000000E+00  1.50000000E+00  1.20000000E+00  1.20000000E+00  1.50000000E+00
  1.20000000E+00  1.20000000E+00  1.50000000E+00  1.20000000E+00  1.20000000E+00
  1.50000000E+00  1.20000000E+00  1.20000000E+00  1.50000000E+00  1.20000000E+00
  1.20000000E+00  1.50000000E+00  1.20000000E+00  1.20000000E+00  1.50000000E+00
  1.20000000E+00  1.20000000E+00  1.50000000E+00  1.20000000E+00  1.20000000E+00
  1.50000000E+00  1.20000000E+00  1.20000000E+00  1.50000000E+00  1.20000000E+00
  1.20000000E+00  1.50000000E+00  1.20000000E+00  1.20000000E+00  1.50000000E+00
  1.20000000E+00  1.20000000E+00  1.50000000E+00  1.20000000E+00  1.20000000E+00
  1.50000000E+00  1.20000000E+00  1.20000000E+00  1.50000000E+00  1.20000000E+00
  1.20000000E+00  1.50000000E+00  1.20000000E+00  1.20000000E+00  1.50000000E+00
  1.20000000E+00  1.20000000E+00  1.50000000E+00  1.20000000E+00  1.20000000E+00
  1.50000000E+00  1.20000000E+00  1.20000000E+00  1.50000000E+00  1.20000000E+00
  1.20000000E+00  1.50000000E+00  1.20000000E+00  1.20000000E+00  1.50000000E+00
  1.20000000E+00  1.20000000E+00  1.50000000E+00  1.20000000E+00  1.20000000E+00
  1.50000000E+00  1.20000000E+00  1.20000000E+00  1.50000000E+00  1.20000000E+00
  1.20000000E+00  1.50000000E+00  1.20000000E+00  1.20000000E+00  1.50000000E+00
  1.20000000E+00  1.20000000E+00  1.50000000E+00  1.20000000E+00  1.20000000E+00
  1.50000000E+00  1.20000000E+00  1.20000000E+00  1.50000000E+00  1.20000000E+00
  1.20000000E+00  1.50000000E+00  1.20000000E+00  1.20000000E+00  1.50000000E+00
  1.20000000E+00  1.20000000E+00  1.50000000E+00  1.20000000E+00  1.20000000E+00
  1.50000000E+00  1.20000000E+00  1.20000000E+00  1.50000000E+00  1.20000000E+00
  1.20000000E+00  1.50000000E+00  1.20000000E+00  1.20000000E+00  1.50000000E+00
  1.20000000E+00  1.20000000E+00  1.50000000E+00  1.20000000E+00  1.20000000E+00
  1.50000000E+00  1.20000000E+00  1.20000000E+00  1.50000000E+00  1.20000000E+00
  1.20000000E+00  1.50000000E+00  1.20000000E+00  1.20000000E+00  1.50000000E+00
  1.20000000E+00  1.20000000E+00  1.50000000E+00  1.20000000E+00  1.20000000E+00
  1.50000000E+00  1.20000000E+00  1.20000000E+00  1.50000000E+00  1.20000000E+00
  1.20000000E+00  1.50000000E+00  1.20000000E+00  1.20000000E+00  1.50000000E+00
  1.20000000E+00  1.20000000E+00  1.50000000E+00  1.20000000E+00  1.20000000E+00
  1.50000000E+00  1.20000000E+00  1.20000000E+00  1.50000000E+00  1.20000000E+00
  1.20000000E+00  1.50000000E+00  1.20000000E+00  1.20000000E+00  1.50000000E+00
  1.20000000E+00  1.20000000E+00  1.50000000E+00  1.20000000E+00  1.20000000E+00
  1.50000000E+00  1.20000000E+00  1.20000000E+00  1.50000000E+00  1.20000000E+00
  1.20000000E+00  1.50000000E+00  1.20000000E+00  1.20000000E+00  1.50000000E+00
  1.20000000E+00  1.20000000E+00  1.50000000E+00  1.20000000E+00  1.20000000E+00
  1.50000000E+00  1.20000000E+00  1.20000000E+00  1.50000000E+00  1.20000000E+00
  1.20000000E+00  1.50000000E+00  1.20000000E+00  1.20000000E+00  1.50000000E+00
  1.20000000E+00  1.20000000E+00  1.50000000E+00  1.20000000E+00  1.20000000E+00
  1.50000000E+00  1.20000000E+00  1.20000000E+00  1.50000000E+00  1.20000000E+00
  1.20000000E+00  1.50000000E+00  1.20000000E+00  1.20000000E+00  1.50000000E+00
  1.20000000E+00  1.20000000E+00  1.50000000E+00  1.20000000E+00  1.20000000E+00
  1.50000000E+00  1.20000000E+00  1.20000000E+00  1.50000000E+00  1.20000000E+00
  1.20000000E+00  1.50000000E+00  1.20000000E+00  1.20000000E+00  1.50000000E+00
  1.20000000E+00  1.20000000E+00  1.50000000E+00  1.20000000E+00  1.20000000E+00
  1.50000000E+00  1.20000000E+00  1.20000000E+00  1.50000000E+00  1.20000000E+00
  1.20000000E+00  1.50000000E+00  1.20000000E+00  1.20000000E+00  1.50000000E+00
  1.20000000E+00  1.20000000E+00  1.50000000E+00  1.20000000E+00  1.20000000E+00
  1.50000000E+00  1.20000000E+00  1.20000000E+00  1.50000000E+00  1.20000000E+00
  1.20000000E+00  1.50000000E+00  1.20000000E+00  1.20000000E+00  1.50000000E+00
  1.20000000E+00  1.20000000E+00  1.50000000E+00  1.20000000E+00  1.20000000E+00
  1.50000000E+00  1.20000000E+00  1.20000000E+00  1.50000000E+00  1.20000000E+00
  1.20000000E+00  1.50000000E+00  1.20000000E+00  1.20000000E+00  1.50000000E+00
  1.20000000E+00  1.20000000E+00  1.50000000E+00  1.20000000E+00  1.20000000E+00
  1.50000000E+00  1.20000000E+00  1.20000000E+00  1.50000000E+00  1.20000000E+00
  1.20000000E+00  1.50000000E+00  1.20000000E+00  1.20000000E+00  1.50000000E+00
  1.20000000E+00  1.20000000E+00  1.50000000E+00  1.20000000E+00  1.20000000E+00
  1.50000000E+00  1.20000000E+00  1.20000000E+00  1.50000000E+00  1.20000000E+00
  1.20000000E+00  1.50000000E+00  1.20000000E+00  1.20000000E+00  1.50000000E+00
  1.20000000E+00  1.20000000E+00  1.50000000E+00  1.20000000E+00  1.20000000E+00
  1.50000000E+00  1.20000000E+00  1.20000000E+00  1.50000000E+00  1.20000000E+00
  1.20000000E+00  1.50000000E+00  1.20000000E+00  1.20000000E+00  1.50000000E+00
  1.20000000E+00  1.20000000E+00  1.50000000E+00  1.20000000E+00  1.20000000E+00
  1.50000000E+00  1.20000000E+00  1.20000000E+00  1.50000000E+00  1.20000000E+00
  1.20000000E+00  1.50000000E+00  1.20000000E+00  1.20000000E+00  1.50000000E+00
  1.20000000E+00  1.20000000E+00  1.50000000E+00  1.20000000E+00  1.20000000E+00
  1.50000000E+00  1.20000000E+00  1.20000000E+00  1.50000000E+00  1.20000000E+00
  1.20000000E+00  1.50000000E+00  1.20000000E+00  1.20000000E+00  1.50000000E+00
  1.20000000E+00  1.20000000E+00  1.50000000E+00  1.20000000E+00  1.20000000E+00
  1.50000000E+00  1.20000000E+00  1.20000000E+00  1.50000000E+00  1.20000000E+00
  1.20000000E+00  1.50000000E+00  1.20000000E+00  1.20000000E+00  1.50000000E+00
  1.20000000E+00  1.20000000E+00  1.50000000E+00  1.20000000E+00  1.20000000E+00
  1.50000000E+00  1.20000000E+00  1.20000000E+00  1.50000000E+00  1.20000000E+00
  1.20000000E+00  1.50000000E+00  1.20000000E+00  1.20000000E+00  1.50000000E+00
  1.20000000E+00  1.20000000E+00  1.50000000E+00  1.20000000E+00  1.20000000E+00
  1.50000000E+00  1.20000000E+00  1.20000000E+00  1.50000000E+00  1.20000000E+00
  1.20000000E+00  1.50000000E+00  1.20000000E+00  1.20000000E+00  1.50000000E+00
  1.20000000E+00  1.20000000E+00  1.50000000E+00  1.20000000E+00  1.20000000E+00
  1.50000000E+00  1.20000000E+00  1.20000000E+00  1.50000000E+00  1.20000000E+00
  1.20000000E+00  1.50000000E+00  1.20000000E+00  1.20000000E+00  1.50000000E+00
  1.20000000E+00  1.20000000E+00  1.50000000E+00  1.20000000E+00  1.20000000E+00
  1.50000000E+00  1.20000000E+00  1.20000000E+00  1.50000000E+00  1.20000000E+00
  1.20000000E+00  1.50000000E+00  1.20000000E+00  1.20000000E+00  1.50000000E+00
  1.20000000E+00  1.20000000E+00  1.50000000E+00  1.20000000E+00  1.20000000E+00
  1.50000000E+00  1.20000000E+00  1.20000000E+00  1.50000000E+00  1.20000000E+00
  1.20000000E+00  1.50000000E+00  1.20000000E+00  1.20000000E+00  1.50000000E+00
  1.20000000E+00  1.20000000E+00  1.50000000E+00  1.20000000E+00  1.20000000E+00
  1.50000000E+00  1.20000000E+00  1.20000000E+00  1.50000000E+00  1.20000000E+00
  1.20000000E+00  1.50000000E+00  1.20000000E+00  1.20000000E+00  1.50000000E+00
  1.20000000E+00  1.20000000E+00  1.50000000E+00  1.20000000E+00  1.20000000E+00
  1.50000000E+00  1.20000000E+00  1.20000000E+00  1.50000000E+00  1.20000000E+00
  1.20000000E+00  1.50000000E+00  1.20000000E+00  1.20000000E+00  1.50000000E+00
  1.20000000E+00  1.20000000E+00  1.50000000E+00  1.20000000E+00  1.20000000E+00
  1.50000000E+00  1.20000000E+00  1.20000000E+00  1.50000000E+00  1.20000000E+00
  1.20000000E+00  1.50000000E+00  1.20000000E+00  1.20000000E+00  1.50000000E+00
  1.20000000E+00  1.20000000E+00  1.50000000E+00  1.20000000E+00  1.20000000E+00
  1.50000000E+00  1.20000000E+00  1.20000000E+00  1.50000000E+00  1.20000000E+00
  1.20000000E+00  1.50000000E+00  1.20000000E+00  1.20000000E+00  1.50000000E+00
  1.20000000E+00  1.20000000E+00  1.50000000E+00  1.20000000E+00  1.20000000E+00
  1.50000000E+00  1.20000000E+00  1.20000000E+00  1.50000000E+00  1.20000000E+00
  1.20000000E+00  1.50000000E+00  1.20000000E+00  1.20000000E+00  1.50000000E+00
  1.20000000E+00  1.20000000E+00  1.50000000E+00  1.20000000E+00  1.20000000E+00
  1.50000000E+00  1.20000000E+00  1.20000000E+00  1.50000000E+00  1.20000000E+00
  1.20000000E+00  1.50000000E+00  1.20000000E+00  1.20000000E+00  1.50000000E+00
  1.20000000E+00  1.20000000E+00  1.50000000E+00  1.20000000E+00  1.20000000E+00
  1.50000000E+00  1.20000000E+00  1.20000000E+00  1.50000000E+00  1.20000000E+00
  1.20000000E+00  1.50000000E+00  1.20000000E+00  1.20000000E+00  1.50000000E+00
  1.20000000E+00  1.20000000E+00  1.50000000E+00  1.20000000E+00  1.20000000E+00
  1.50000000E+00  1.20000000E+00  1.20000000E+00  1.50000000E+00  1.20000000E+00
  1.20000000E+00  1.50000000E+00  1.20000000E+00  1.20000000E+00  1.50000000E+00
  1.20000000E+00  1.20000000E+00  1.50000000E+00  1.20000000E+00  1.20000000E+00
  1.50000000E+00  1.20000000E+00  1.20000000E+00  1.50000000E+00  1.20000000E+00
  1.20000000E+00  1.50000000E+00  1.20000000E+00  1.20000000E+00  1.50000000E+00
  1.20000000E+00  1.20000000E+00  1.50000000E+00  1.20000000E+00  1.20000000E+00
  1.50000000E+00  1.20000000E+00  1.20000000E+00  1.50000000E+00  1.20000000E+00
  1.20000000E+00  1.50000000E+00  1.20000000E+00  1.20000000E+00  1.50000000E+00
  1.20000000E+00  1.20000000E+00  1.50000000E+00  1.20000000E+00  1.20000000E+00
  1.50000000E+00  1.20000000E+00  1.20000000E+00  1.50000000E+00  1.20000000E+00
  1.20000000E+00  1.50000000E+00  1.20000000E+00  1.20000000E+00  1.50000000E+00
  1.20000000E+00  1.20000000E+00  1.50000000E+00  1.20000000E+00  1.20000000E+00
  1.50000000E+00  1.20000000E+00  1.20000000E+00  1.50000000E+00  1.20000000E+00
  1.20000000E+00  1.50000000E+00  1.20000000E+00  1.20000000E+00  1.50000000E+00
  1.20000000E+00  1.20000000E+00  1.50000000E+00  1.20000000E+00  1.20000000E+00
  1.50000000E+00  1.20000000E+00  1.20000000E+00  1.50000000E+00  1.20000000E+00
  1.20000000E+00  1.50000000E+00  1.20000000E+00  1.20000000E+00  1.50000000E+00
  1.20000000E+00  1.20000000E+00  1.50000000E+00  1.20000000E+00  1.20000000E+00
  1.50000000E+00  1.20000000E+00  1.20000000E+00  1.50000000E+00  1.20000000E+00
  1.20000000E+00  1.50000000E+00  1.20000000E+00  1.20000000E+00  1.50000000E+00
  1.20000000E+00  1.20000000E+00  1.50000000E+00  1.20000000E+00  1.20000000E+00
  1.50000000E+00  1.20000000E+00  1.20000000E+00  1.50000000E+00  1.20000000E+00
  1.20000000E+00  1.50000000E+00  1.20000000E+00  1.20000000E+00  1.50000000E+00
  1.20000000E+00  1.20000000E+00  1.50000000E+00  1.20000000E+00  1.20000000E+00
  1.50000000E+00  1.20000000E+00  1.20000000E+00  1.50000000E+00  1.20000000E+00
  1.20000000E+00  1.50000000E+00  1.20000000E+00  1.20000000E+00  1.50000000E+00
  1.20000000E+00  1.20000000E+00  1.50000000E+00  1.20000000E+00  1.20000000E+00
  1.50000000E+00  1.20000000E+00  1.20000000E+00  1.50000000E+00  1.20000000E+00
  1.20000000E+00  1.50000000E+00  1.20000000E+00  1.20000000E+00  1.50000000E+00
  1.20000000E+00  1.20000000E+00  1.50000000E+00  1.20000000E+00  1.20000000E+00
  1.50000000E+00  1.20000000E+00  1.20000000E+00  1.50000000E+00  1.20000000E+00
  1.20000000E+00  1.50000000E+00  1.20000000E+00  1.20000000E+00  1.50000000E+00
  1.20000000E+00  1.20000000E+00  1.50000000E+00  1.20000000E+00  1.20000000E+00
  1.50000000E+00  1.20000000E+00  1.20000000E+00  1.50000000E+00  1.20000000E+00
  1.20000000E+00  1.50000000E+00  1.20000000E+00  1.20000000E+00  1.50000000E+00
  1.20000000E+00  1.20000000E+00  1.50000000E+00  1.20000000E+00  1.20000000E+00
  1.50000000E+00  1.20000000E+00  1.20000000E+00  1.50000000E+00  1.20000000E+00
  1.20000000E+00  1.50000000E+00  1.20000000E+00  1.20000000E+00  1.50000000E+00
  1.20000000E+00  1.20000000E+00  1.50000000E+00  1.20000000E+00  1.20000000E+00
  1.50000000E+00  1.20000000E+00  1.20000000E+00  1.50000000E+00  1.20000000E+00
  1.20000000E+00  1.50000000E+00  1.20000000E+00  1.20000000E+00  1.50000000E+00
  1.20000000E+00  1.20000000E+00  1.50000000E+00  1.20000000E+00  1.20000000E+00
  1.50000000E+00  1.20000000E+00  1.20000000E+00  1.50000000E+00  1.20000000E+00
  1.20000000E+00  1.50000000E+00  1.20000000E+00  1.20000000E+00  1.50000000E+00
  1.20000000E+00  1.20000000E+00  1.50000000E+00  1.20000000E+00  1.20000000E+00
  1.50000000E+00  1.20000000E+00  1.20000000E+00  1.50000000E+00  1.20000000E+00
  1.20000000E+00  1.50000000E+00  1.20000000E+00  1.20000000E+00  1.50000000E+00
  1.20000000E+00  1.20000000E+00  1.50000000E+00  1.20000000E+00  1.20000000E+00
  1.50000000E+00  1.20000000E+00  1.20000000E+00  1.50000000E+00  1.20000000E+00
  1.20000000E+00  1.50000000E+00  1.20000000E+00  1.20000000E+00  1.50000000E+00
  1.20000000E+00  1.20000000E+00  1.50000000E+00  1.20000000E+00  1.20000000E+00
  1.50000000E+00  1.20000000E+00  1.20000000E+00  1.50000000E+00  1.20000000E+00
  1.20000000E+00  1.50000000E+00  1.20000000E+00  1.20000000E+00  1.50000000E+00
  1.20000000E+00  1.20000000E+00  1.50000000E+00  1.20000000E+00  1.20000000E+00
  1.50000000E+00  1.20000000E+00  1.20000000E+00  1.50000000E+00  1.20000000E+00
  1.20000000E+00  1.50000000E+00  1.20000000E+00  1.20000000E+00  1.50000000E+00
  1.20000000E+00  1.20000000E+00  1.50000000E+00  1.20000000E+00  1.20000000E+00
  1.50000000E+00  1.20000000E+00  1.20000000E+00  1.50000000E+00  1.20000000E+00
  1.20000000E+00  1.50000000E+00  1.20000000E+00  1.20000000E+00  1.50000000E+00
  1.20000000E+00  1.20000000E+00  1.50000000E+00  1.20000000E+00  1.20000000E+00
  1.50000000E+00  1.20000000E+00  1.20000000E+00  1.50000000E+00  1.20000000E+00
  1.20000000E+00  1.50000000E+00  1.20000000E+00  1.20000000E+00  1.50000000E+00
  1.20000000E+00  1.20000000E+00  1.50000000E+00  1.20000000E+00  1.20000000E+00
  1.50000000E+00  1.20000000E+00  1.20000000E+00  1.50000000E+00  1.20000000E+00
  1.20000000E+00  1.50000000E+00  1.20000000E+00  1.20000000E+00  1.50000000E+00
  1.20000000E+00  1.20000000E+00  1.50000000E+00  1.20000000E+00  1.20000000E+00
  1.50000000E+00  1.20000000E+00  1.20000000E+00  1.50000000E+00  1.20000000E+00
  1.20000000E+00  1.50000000E+00  1.20000000E+00  1.20000000E+00  1.50000000E+00
  1.20000000E+00  1.20000000E+00  1.50000000E+00  1.20000000E+00  1.20000000E+00
  1.50000000E+00  1.20000000E+00  1.20000000E+00  1.50000000E+00  1.20000000E+00
  1.20000000E+00  1.50000000E+00  1.20000000E+00  1.20000000E+00  1.50000000E+00
  1.20000000E+00  1.20000000E+00  1.50000000E+00  1.20000000E+00  1.20000000E+00
  1.50000000E+00  1.20000000E+00  1.20000000E+00  1.50000000E+00  1.20000000E+00
  1.20000000E+00  1.50000000E+00  1.20000000E+00  1.20000000E+00  1.50000000E+00
  1.20000000E+00  1.20000000E+00  1.50000000E+00  1.20000000E+00  1.20000000E+00
  1.50000000E+00  1.20000000E+00  1.20000000E+00  1.50000000E+00  1.20000000E+00
  1.20000000E+00  1.50000000E+00  1.20000000E+00  1.20000000E+00  1.50000000E+00
  1.20000000E+00  1.20000000E+00  1.50000000E+00  1.20000000E+00  1.20000000E+00
  1.50000000E+00  1.20000000E+00  1.20000000E+00  1.50000000E+00  1.20000000E+00
  1.20000000E+00  1.50000000E+00  1.20000000E+00  1.20000000E+00  1.50000000E+00
  1.20000000E+00  1.20000000E+00  1.50000000E+00  1.20000000E+00  1.20000000E+00
  1.50000000E+00  1.20000000E+00  1.20000000E+00  1.50000000E+00  1.20000000E+00
  1.20000000E+00  1.50000000E+00  1.20000000E+00  1.20000000E+00  1.50000000E+00
  1.20000000E+00  1.20000000E+00  1.50000000E+00  1.20000000E+00  1.20000000E+00
  1.50000000E+00  1.20000000E+00  1.20000000E+00  1.50000000E+00  1.20000000E+00
  1.20000000E+00  1.50000000E+00  1.20000000E+00  1.20000000E+00  1.50000000E+00
  1.20000000E+00  1.20000000E+00  1.50000000E+00  1.20000000E+00  1.20000000E+00
  1.50000000E+00  1.20000000E+00  1.20000000E+00  1.50000000E+00  1.20000000E+00
  1.20000000E+00  1.50000000E+00  1.20000000E+00  1.20000000E+00  1.50000000E+00
  1.20000000E+00  1.20000000E+00  1.50000000E+00  1.20000000E+00  1.20000000E+00
  1.50000000E+00  1.20000000E+00  1.20000000E+00  1.50000000E+00  1.20000000E+00
  1.20000000E+00  1.50000000E+00  1.20000000E+00  1.20000000E+00  1.50000000E+00
  1.20000000E+00  1.20000000E+00  1.50000000E+00  1.20000000E+00  1.20000000E+00
  1.50000000E+00  1.20000000E+00  1.20000000E+00  1.50000000E+00  1.20000000E+00
  1.20000000E+00  1.50000000E+00  1.20000000E+00  1.20000000E+00  1.50000000E+00
  1.20000000E+00  1.20000000E+00  1.50000000E+00  1.20000000E+00  1.20000000E+00
  1.50000000E+00  1.20000000E+00  1.20000000E+00  1.50000000E+00  1.20000000E+00
  1.20000000E+00  1.50000000E+00  1.20000000E+00  1.20000000E+00  1.50000000E+00
  1.20000000E+00  1.20000000E+00  1.50000000E+00  1.20000000E+00  1.20000000E+00
  1.50000000E+00  1.20000000E+00  1.20000000E+00  1.50000000E+00  1.20000000E+00
  1.20000000E+00  1.50000000E+00  1.20000000E+00  1.20000000E+00  1.50000000E+00
  1.20000000E+00  1.20000000E+00  1.50000000E+00  1.20000000E+00  1.20000000E+00
  1.50000000E+00  1.20000000E+00  1.20000000E+00  1.50000000E+00  1.20000000E+00
  1.20000000E+00  1.50000000E+00  1.20000000E+00  1.20000000E+00  1.50000000E+00
  1.20000000E+00  1.20000000E+00  1.50000000E+00  1.20000000E+00  1.20000000E+00
  1.50000000E+00  1.20000000E+00  1.20000000E+00  1.50000000E+00  1.20000000E+00
  1.20000000E+00  1.50000000E+00  1.20000000E+00  1.20000000E+00  1.50000000E+00
  1.20000000E+00  1.20000000E+00  1.50000000E+00  1.20000000E+00  1.20000000E+00
  1.50000000E+00  1.20000000E+00  1.20000000E+00  1.50000000E+00  1.20000000E+00
  1.20000000E+00  1.50000000E+00  1.20000000E+00  1.20000000E+00  1.50000000E+00
  1.20000000E+00  1.20000000E+00  1.50000000E+00  1.20000000E+00  1.20000000E+00
  1.50000000E+00  1.20000000E+00  1.20000000E+00  1.50000000E+00  1.20000000E+00
  1.20000000E+00  1.50000000E+00  1.20000000E+00  1.20000000E+00  1.50000000E+00
  1.20000000E+00  1.20000000E+00  1.50000000E+00  1.20000000E+00  1.20000000E+00
  1.50000000E+00  1.20000000E+00  1.20000000E+00  1.50000000E+00  1.20000000E+00
  1.20000000E+00  1.50000000E+00  1.20000000E+00  1.20000000E+00  1.50000000E+00
  1.20000000E+00  1.20000000E+00  1.50000000E+00  1.20000000E+00  1.20000000E+00
  1.50000000E+00  1.20000000E+00  1.20000000E+00  1.50000000E+00  1.20000000E+00
  1.20000000E+00  1.50000000E+00  1.20000000E+00  1.20000000E+00  1.50000000E+00
  1.20000000E+00  1.20000000E+00  1.50000000E+00  1.20000000E+00  1.20000000E+00
  1.50000000E+00  1.20000000E+00  1.20000000E+00  1.50000000E+00  1.20000000E+00
  1.20000000E+00  1.50000000E+00  1.20000000E+00  1.20000000E+00  1.50000000E+00
  1.20000000E+00  1.20000000E+00  1.50000000E+00  1.20000000E+00  1.20000000E+00
  1.50000000E+00  1.20000000E+00  1.20000000E+00  1.50000000E+00  1.20000000E+00
  1.20000000E+00  1.50000000E+00  1.20000000E+00  1.20000000E+00  1.50000000E+00
  1.20000000E+00  1.20000000E+00  1.50000000E+00  1.20000000E+00  1.20000000E+00
  1.50000000E+00  1.20000000E+00  1.20000000E+00  1.50000000E+00  1.20000000E+00
  1.20000000E+00  1.50000000E+00  1.20000000E+00  1.20000000E+00  1.50000000E+00
  1.20000000E+00  1.20000000E+00  1.50000000E+00  1.20000000E+00  1.20000000E+00
  1.50000000E+00  1.20000000E+00  1.20000000E+00  1.50000000E+00  1.20000000E+00
  1.20000000E+00  1.50000000E+00  1.20000000E+00  1.20000000E+00  1.50000000E+00
  1.20000000E+00  1.20000000E+00  1.50000000E+00  1.20000000E+00  1.20000000E+00
  1.50000000E+00  1.20000000E+00  1.20000000E+00  1.50000000E+00  1.20000000E+00
  1.20000000E+00  1.50000000E+00  1.20000000E+00  1.20000000E+00  1.50000000E+00
  1.20000000E+00  1.20000000E+00  1.50000000E+00  1.20000000E+00  1.20000000E+00
  1.50000000E+00  1.20000000E+00  1.20000000E+00  1.50000000E+00  1.20000000E+00
  1.20000000E+00  1.50000000E+00  1.20000000E+00  1.20000000E+00  1.50000000E+00
  1.20000000E+00  1.20000000E+00  1.50000000E+00  1.20000000E+00  1.20000000E+00
  1.50000000E+00  1.20000000E+00  1.20000000E+00  1.50000000E+00  1.20000000E+00
  1.20000000E+00  1.50000000E+00  1.20000000E+00  1.20000000E+00  1.50000000E+00
  1.20000000E+00  1.20000000E+00  1.50000000E+00  1.20000000E+00  1.20000000E+00
  1.50000000E+00  1.20000000E+00  1.20000000E+00  1.50000000E+00  1.20000000E+00
  1.20000000E+00  1.50000000E+00  1.20000000E+00  1.20000000E+00  1.50000000E+00
  1.20000000E+00  1.20000000E+00  1.50000000E+00  1.20000000E+00  1.20000000E+00
  1.50000000E+00  1.20000000E+00  1.20000000E+00  1.50000000E+00  1.20000000E+00
  1.20000000E+00  1.50000000E+00  1.20000000E+00  1.20000000E+00  1.50000000E+00
  1.20000000E+00  1.20000000E+00  1.50000000E+00  1.20000000E+00  1.20000000E+00
  1.50000000E+00  1.20000000E+00  1.20000000E+00  1.50000000E+00  1.20000000E+00
  1.20000000E+00  1.50000000E+00  1.20000000E+00  1.20000000E+00  1.50000000E+00
  1.20000000E+00  1.20000000E+00  1.50000000E+00  1.20000000E+00  1.20000000E+00
  1.50000000E+00  1.20000000E+00  1.20000000E+00  1.50000000E+00  1.20000000E+00
  1.20000000E+00  1.50000000E+00  1.20000000E+00  1.20000000E+00  1.50000000E+00
  1.20000000E+00  1.20000000E+00  1.50000000E+00  1.20000000E+00  1.20000000E+00
  1.50000000E+00  1.20000000E+00  1.20000000E+00  1.50000000E+00  1.20000000E+00
  1.20000000E+00  1.50000000E+00  1.20000000E+00  1.20000000E+00  1.50000000E+00
  1.20000000E+00  1.20000000E+00  1.50000000E+00  1.20000000E+00  1.20000000E+00
  1.50000000E+00  1.20000000E+00  1.20000000E+00  1.50000000E+00  1.20000000E+00
  1.20000000E+00  1.50000000E+00  1.20000000E+00  1.20000000E+00  1.50000000E+00
  1.20000000E+00  1.20000000E+00  1.50000000E+00  1.20000000E+00  1.20000000E+00
  1.50000000E+00  1.20000000E+00  1.20000000E+00  1.50000000E+00  1.20000000E+00
  1.20000000E+00  1.50000000E+00  1.20000000E+00  1.20000000E+00  1.50000000E+00
  1.20000000E+00  1.20000000E+00  1.50000000E+00  1.20000000E+00  1.20000000E+00
  1.50000000E+00  1.20000000E+00  1.20000000E+00  1.50000000E+00  1.20000000E+00
  1.20000000E+00  1.50000000E+00  1.20000000E+00  1.20000000E+00  1.50000000E+00
  1.20000000E+00  1.20000000E+00  1.50000000E+00  1.20000000E+00  1.20000000E+00
  1.50000000E+00  1.20000000E+00  1.20000000E+00  1.50000000E+00  1.20000000E+00
  1.20000000E+00  1.50000000E+00  1.20000000E+00  1.20000000E+00  1.50000000E+00
  1.20000000E+00  1.20000000E+00  1.50000000E+00  1.20000000E+00  1.20000000E+00
  1.50000000E+00  1.20000000E+00  1.20000000E+00  1.50000000E+00  1.20000000E+00
  1.20000000E+00  1.50000000E+00  1.20000000E+00  1.20000000E+00  1.50000000E+00
  1.20000000E+00  1.20000000E+00  1.50000000E+00  1.20000000E+00  1.20000000E+00
  1.50000000E+00  1.20000000E+00  1.20000000E+00  1.50000000E+00  1.20000000E+00
  1.20000000E+00  1.50000000E+00  1.20000000E+00  1.20000000E+00  1.50000000E+00
  1.20000000E+00  1.20000000E+00  1.50000000E+00  1.20000000E+00  1.20000000E+00
  1.50000000E+00  1.20000000E+00  1.20000000E+00  1.50000000E+00  1.20000000E+00
  1.20000000E+00  1.50000000E+00  1.20000000E+00  1.20000000E+00  1.50000000E+00
  1.20000000E+00  1.20000000E+00  1.50000000E+00  1.20000000E+00  1.20000000E+00
  1.50000000E+00  1.20000000E+00  1.20000000E+00  1.50000000E+00  1.20000000E+00
  1.20000000E+00  1.50000000E+00  1.20000000E+00  1.20000000E+00  1.50000000E+00
  1.20000000E+00  1.20000000E+00  1.50000000E+00  1.20000000E+00  1.20000000E+00
  1.50000000E+00  1.20000000E+00  1.20000000E+00  1.50000000E+00  1.20000000E+00
  1.20000000E+00  1.50000000E+00  1.20000000E+00  1.20000000E+00  1.50000000E+00
  1.20000000E+00  1.20000000E+00  1.50000000E+00  1.20000000E+00  1.20000000E+00
  1.50000000E+00  1.20000000E+00  1.20000000E+00  1.50000000E+00  1.20000000E+00
  1.20000000E+00  1.50000000E+00  1.20000000E+00  1.20000000E+00  1.50000000E+00
  1.20000000E+00  1.20000000E+00  1.50000000E+00  1.20000000E+00  1.20000000E+00
  1.50000000E+00  1.20000000E+00  1.20000000E+00  1.50000000E+00  1.20000000E+00
  1.20000000E+00  1.50000000E+00  1.20000000E+00  1.20000000E+00  1.50000000E+00
  1.20000000E+00  1.20000000E+00  1.50000000E+00  1.20000000E+00  1.20000000E+00
  1.50000000E+00  1.20000000E+00  1.20000000E+00  1.50000000E+00  1.20000000E+00
  1.20000000E+00  1.50000000E+00  1.20000000E+00  1.20000000E+00  1.50000000E+00
  1.20000000E+00  1.20000000E+00  1.50000000E+00  1.20000000E+00  1.20000000E+00
  1.50000000E+00  1.20000000E+00  1.20000000E+00  1.50000000E+00  1.20000000E+00
  1.20000000E+00  1.50000000E+00  1.20000000E+00  1.20000000E+00  1.50000000E+00
  1.20000000E+00  1.20000000E+00  1.50000000E+00  1.20000000E+00  1.20000000E+00
  1.50000000E+00  1.20000000E+00  1.20000000E+00  1.50000000E+00  1.20000000E+00
  1.20000000E+00  1.50000000E+00  1.20000000E+00  1.20000000E+00  1.50000000E+00
  1.20000000E+00  1.20000000E+00  1.50000000E+00  1.20000000E+00  1.20000000E+00
  1.50000000E+00  1.20000000E+00  1.20000000E+00  1.50000000E+00  1.20000000E+00
  1.20000000E+00  1.50000000E+00  1.20000000E+00  1.20000000E+00  1.50000000E+00
  1.20000000E+00  1.20000000E+00  1.50000000E+00  1.20000000E+00  1.20000000E+00
  1.50000000E+00  1.20000000E+00  1.20000000E+00  1.50000000E+00  1.20000000E+00
  1.20000000E+00  1.50000000E+00  1.20000000E+00  1.20000000E+00  1.50000000E+00
  1.20000000E+00  1.20000000E+00  1.50000000E+00  1.20000000E+00  1.20000000E+00
  1.50000000E+00  1.20000000E+00  1.20000000E+00  1.50000000E+00  1.20000000E+00
  1.20000000E+00  1.50000000E+00  1.20000000E+00  1.20000000E+00  1.50000000E+00
  1.20000000E+00  1.20000000E+00  1.50000000E+00  1.20000000E+00  1.20000000E+00
  1.50000000E+00  1.20000000E+00  1.20000000E+00  1.50000000E+00  1.20000000E+00
  1.20000000E+00  1.50000000E+00  1.20000000E+00  1.20000000E+00  1.50000000E+00
  1.20000000E+00  1.20000000E+00  1.50000000E+00  1.20000000E+00  1.20000000E+00
  1.50000000E+00  1.20000000E+00  1.20000000E+00  1.50000000E+00  1.20000000E+00
  1.20000000E+00  1.50000000E+00  1.20000000E+00  1.20000000E+00  1.50000000E+00
  1.20000000E+00  1.20000000E+00  1.50000000E+00  1.20000000E+00  1.20000000E+00
  1.50000000E+00  1.20000000E+00  1.20000000E+00  1.50000000E+00  1.20000000E+00
  1.20000000E+00  1.50000000E+00  1.20000000E+00  1.20000000E+00  1.50000000E+00
  1.20000000E+00  1.20000000E+00  1.50000000E+00  1.20000000E+00  1.20000000E+00
  1.50000000E+00  1.20000000E+00  1.20000000E+00  1.50000000E+00  1.20000000E+00
  1.20000000E+00  1.50000000E+00  1.20000000E+00  1.20000000E+00  1.50000000E+00
  1.20000000E+00  1.20000000E+00  1.50000000E+00  1.20000000E+00  1.20000000E+00
  1.50000000E+00  1.20000000E+00  1.20000000E+00  1.50000000E+00  1.20000000E+00
  1.20000000E+00  1.50000000E+00  1.20000000E+00  1.20000000E+00  1.50000000E+00
  1.20000000E+00  1.20000000E+00  1.50000000E+00  1.20000000E+00  1.20000000E+00
  1.50000000E+00  1.20000000E+00  1.20000000E+00  1.50000000E+00  1.20000000E+00
  1.20000000E+00  1.50000000E+00  1.20000000E+00  1.20000000E+00  1.50000000E+00
  1.20000000E+00  1.20000000E+00  1.50000000E+00  1.20000000E+00  1.20000000E+00
  1.50000000E+00  1.20000000E+00  1.20000000E+00  1.50000000E+00  1.20000000E+00
  1.20000000E+00  1.50000000E+00  1.20000000E+00  1.20000000E+00  1.50000000E+00
  1.20000000E+00  1.20000000E+00  1.50000000E+00  1.20000000E+00  1.20000000E+00
  1.50000000E+00  1.20000000E+00  1.20000000E+00  1.50000000E+00  1.20000000E+00
  1.20000000E+00  1.50000000E+00  1.20000000E+00  1.20000000E+00  1.50000000E+00
  1.20000000E+00  1.20000000E+00  1.50000000E+00  1.20000000E+00  1.20000000E+00
  1.50000000E+00  1.20000000E+00  1.20000000E+00  1.50000000E+00  1.20000000E+00
  1.20000000E+00  1.50000000E+00  1.20000000E+00  1.20000000E+00  1.50000000E+00
  1.20000000E+00  1.20000000E+00  1.50000000E+00  1.20000000E+00  1.20000000E+00
  1.50000000E+00  1.20000000E+00  1.20000000E+00  1.50000000E+00  1.20000000E+00
  1.20000000E+00  1.50000000E+00  1.20000000E+00  1.20000000E+00  1.50000000E+00
  1.20000000E+00  1.20000000E+00  1.50000000E+00  1.20000000E+00  1.20000000E+00
  1.50000000E+00  1.20000000E+00  1.20000000E+00  1.50000000E+00  1.20000000E+00
  1.20000000E+00  1.50000000E+00  1.20000000E+00  1.20000000E+00  1.50000000E+00
  1.20000000E+00  1.20000000E+00  1.50000000E+00  1.20000000E+00  1.20000000E+00
  1.50000000E+00  1.20000000E+00  1.20000000E+00  1.50000000E+00  1.20000000E+00
  1.20000000E+00  1.50000000E+00  1.20000000E+00  1.20000000E+00  1.50000000E+00
  1.20000000E+00  1.20000000E+00  1.50000000E+00  1.20000000E+00  1.20000000E+00
  1.50000000E+00  1.20000000E+00  1.20000000E+00  1.50000000E+00  1.20000000E+00
  1.20000000E+00  1.50000000E+00  1.20000000E+00  1.20000000E+00  1.50000000E+00
  1.20000000E+00  1.20000000E+00  1.50000000E+00  1.20000000E+00  1.20000000E+00
  1.50000000E+00  1.20000000E+00  1.20000000E+00  1.50000000E+00  1.20000000E+00
  1.20000000E+00  1.50000000E+00  1.20000000E+00  1.20000000E+00  1.50000000E+00
  1.20000000E+00  1.20000000E+00  1.50000000E+00  1.20000000E+00  1.20000000E+00
  1.50000000E+00  1.20000000E+00  1.20000000E+00  1.50000000E+00  1.20000000E+00
  1.20000000E+00  1.50000000E+00  1.20000000E+00  1.20000000E+00  1.50000000E+00
  1.20000000E+00  1.20000000E+00  1.50000000E+00  1.20000000E+00  1.20000000E+00
  1.50000000E+00  1.20000000E+00  1.20000000E+00  1.50000000E+00  1.20000000E+00
  1.20000000E+00  1.50000000E+00  1.20000000E+00  1.20000000E+00  1.50000000E+00
  1.20000000E+00  1.20000000E+00  1.50000000E+00  1.20000000E+00  1.20000000E+00
  1.50000000E+00  1.20000000E+00  1.20000000E+00  1.50000000E+00  1.20000000E+00
  1.20000000E+00  1.50000000E+00  1.20000000E+00  1.20000000E+00  1.50000000E+00
  1.20000000E+00  1.20000000E+00  1.50000000E+00  1.20000000E+00  1.20000000E+00
  1.50000000E+00  1.20000000E+00  1.20000000E+00  1.50000000E+00  1.20000000E+00
  1.20000000E+00  1.50000000E+00  1.20000000E+00  1.20000000E+00  1.50000000E+00
  1.20000000E+00  1.20000000E+00  1.50000000E+00  1.20000000E+00  1.20000000E+00
  1.50000000E+00  1.20000000E+00  1.20000000E+00  1.50000000E+00  1.20000000E+00
  1.20000000E+00  1.50000000E+00  1.20000000E+00  1.20000000E+00  1.50000000E+00
  1.20000000E+00  1.20000000E+00  1.50000000E+00  1.20000000E+00  1.20000000E+00
  1.50000000E+00  1.20000000E+00  1.20000000E+00  1.50000000E+00  1.20000000E+00
  1.20000000E+00  1.50000000E+00  1.20000000E+00  1.20000000E+00  1.50000000E+00
  1.20000000E+00  1.20000000E+00  1.50000000E+00  1.20000000E+00  1.20000000E+00
  1.50000000E+00  1.20000000E+00  1.20000000E+00  1.50000000E+00  1.20000000E+00
  1.20000000E+00  1.50000000E+00  1.20000000E+00  1.20000000E+00  1.50000000E+00
  1.20000000E+00  1.20000000E+00  1.50000000E+00  1.20000000E+00  1.20000000E+00
  1.50000000E+00  1.20000000E+00  1.20000000E+00  1.50000000E+00  1.20000000E+00
  1.20000000E+00  1.50000000E+00  1.20000000E+00  1.20000000E+00  1.50000000E+00
  1.20000000E+00  1.20000000E+00  1.50000000E+00  1.20000000E+00  1.20000000E+00
  1.50000000E+00  1.20000000E+00  1.20000000E+00  1.50000000E+00  1.20000000E+00
  1.20000000E+00  1.50000000E+00  1.20000000E+00  1.20000000E+00  1.50000000E+00
  1.20000000E+00  1.20000000E+00  1.50000000E+00  1.20000000E+00  1.20000000E+00
  1.50000000E+00  1.20000000E+00  1.20000000E+00  1.50000000E+00  1.20000000E+00
  1.20000000E+00  1.50000000E+00  1.20000000E+00  1.20000000E+00  1.50000000E+00
  1.20000000E+00  1.20000000E+00  1.50000000E+00  1.20000000E+00  1.20000000E+00
  1.50000000E+00  1.20000000E+00  1.20000000E+00  1.50000000E+00  1.20000000E+00
  1.20000000E+00  1.50000000E+00  1.20000000E+00  1.20000000E+00  1.50000000E+00
  1.20000000E+00  1.20000000E+00  1.50000000E+00  1.20000000E+00  1.20000000E+00
  1.50000000E+00  1.20000000E+00  1.20000000E+00  1.50000000E+00  1.20000000E+00
  1.20000000E+00  1.50000000E+00  1.20000000E+00  1.20000000E+00  1.50000000E+00
  1.20000000E+00  1.20000000E+00  1.50000000E+00  1.20000000E+00  1.20000000E+00
  1.50000000E+00  1.20000000E+00  1.20000000E+00  1.50000000E+00  1.20000000E+00
  1.20000000E+00  1.50000000E+00  1.20000000E+00  1.20000000E+00  1.50000000E+00
  1.20000000E+00  1.20000000E+00  1.50000000E+00  1.20000000E+00  1.20000000E+00
  1.50000000E+00  1.20000000E+00  1.20000000E+00  1.50000000E+00  1.20000000E+00
  1.20000000E+00  1.50000000E+00  1.20000000E+00  1.20000000E+00  1.50000000E+00
  1.20000000E+00  1.20000000E+00  1.50000000E+00  1.20000000E+00  1.20000000E+00
  1.50000000E+00  1.20000000E+00  1.20000000E+00  1.50000000E+00  1.20000000E+00
  1.20000000E+00  1.50000000E+00  1.20000000E+00  1.20000000E+00  1.50000000E+00
  1.20000000E+00  1.20000000E+00  1.50000000E+00  1.20000000E+00  1.20000000E+00
  1.50000000E+00  1.20000000E+00  1.20000000E+00  1.50000000E+00  1.20000000E+00
  1.20000000E+00  1.50000000E+00  1.20000000E+00  1.20000000E+00  1.50000000E+00
  1.20000000E+00  1.20000000E+00  1.50000000E+00  1.20000000E+00  1.20000000E+00
  1.50000000E+00  1.20000000E+00  1.20000000E+00  1.50000000E+00  1.20000000E+00
  1.20000000E+00  1.50000000E+00  1.20000000E+00  1.20000000E+00  1.50000000E+00
  1.20000000E+00  1.20000000E+00  1.50000000E+00  1.20000000E+00  1.20000000E+00
  1.50000000E+00  1.20000000E+00  1.20000000E+00  1.50000000E+00  1.20000000E+00
  1.20000000E+00  1.50000000E+00  1.20000000E+00  1.20000000E+00  1.50000000E+00
  1.20000000E+00  1.20000000E+00  1.50000000E+00  1.20000000E+00  1.20000000E+00
  1.50000000E+00  1.20000000E+00  1.20000000E+00  1.50000000E+00  1.20000000E+00
  1.20000000E+00  1.50000000E+00  1.20000000E+00  1.20000000E+00  1.50000000E+00
  1.20000000E+00  1.20000000E+00  1.50000000E+00  1.20000000E+00  1.20000000E+00
  1.50000000E+00  1.20000000E+00  1.20000000E+00  1.50000000E+00  1.20000000E+00
  1.20000000E+00  1.50000000E+00  1.20000000E+00  1.20000000E+00  1.50000000E+00
  1.20000000E+00  1.20000000E+00  1.50000000E+00  1.20000000E+00  1.20000000E+00
  1.50000000E+00  1.20000000E+00  1.20000000E+00  1.50000000E+00  1.20000000E+00
  1.20000000E+00  1.50000000E+00  1.20000000E+00  1.20000000E+00  1.50000000E+00
  1.20000000E+00  1.20000000E+00  1.50000000E+00  1.20000000E+00  1.20000000E+00
  1.50000000E+00  1.20000000E+00  1.20000000E+00  1.50000000E+00  1.20000000E+00
  1.20000000E+00  1.50000000E+00  1.20000000E+00  1.20000000E+00  1.50000000E+00
  1.20000000E+00  1.20000000E+00  1.50000000E+00  1.20000000E+00  1.20000000E+00
  1.50000000E+00  1.20000000E+00  1.20000000E+00  1.50000000E+00  1.20000000E+00
  1.20000000E+00  1.50000000E+00  1.20000000E+00  1.20000000E+00  1.50000000E+00
  1.20000000E+00  1.20000000E+00  1.50000000E+00  1.20000000E+00  1.20000000E+00
  1.50000000E+00  1.20000000E+00  1.20000000E+00  1.50000000E+00  1.20000000E+00
  1.20000000E+00  1.50000000E+00  1.20000000E+00  1.20000000E+00  1.50000000E+00
  1.20000000E+00  1.20000000E+00  1.50000000E+00  1.20000000E+00  1.20000000E+00
  1.50000000E+00  1.20000000E+00  1.20000000E+00  1.50000000E+00  1.20000000E+00
  1.20000000E+00  1.50000000E+00  1.20000000E+00  1.20000000E+00  1.50000000E+00
  1.20000000E+00  1.20000000E+00  1.50000000E+00  1.20000000E+00  1.20000000E+00
  1.50000000E+00  1.20000000E+00  1.20000000E+00  1.50000000E+00  1.20000000E+00
  1.20000000E+00  1.50000000E+00  1.20000000E+00  1.20000000E+00  1.50000000E+00
  1.20000000E+00  1.20000000E+00  1.50000000E+00  1.20000000E+00  1.20000000E+00
  1.50000000E+00  1.20000000E+00  1.20000000E+00  1.50000000E+00  1.20000000E+00
  1.20000000E+00  1.50000000E+00  1.20000000E+00  1.20000000E+00  1.50000000E+00
  1.20000000E+00  1.20000000E+00  1.50000000E+00  1.20000000E+00  1.20000000E+00
  1.50000000E+00  1.20000000E+00  1.20000000E+00  1.50000000E+00  1.20000000E+00
  1.20000000E+00  1.50000000E+00  1.20000000E+00  1.20000000E+00  1.50000000E+00
  1.20000000E+00  1.20000000E+00  1.50000000E+00  1.20000000E+00  1.20000000E+00
  1.50000000E+00  1.20000000E+00  1.20000000E+00  1.50000000E+00  1.20000000E+00
  1.20000000E+00  1.50000000E+00  1.20000000E+00  1.20000000E+00  1.50000000E+00
  1.20000000E+00  1.20000000E+00  1.50000000E+00  1.20000000E+00  1.20000000E+00
  1.50000000E+00  1.20000000E+00  1.20000000E+00  1.50000000E+00  1.20000000E+00
  1.20000000E+00  1.50000000E+00  1.20000000E+00  1.20000000E+00  1.50000000E+00
  1.20000000E+00  1.20000000E+00  1.50000000E+00  1.20000000E+00  1.20000000E+00
  1.50000000E+00  1.20000000E+00  1.20000000E+00  1.50000000E+00  1.20000000E+00
  1.20000000E+00  1.50000000E+00  1.20000000E+00  1.20000000E+00  1.50000000E+00
  1.20000000E+00  1.20000000E+00  1.50000000E+00  1.20000000E+00  1.20000000E+00
  1.50000000E+00  1.20000000E+00  1.20000000E+00  1.50000000E+00  1.20000000E+00
  1.20000000E+00  1.50000000E+00  1.20000000E+00  1.20000000E+00  1.50000000E+00
  1.20000000E+00  1.20000000E+00  1.50000000E+00  1.20000000E+00  1.20000000E+00
  1.50000000E+00  1.20000000E+00  1.20000000E+00  1.50000000E+00  1.20000000E+00
  1.20000000E+00  1.50000000E+00  1.20000000E+00  1.20000000E+00  1.50000000E+00
  1.20000000E+00  1.20000000E+00  1.50000000E+00  1.20000000E+00  1.20000000E+00
  1.50000000E+00  1.20000000E+00  1.20000000E+00  1.50000000E+00  1.20000000E+00
  1.20000000E+00  1.50000000E+00  1.20000000E+00  1.20000000E+00  1.50000000E+00
  1.20000000E+00  1.20000000E+00  1.50000000E+00  1.20000000E+00  1.20000000E+00
  1.50000000E+00  1.20000000E+00  1.20000000E+00  1.50000000E+00  1.20000000E+00
  1.20000000E+00  1.50000000E+00  1.20000000E+00  1.20000000E+00  1.50000000E+00
  1.20000000E+00  1.20000000E+00  1.50000000E+00  1.20000000E+00  1.20000000E+00
  1.50000000E+00  1.20000000E+00  1.20000000E+00  1.50000000E+00  1.20000000E+00
  1.20000000E+00  1.50000000E+00  1.20000000E+00  1.20000000E+00  1.50000000E+00
  1.20000000E+00  1.20000000E+00  1.50000000E+00  1.20000000E+00  1.20000000E+00
  1.50000000E+00  1.20000000E+00  1.20000000E+00  1.50000000E+00  1.20000000E+00
  1.20000000E+00  1.50000000E+00  1.20000000E+00  1.20000000E+00  1.50000000E+00
  1.20000000E+00  1.20000000E+00  1.50000000E+00  1.20000000E+00  1.20000000E+00
  1.50000000E+00  1.20000000E+00  1.20000000E+00  1.50000000E+00  1.20000000E+00
  1.20000000E+00  1.50000000E+00  1.20000000E+00  1.20000000E+00  1.50000000E+00
  1.20000000E+00  1.20000000E+00  1.50000000E+00  1.20000000E+00  1.20000000E+00
  1.50000000E+00  1.20000000E+00  1.20000000E+00  1.50000000E+00  1.20000000E+00
  1.20000000E+00  1.50000000E+00  1.20000000E+00  1.20000000E+00  1.50000000E+00
  1.20000000E+00  1.20000000E+00  1.50000000E+00  1.20000000E+00  1.20000000E+00
  1.50000000E+00  1.20000000E+00  1.20000000E+00  1.50000000E+00  1.20000000E+00
  1.20000000E+00  1.50000000E+00  1.20000000E+00  1.20000000E+00  1.50000000E+00
  1.20000000E+00  1.20000000E+00  1.50000000E+00  1.20000000E+00  1.20000000E+00
  1.50000000E+00  1.20000000E+00  1.20000000E+00  1.50000000E+00  1.20000000E+00
  1.20000000E+00  1.50000000E+00  1.20000000E+00  1.20000000E+00  1.50000000E+00
  1.20000000E+00  1.20000000E+00  1.50000000E+00  1.20000000E+00  1.20000000E+00
  1.50000000E+00  1.20000000E+00  1.20000000E+00  1.50000000E+00  1.20000000E+00
  1.20000000E+00  1.50000000E+00  1.20000000E+00  1.20000000E+00  1.50000000E+00
  1.20000000E+00  1.20000000E+00  1.50000000E+00  1.20000000E+00  1.20000000E+00
  1.50000000E+00  1.20000000E+00  1.20000000E+00  1.50000000E+00  1.20000000E+00
  1.20000000E+00  1.50000000E+00  1.20000000E+00  1.20000000E+00  1.50000000E+00
  1.20000000E+00  1.20000000E+00  1.50000000E+00  1.20000000E+00  1.20000000E+00
  1.50000000E+00  1.20000000E+00  1.20000000E+00  1.50000000E+00  1.20000000E+00
  1.20000000E+00  1.50000000E+00  1.20000000E+00  1.20000000E+00  1.50000000E+00
  1.20000000E+00  1.20000000E+00  1.50000000E+00  1.20000000E+00  1.20000000E+00
  1.50000000E+00  1.20000000E+00  1.20000000E+00  1.50000000E+00  1.20000000E+00
  1.20000000E+00  1.50000000E+00  1.20000000E+00  1.20000000E+00  1.50000000E+00
  1.20000000E+00  1.20000000E+00  1.50000000E+00  1.20000000E+00  1.20000000E+00
  1.50000000E+00  1.20000000E+00  1.20000000E+00  1.50000000E+00  1.20000000E+00
  1.20000000E+00  1.50000000E+00  1.20000000E+00  1.20000000E+00  1.50000000E+00
  1.20000000E+00  1.20000000E+00  1.50000000E+00  1.20000000E+00  1.20000000E+00
  1.50000000E+00  1.20000000E+00  1.20000000E+00  1.50000000E+00  1.20000000E+00
  1.20000000E+00  1.50000000E+00  1.20000000E+00  1.20000000E+00  1.50000000E+00
  1.20000000E+00  1.20000000E+00  1.50000000E+00  1.20000000E+00  1.20000000E+00
  1.50000000E+00  1.20000000E+00  1.20000000E+00  1.50000000E+00  1.20000000E+00
  1.20000000E+00  1.50000000E+00  1.20000000E+00  1.20000000E+00  1.50000000E+00
  1.20000000E+00  1.20000000E+00  1.50000000E+00  1.20000000E+00  1.20000000E+00
  1.50000000E+00  1.20000000E+00  1.20000000E+00  1.50000000E+00  1.20000000E+00
  1.20000000E+00  1.50000000E+00  1.20000000E+00  1.20000000E+00  1.50000000E+00
  1.20000000E+00  1.20000000E+00  1.50000000E+00  1.20000000E+00  1.20000000E+00
  1.50000000E+00  1.20000000E+00  1.20000000E+00  1.50000000E+00  1.20000000E+00
  1.20000000E+00  1.50000000E+00  1.20000000E+00  1.20000000E+00  1.50000000E+00
  1.20000000E+00  1.20000000E+00  1.50000000E+00  1.20000000E+00  1.20000000E+00
  1.50000000E+00  1.20000000E+00  1.20000000E+00  1.50000000E+00  1.20000000E+00
  1.20000000E+00  1.50000000E+00  1.20000000E+00  1.20000000E+00  1.50000000E+00
  1.20000000E+00  1.20000000E+00  1.50000000E+00  1.20000000E+00  1.20000000E+00
  1.50000000E+00  1.20000000E+00  1.20000000E+00  1.50000000E+00  1.20000000E+00
  1.20000000E+00  1.50000000E+00  1.20000000E+00  1.20000000E+00  1.50000000E+00
  1.20000000E+00  1.20000000E+00  1.50000000E+00  1.20000000E+00  1.20000000E+00
  1.50000000E+00  1.20000000E+00  1.20000000E+00  1.50000000E+00  1.20000000E+00
  1.20000000E+00  1.50000000E+00  1.20000000E+00  1.20000000E+00  1.50000000E+00
  1.20000000E+00  1.20000000E+00  1.50000000E+00  1.20000000E+00  1.20000000E+00
  1.50000000E+00  1.20000000E+00  1.20000000E+00  1.50000000E+00  1.20000000E+00
  1.20000000E+00  1.50000000E+00  1.20000000E+00  1.20000000E+00  1.50000000E+00
  1.20000000E+00  1.20000000E+00  1.50000000E+00  1.20000000E+00  1.20000000E+00
  1.50000000E+00  1.20000000E+00  1.20000000E+00  1.50000000E+00  1.20000000E+00
  1.20000000E+00  1.50000000E+00  1.20000000E+00  1.20000000E+00  1.50000000E+00
  1.20000000E+00  1.20000000E+00  1.50000000E+00  1.20000000E+00  1.20000000E+00
  1.50000000E+00  1.20000000E+00  1.20000000E+00  1.50000000E+00  1.20000000E+00
  1.20000000E+00  1.50000000E+00  1.20000000E+00  1.20000000E+00  1.50000000E+00
  1.20000000E+00  1.20000000E+00  1.50000000E+00  1.20000000E+00  1.20000000E+00
  1.50000000E+00  1.20000000E+00  1.20000000E+00  1.50000000E+00  1.20000000E+00
  1.20000000E+00  1.50000000E+00  1.20000000E+00  1.20000000E+00  1.50000000E+00
  1.20000000E+00  1.20000000E+00  1.50000000E+00  1.20000000E+00  1.20000000E+00
  1.50000000E+00  1.20000000E+00  1.20000000E+00  1.50000000E+00  1.20000000E+00
  1.20000000E+00  1.50000000E+00  1.20000000E+00  1.20000000E+00  1.50000000E+00
  1.20000000E+00  1.20000000E+00  1.50000000E+00  1.20000000E+00  1.20000000E+00
  1.50000000E+00  1.20000000E+00  1.20000000E+00  1.50000000E+00  1.20000000E+00
  1.20000000E+00  1.50000000E+00  1.20000000E+00  1.20000000E+00  1.50000000E+00
  1.20000000E+00  1.20000000E+00  1.50000000E+00  1.20000000E+00  1.20000000E+00
  1.50000000E+00  1.20000000E+00  1.20000000E+00  1.50000000E+00  1.20000000E+00
  1.20000000E+00  1.50000000E+00  1.20000000E+00  1.20000000E+00  1.50000000E+00
  1.20000000E+00  1.20000000E+00  1.50000000E+00  1.20000000E+00  1.20000000E+00
  1.50000000E+00  1.20000000E+00  1.20000000E+00  1.50000000E+00  1.20000000E+00
  1.20000000E+00  1.50000000E+00  1.20000000E+00  1.20000000E+00  1.50000000E+00
  1.20000000E+00  1.20000000E+00  1.50000000E+00  1.20000000E+00  1.20000000E+00
  1.50000000E+00  1.20000000E+00  1.20000000E+00  1.50000000E+00  1.20000000E+00
  1.20000000E+00  1.50000000E+00  1.20000000E+00  1.20000000E+00  1.50000000E+00
  1.20000000E+00  1.20000000E+00  1.50000000E+00  1.20000000E+00  1.20000000E+00
  1.50000000E+00  1.20000000E+00  1.20000000E+00  1.50000000E+00  1.20000000E+00
  1.20000000E+00  1.50000000E+00  1.20000000E+00  1.20000000E+00  1.50000000E+00
  1.20000000E+00  1.20000000E+00  1.50000000E+00  1.20000000E+00  1.20000000E+00
  1.50000000E+00  1.20000000E+00  1.20000000E+00  1.50000000E+00  1.20000000E+00
  1.20000000E+00  1.50000000E+00  1.20000000E+00  1.20000000E+00  1.50000000E+00
  1.20000000E+00  1.20000000E+00  1.50000000E+00  1.20000000E+00  1.20000000E+00
  1.50000000E+00  1.20000000E+00  1.20000000E+00  1.50000000E+00  1.20000000E+00
  1.20000000E+00  1.50000000E+00  1.20000000E+00  1.20000000E+00  1.50000000E+00
  1.20000000E+00  1.20000000E+00  1.50000000E+00  1.20000000E+00  1.20000000E+00
  1.50000000E+00  1.20000000E+00  1.20000000E+00  1.50000000E+00  1.20000000E+00
  1.20000000E+00  1.50000000E+00  1.20000000E+00  1.20000000E+00  1.50000000E+00
  1.20000000E+00  1.20000000E+00  1.50000000E+00  1.20000000E+00  1.20000000E+00
  1.50000000E+00  1.20000000E+00  1.20000000E+00  1.50000000E+00  1.20000000E+00
  1.20000000E+00  1.50000000E+00  1.20000000E+00  1.20000000E+00  1.50000000E+00
  1.20000000E+00  1.20000000E+00  1.50000000E+00  1.20000000E+00  1.20000000E+00
  1.50000000E+00  1.20000000E+00  1.20000000E+00  1.50000000E+00  1.20000000E+00
  1.20000000E+00  1.50000000E+00  1.20000000E+00  1.20000000E+00  1.50000000E+00
  1.20000000E+00  1.20000000E+00  1.50000000E+00  1.20000000E+00  1.20000000E+00
  1.50000000E+00  1.20000000E+00  1.20000000E+00  1.50000000E+00  1.20000000E+00
  1.20000000E+00  1.50000000E+00  1.20000000E+00  1.20000000E+00  1.50000000E+00
  1.20000000E+00  1.20000000E+00  1.50000000E+00  1.20000000E+00  1.20000000E+00
  1.50000000E+00  1.20000000E+00  1.20000000E+00  1.50000000E+00  1.20000000E+00
  1.20000000E+00  1.50000000E+00  1.20000000E+00  1.20000000E+00  1.50000000E+00
  1.20000000E+00  1.20000000E+00  1.50000000E+00  1.20000000E+00  1.20000000E+00
  1.50000000E+00  1.20000000E+00  1.20000000E+00  1.50000000E+00  1.20000000E+00
  1.20000000E+00  1.50000000E+00  1.20000000E+00  1.20000000E+00  1.50000000E+00
  1.20000000E+00  1.20000000E+00  1.50000000E+00  1.20000000E+00  1.20000000E+00
  1.50000000E+00  1.20000000E+00  1.20000000E+00  1.50000000E+00  1.20000000E+00
  1.20000000E+00  1.50000000E+00  1.20000000E+00  1.20000000E+00  1.50000000E+00
  1.20000000E+00  1.20000000E+00  1.50000000E+00  1.20000000E+00  1.20000000E+00
  1.50000000E+00  1.20000000E+00  1.20000000E+00  1.50000000E+00  1.20000000E+00
  1.20000000E+00  1.50000000E+00  1.20000000E+00  1.20000000E+00  1.50000000E+00
  1.20000000E+00  1.20000000E+00  1.50000000E+00  1.20000000E+00  1.20000000E+00
  1.50000000E+00  1.20000000E+00  1.20000000E+00  1.50000000E+00  1.20000000E+00
  1.20000000E+00  1.50000000E+00  1.20000000E+00  1.20000000E+00  1.50000000E+00
  1.20000000E+00  1.20000000E+00  1.50000000E+00  1.20000000E+00  1.20000000E+00
  1.50000000E+00  1.20000000E+00  1.20000000E+00  1.50000000E+00  1.20000000E+00
  1.20000000E+00  1.50000000E+00  1.20000000E+00  1.20000000E+00  1.50000000E+00
  1.20000000E+00  1.20000000E+00  1.50000000E+00  1.20000000E+00  1.20000000E+00
  1.50000000E+00  1.20000000E+00  1.20000000E+00  1.50000000E+00  1.20000000E+00
  1.20000000E+00  1.50000000E+00  1.20000000E+00  1.20000000E+00  1.50000000E+00
  1.20000000E+00  1.20000000E+00  1.50000000E+00  1.20000000E+00  1.20000000E+00
  1.50000000E+00  1.20000000E+00  1.20000000E+00  1.50000000E+00  1.20000000E+00
  1.20000000E+00  1.50000000E+00  1.20000000E+00  1.20000000E+00  1.50000000E+00
  1.20000000E+00  1.20000000E+00  1.50000000E+00  1.20000000E+00  1.20000000E+00
  1.50000000E+00  1.20000000E+00  1.20000000E+00  1.50000000E+00  1.20000000E+00
  1.20000000E+00  1.50000000E+00  1.20000000E+00  1.20000000E+00  1.50000000E+00
  1.20000000E+00  1.20000000E+00  1.50000000E+00  1.20000000E+00  1.20000000E+00
  1.50000000E+00  1.20000000E+00  1.20000000E+00  1.50000000E+00  1.20000000E+00
  1.20000000E+00  1.50000000E+00  1.20000000E+00  1.20000000E+00  1.50000000E+00
  1.20000000E+00  1.20000000E+00  1.50000000E+00  1.20000000E+00  1.20000000E+00
  1.50000000E+00  1.20000000E+00  1.20000000E+00  1.50000000E+00  1.20000000E+00
  1.20000000E+00  1.50000000E+00  1.20000000E+00  1.20000000E+00  1.50000000E+00
  1.20000000E+00  1.20000000E+00  1.50000000E+00  1.20000000E+00  1.20000000E+00
  1.50000000E+00  1.20000000E+00  1.20000000E+00  1.50000000E+00  1.20000000E+00
  1.20000000E+00  1.50000000E+00  1.20000000E+00  1.20000000E+00  1.50000000E+00
  1.20000000E+00  1.20000000E+00  1.50000000E+00  1.20000000E+00  1.20000000E+00
  1.50000000E+00  1.20000000E+00  1.20000000E+00  1.50000000E+00  1.20000000E+00
  1.20000000E+00  1.50000000E+00  1.20000000E+00  1.20000000E+00  1.50000000E+00
  1.20000000E+00  1.20000000E+00  1.50000000E+00  1.20000000E+00  1.20000000E+00
  1.50000000E+00  1.20000000E+00  1.20000000E+00  1.50000000E+00  1.20000000E+00
  1.20000000E+00  1.50000000E+00  1.20000000E+00  1.20000000E+00  1.50000000E+00
  1.20000000E+00  1.20000000E+00  1.50000000E+00  1.20000000E+00  1.20000000E+00
  1.50000000E+00  1.20000000E+00  1.20000000E+00  1.50000000E+00  1.20000000E+00
  1.20000000E+00  1.50000000E+00  1.20000000E+00  1.20000000E+00  1.50000000E+00
  1.20000000E+00  1.20000000E+00  1.50000000E+00  1.20000000E+00  1.20000000E+00
  1.50000000E+00  1.20000000E+00  1.20000000E+00  1.50000000E+00  1.20000000E+00
  1.20000000E+00  1.50000000E+00  1.20000000E+00  1.20000000E+00  1.50000000E+00
  1.20000000E+00  1.20000000E+00  1.50000000E+00  1.20000000E+00  1.20000000E+00
  1.50000000E+00  1.20000000E+00  1.20000000E+00  1.50000000E+00  1.20000000E+00
  1.20000000E+00  1.50000000E+00  1.20000000E+00  1.20000000E+00  1.50000000E+00
  1.20000000E+00  1.20000000E+00  1.50000000E+00  1.20000000E+00  1.20000000E+00
  1.50000000E+00  1.20000000E+00  1.20000000E+00  1.50000000E+00  1.20000000E+00
  1.20000000E+00  1.50000000E+00  1.20000000E+00  1.20000000E+00  1.50000000E+00
  1.20000000E+00  1.20000000E+00  1.50000000E+00  1.20000000E+00  1.20000000E+00
  1.50000000E+00  1.20000000E+00  1.20000000E+00  1.50000000E+00  1.20000000E+00
  1.20000000E+00  1.50000000E+00  1.20000000E+00  1.20000000E+00  1.50000000E+00
  1.20000000E+00  1.20000000E+00  1.50000000E+00  1.20000000E+00  1.20000000E+00
  1.50000000E+00  1.20000000E+00  1.20000000E+00  1.50000000E+00  1.20000000E+00
  1.20000000E+00  1.50000000E+00  1.20000000E+00  1.20000000E+00  1.50000000E+00
  1.20000000E+00  1.20000000E+00  1.50000000E+00  1.20000000E+00  1.20000000E+00
  1.50000000E+00  1.20000000E+00  1.20000000E+00  1.50000000E+00  1.20000000E+00
  1.20000000E+00  1.50000000E+00  1.20000000E+00  1.20000000E+00  1.50000000E+00
  1.20000000E+00  1.20000000E+00  1.50000000E+00  1.20000000E+00  1.20000000E+00
  1.50000000E+00  1.20000000E+00  1.20000000E+00  1.50000000E+00  1.20000000E+00
  1.20000000E+00  1.50000000E+00  1.20000000E+00  1.20000000E+00  1.50000000E+00
  1.20000000E+00  1.20000000E+00  1.50000000E+00  1.20000000E+00  1.20000000E+00
  1.50000000E+00  1.20000000E+00  1.20000000E+00  1.50000000E+00  1.20000000E+00
  1.20000000E+00  1.50000000E+00  1.20000000E+00  1.20000000E+00  1.50000000E+00
  1.20000000E+00  1.20000000E+00  1.50000000E+00  1.20000000E+00  1.20000000E+00
  1.50000000E+00  1.20000000E+00  1.20000000E+00  1.50000000E+00  1.20000000E+00
  1.20000000E+00  1.50000000E+00  1.20000000E+00  1.20000000E+00  1.50000000E+00
  1.20000000E+00  1.20000000E+00  1.50000000E+00  1.20000000E+00  1.20000000E+00
  1.50000000E+00  1.20000000E+00  1.20000000E+00  1.50000000E+00  1.20000000E+00
  1.20000000E+00  1.50000000E+00  1.20000000E+00  1.20000000E+00  1.50000000E+00
  1.20000000E+00  1.20000000E+00  1.50000000E+00  1.20000000E+00  1.20000000E+00
  1.50000000E+00  1.20000000E+00  1.20000000E+00  1.50000000E+00  1.20000000E+00
  1.20000000E+00  1.50000000E+00  1.20000000E+00  1.20000000E+00  1.50000000E+00
  1.20000000E+00  1.20000000E+00  1.50000000E+00  1.20000000E+00  1.20000000E+00
  1.50000000E+00  1.20000000E+00  1.20000000E+00  1.50000000E+00  1.20000000E+00
  1.20000000E+00  1.50000000E+00  1.20000000E+00  1.20000000E+00  1.50000000E+00
  1.20000000E+00  1.20000000E+00  1.50000000E+00  1.20000000E+00  1.20000000E+00
  1.50000000E+00  1.20000000E+00  1.20000000E+00  1.50000000E+00  1.20000000E+00
  1.20000000E+00  1.50000000E+00  1.20000000E+00  1.20000000E+00  1.50000000E+00
  1.20000000E+00  1.20000000E+00  1.50000000E+00  1.20000000E+00  1.20000000E+00
  1.50000000E+00  1.20000000E+00  1.20000000E+00  1.50000000E+00  1.20000000E+00
  1.20000000E+00  1.50000000E+00  1.20000000E+00  1.20000000E+00  1.50000000E+00
  1.20000000E+00  1.20000000E+00  1.50000000E+00  1.20000000E+00  1.20000000E+00
  1.50000000E+00  1.20000000E+00  1.20000000E+00  1.50000000E+00  1.20000000E+00
  1.20000000E+00  1.50000000E+00  1.20000000E+00  1.20000000E+00  1.50000000E+00
  1.20000000E+00  1.20000000E+00  1.50000000E+00  1.20000000E+00  1.20000000E+00
  1.50000000E+00  1.20000000E+00  1.20000000E+00  1.50000000E+00  1.20000000E+00
  1.20000000E+00  1.50000000E+00  1.20000000E+00  1.20000000E+00  1.50000000E+00
  1.20000000E+00  1.20000000E+00  1.50000000E+00  1.20000000E+00  1.20000000E+00
  1.50000000E+00  1.20000000E+00  1.20000000E+00  1.50000000E+00  1.20000000E+00
  1.20000000E+00  1.50000000E+00  1.20000000E+00  1.20000000E+00  1.50000000E+00
  1.20000000E+00  1.20000000E+00  1.50000000E+00  1.20000000E+00  1.20000000E+00
  1.50000000E+00  1.20000000E+00  1.20000000E+00  1.50000000E+00  1.20000000E+00
  1.20000000E+00  1.50000000E+00  1.20000000E+00  1.20000000E+00  1.50000000E+00
  1.20000000E+00  1.20000000E+00  1.50000000E+00  1.20000000E+00  1.20000000E+00
  1.50000000E+00  1.20000000E+00  1.20000000E+00  1.50000000E+00  1.20000000E+00
  1.20000000E+00  1.50000000E+00  1.20000000E+00  1.20000000E+00  1.50000000E+00
  1.20000000E+00  1.20000000E+00  1.50000000E+00  1.20000000E+00  1.20000000E+00
  1.50000000E+00  1.20000000E+00  1.20000000E+00  1.50000000E+00  1.20000000E+00
  1.20000000E+00  1.50000000E+00  1.20000000E+00  1.20000000E+00  1.50000000E+00
  1.20000000E+00  1.20000000E+00  1.50000000E+00  1.20000000E+00  1.20000000E+00
  1.50000000E+00  1.20000000E+00  1.20000000E+00  1.50000000E+00  1.20000000E+00
  1.20000000E+00  1.50000000E+00  1.20000000E+00  1.20000000E+00  1.50000000E+00
  1.20000000E+00  1.20000000E+00  1.50000000E+00  1.20000000E+00  1.20000000E+00
  1.50000000E+00  1.20000000E+00  1.20000000E+00  1.50000000E+00  1.20000000E+00
  1.20000000E+00  1.50000000E+00  1.20000000E+00  1.20000000E+00  1.50000000E+00
  1.20000000E+00  1.20000000E+00  1.50000000E+00  1.20000000E+00  1.20000000E+00
  1.50000000E+00  1.20000000E+00  1.20000000E+00  1.50000000E+00  1.20000000E+00
  1.20000000E+00  1.50000000E+00  1.20000000E+00  1.20000000E+00  1.50000000E+00
  1.20000000E+00  1.20000000E+00  1.50000000E+00  1.20000000E+00  1.20000000E+00
  1.50000000E+00  1.20000000E+00  1.20000000E+00  1.50000000E+00  1.20000000E+00
  1.20000000E+00  1.50000000E+00  1.20000000E+00  1.20000000E+00  1.50000000E+00
  1.20000000E+00  1.20000000E+00  1.50000000E+00  1.20000000E+00  1.20000000E+00
  1.50000000E+00  1.20000000E+00  1.20000000E+00  1.50000000E+00  1.20000000E+00
  1.20000000E+00  1.50000000E+00  1.20000000E+00  1.20000000E+00  1.50000000E+00
  1.20000000E+00  1.20000000E+00  1.50000000E+00  1.20000000E+00  1.20000000E+00
  1.50000000E+00  1.20000000E+00  1.20000000E+00  1.50000000E+00  1.20000000E+00
  1.20000000E+00  1.50000000E+00  1.20000000E+00  1.20000000E+00  1.50000000E+00
  1.20000000E+00  1.20000000E+00  1.50000000E+00  1.20000000E+00  1.20000000E+00
  1.50000000E+00  1.20000000E+00  1.20000000E+00  1.50000000E+00  1.20000000E+00
  1.20000000E+00  1.50000000E+00  1.20000000E+00  1.20000000E+00  1.50000000E+00
  1.20000000E+00  1.20000000E+00  1.50000000E+00  1.20000000E+00  1.20000000E+00
  1.50000000E+00  1.20000000E+00  1.20000000E+00  1.50000000E+00  1.20000000E+00
  1.20000000E+00  1.50000000E+00  1.20000000E+00  1.20000000E+00  1.50000000E+00
  1.20000000E+00  1.20000000E+00  1.50000000E+00  1.20000000E+00  1.20000000E+00
  1.50000000E+00  1.20000000E+00  1.20000000E+00  1.50000000E+00  1.20000000E+00
  1.20000000E+00  1.50000000E+00  1.20000000E+00  1.20000000E+00  1.50000000E+00
  1.20000000E+00  1.20000000E+00  1.50000000E+00  1.20000000E+00  1.20000000E+00
  1.50000000E+00  1.20000000E+00  1.20000000E+00  1.50000000E+00  1.20000000E+00
  1.20000000E+00  1.50000000E+00  1.20000000E+00  1.20000000E+00  1.50000000E+00
  1.20000000E+00  1.20000000E+00  1.50000000E+00  1.20000000E+00  1.20000000E+00
  1.50000000E+00  1.20000000E+00  1.20000000E+00  1.50000000E+00  1.20000000E+00
  1.20000000E+00  1.50000000E+00  1.20000000E+00  1.20000000E+00  1.50000000E+00
  1.20000000E+00  1.20000000E+00  1.50000000E+00  1.20000000E+00  1.20000000E+00
  1.50000000E+00  1.20000000E+00  1.20000000E+00  1.50000000E+00  1.20000000E+00
  1.20000000E+00  1.50000000E+00  1.20000000E+00  1.20000000E+00  1.50000000E+00
  1.20000000E+00  1.20000000E+00  1.50000000E+00  1.20000000E+00  1.20000000E+00
  1.50000000E+00  1.20000000E+00  1.20000000E+00  1.50000000E+00  1.20000000E+00
  1.20000000E+00  1.50000000E+00  1.20000000E+00  1.20000000E+00  1.50000000E+00
  1.20000000E+00  1.20000000E+00  1.50000000E+00  1.20000000E+00  1.20000000E+00
  1.50000000E+00  1.20000000E+00  1.20000000E+00  1.50000000E+00  1.20000000E+00
  1.20000000E+00  1.50000000E+00  1.20000000E+00  1.20000000E+00  1.50000000E+00
  1.20000000E+00  1.20000000E+00  1.50000000E+00  1.20000000E+00  1.20000000E+00
  1.50000000E+00  1.20000000E+00  1.20000000E+00  1.50000000E+00  1.20000000E+00
  1.20000000E+00  1.50000000E+00  1.20000000E+00  1.20000000E+00  1.50000000E+00
  1.20000000E+00  1.20000000E+00  1.50000000E+00  1.20000000E+00  1.20000000E+00
  1.50000000E+00  1.20000000E+00  1.20000000E+00  1.50000000E+00  1.20000000E+00
  1.20000000E+00  1.50000000E+00  1.20000000E+00  1.20000000E+00  1.50000000E+00
  1.20000000E+00  1.20000000E+00  1.50000000E+00  1.20000000E+00  1.20000000E+00
  1.50000000E+00  1.20000000E+00  1.20000000E+00  1.50000000E+00  1.20000000E+00
  1.20000000E+00  1.50000000E+00  1.20000000E+00  1.20000000E+00  1.50000000E+00
  1.20000000E+00  1.20000000E+00  1.50000000E+00  1.20000000E+00  1.20000000E+00
  1.50000000E+00  1.20000000E+00  1.20000000E+00  1.50000000E+00  1.20000000E+00
  1.20000000E+00  1.50000000E+00  1.20000000E+00  1.20000000E+00  1.50000000E+00
  1.20000000E+00  1.20000000E+00  1.50000000E+00  1.20000000E+00  1.20000000E+00
  1.50000000E+00  1.20000000E+00  1.20000000E+00  1.50000000E+00  1.20000000E+00
  1.20000000E+00  1.50000000E+00  1.20000000E+00  1.20000000E+00  1.50000000E+00
  1.20000000E+00  1.20000000E+00  1.50000000E+00  1.20000000E+00  1.20000000E+00
  1.50000000E+00  1.20000000E+00  1.20000000E+00  1.50000000E+00  1.20000000E+00
  1.20000000E+00  1.50000000E+00  1.20000000E+00  1.20000000E+00  1.50000000E+00
  1.20000000E+00  1.20000000E+00  1.50000000E+00  1.20000000E+00  1.20000000E+00
  1.50000000E+00  1.20000000E+00  1.20000000E+00  1.50000000E+00  1.20000000E+00
  1.20000000E+00  1.50000000E+00  1.20000000E+00  1.20000000E+00  1.50000000E+00
  1.20000000E+00  1.20000000E+00  1.50000000E+00  1.20000000E+00  1.20000000E+00
  1.50000000E+00  1.20000000E+00  1.20000000E+00  1.50000000E+00  1.20000000E+00
  1.20000000E+00  1.50000000E+00  1.20000000E+00  1.20000000E+00  1.50000000E+00
  1.20000000E+00  1.20000000E+00  1.50000000E+00  1.20000000E+00  1.20000000E+00
  1.50000000E+00  1.20000000E+00  1.20000000E+00  1.50000000E+00  1.20000000E+00
  1.20000000E+00  1.50000000E+00  1.20000000E+00  1.20000000E+00  1.50000000E+00
  1.20000000E+00  1.20000000E+00  1.50000000E+00  1.20000000E+00  1.20000000E+00
  1.50000000E+00  1.20000000E+00  1.20000000E+00  1.50000000E+00  1.20000000E+00
  1.20000000E+00  1.50000000E+00  1.20000000E+00  1.20000000E+00  1.50000000E+00
  1.20000000E+00  1.20000000E+00  1.50000000E+00  1.20000000E+00  1.20000000E+00
  1.50000000E+00  1.20000000E+00  1.20000000E+00  1.50000000E+00  1.20000000E+00
  1.20000000E+00  1.50000000E+00  1.20000000E+00  1.20000000E+00  1.50000000E+00
  1.20000000E+00  1.20000000E+00  1.50000000E+00  1.20000000E+00  1.20000000E+00
  1.50000000E+00  1.20000000E+00  1.20000000E+00  1.50000000E+00  1.20000000E+00
  1.20000000E+00  1.50000000E+00  1.20000000E+00  1.20000000E+00  1.50000000E+00
  1.20000000E+00  1.20000000E+00  1.50000000E+00  1.20000000E+00  1.20000000E+00
  1.50000000E+00  1.20000000E+00  1.20000000E+00  1.50000000E+00  1.20000000E+00
  1.20000000E+00  1.50000000E+00  1.20000000E+00  1.20000000E+00  1.50000000E+00
  1.20000000E+00  1.20000000E+00  1.50000000E+00  1.20000000E+00  1.20000000E+00
  1.50000000E+00  1.20000000E+00  1.20000000E+00  1.50000000E+00  1.20000000E+00
  1.20000000E+00  1.50000000E+00  1.20000000E+00  1.20000000E+00  1.50000000E+00
  1.20000000E+00  1.20000000E+00  1.50000000E+00  1.20000000E+00  1.20000000E+00
  1.50000000E+00  1.20000000E+00  1.20000000E+00  1.50000000E+00  1.20000000E+00
  1.20000000E+00  1.50000000E+00  1.20000000E+00  1.20000000E+00  1.50000000E+00
  1.20000000E+00  1.20000000E+00  1.50000000E+00  1.20000000E+00  1.20000000E+00
  1.50000000E+00  1.20000000E+00  1.20000000E+00  1.50000000E+00  1.20000000E+00
  1.20000000E+00  1.50000000E+00  1.20000000E+00  1.20000000E+00  1.50000000E+00
  1.20000000E+00  1.20000000E+00  1.50000000E+00  1.20000000E+00  1.20000000E+00
  1.50000000E+00  1.20000000E+00  1.20000000E+00  1.50000000E+00  1.20000000E+00
  1.20000000E+00  1.50000000E+00  1.20000000E+00  1.20000000E+00  1.50000000E+00
  1.20000000E+00  1.20000000E+00  1.50000000E+00  1.20000000E+00  1.20000000E+00
  1.50000000E+00  1.20000000E+00  1.20000000E+00  1.50000000E+00  1.20000000E+00
  1.20000000E+00  1.50000000E+00  1.20000000E+00  1.20000000E+00  1.50000000E+00
  1.20000000E+00  1.20000000E+00  1.50000000E+00  1.20000000E+00  1.20000000E+00
  1.50000000E+00  1.20000000E+00  1.20000000E+00  1.50000000E+00  1.20000000E+00
  1.20000000E+00  1.50000000E+00  1.20000000E+00  1.20000000E+00  1.50000000E+00
  1.20000000E+00  1.20000000E+00  1.50000000E+00  1.20000000E+00  1.20000000E+00
  1.50000000E+00  1.20000000E+00  1.20000000E+00  1.50000000E+00  1.20000000E+00
  1.20000000E+00  1.50000000E+00  1.20000000E+00  1.20000000E+00  1.50000000E+00
  1.20000000E+00  1.20000000E+00  1.50000000E+00  1.20000000E+00  1.20000000E+00
  1.50000000E+00  1.20000000E+00  1.20000000E+00  1.50000000E+00  1.20000000E+00
  1.20000000E+00  1.50000000E+00  1.20000000E+00  1.20000000E+00  1.50000000E+00
  1.20000000E+00  1.20000000E+00  1.50000000E+00  1.20000000E+00  1.20000000E+00
  1.50000000E+00  1.20000000E+00  1.20000000E+00  1.50000000E+00  1.20000000E+00
  1.20000000E+00  1.50000000E+00  1.20000000E+00  1.20000000E+00  1.50000000E+00
  1.20000000E+00  1.20000000E+00  1.50000000E+00  1.20000000E+00  1.20000000E+00
  1.50000000E+00  1.20000000E+00  1.20000000E+00  1.50000000E+00  1.20000000E+00
  1.20000000E+00  1.50000000E+00  1.20000000E+00  1.20000000E+00  1.50000000E+00
  1.20000000E+00  1.20000000E+00  1.50000000E+00  1.20000000E+00  1.20000000E+00
  1.50000000E+00  1.20000000E+00  1.20000000E+00  1.50000000E+00  1.20000000E+00
  1.20000000E+00  1.50000000E+00  1.20000000E+00  1.20000000E+00  1.50000000E+00
  1.20000000E+00  1.20000000E+00  1.50000000E+00  1.20000000E+00  1.20000000E+00
  1.50000000E+00  1.20000000E+00  1.20000000E+00  1.50000000E+00  1.20000000E+00
  1.20000000E+00  1.50000000E+00  1.20000000E+00  1.20000000E+00  1.50000000E+00
  1.20000000E+00  1.20000000E+00  1.50000000E+00  1.20000000E+00  1.20000000E+00
  1.50000000E+00  1.20000000E+00  1.20000000E+00  1.50000000E+00  1.20000000E+00
  1.20000000E+00  1.50000000E+00  1.20000000E+00  1.20000000E+00  1.50000000E+00
  1.20000000E+00  1.20000000E+00  1.50000000E+00  1.20000000E+00  1.20000000E+00
  1.50000000E+00  1.20000000E+00  1.20000000E+00  1.50000000E+00  1.20000000E+00
  1.20000000E+00  1.50000000E+00  1.20000000E+00  1.20000000E+00  1.50000000E+00
  1.20000000E+00  1.20000000E+00  1.50000000E+00  1.20000000E+00  1.20000000E+00
  1.50000000E+00  1.20000000E+00  1.20000000E+00  1.50000000E+00  1.20000000E+00
  1.20000000E+00  1.50000000E+00  1.20000000E+00  1.20000000E+00  1.50000000E+00
  1.20000000E+00  1.20000000E+00  1.50000000E+00  1.20000000E+00  1.20000000E+00
  1.50000000E+00  1.20000000E+00  1.20000000E+00  1.50000000E+00  1.20000000E+00
  1.20000000E+00  1.50000000E+00  1.20000000E+00  1.20000000E+00  1.50000000E+00
  1.20000000E+00  1.20000000E+00  1.50000000E+00  1.20000000E+00  1.20000000E+00
  1.50000000E+00  1.20000000E+00  1.20000000E+00  1.50000000E+00  1.20000000E+00
  1.20000000E+00  1.50000000E+00  1.20000000E+00  1.20000000E+00  1.50000000E+00
  1.20000000E+00  1.20000000E+00  1.50000000E+00  1.20000000E+00  1.20000000E+00
  1.50000000E+00  1.20000000E+00  1.20000000E+00  1.50000000E+00  1.20000000E+00
  1.20000000E+00  1.50000000E+00  1.20000000E+00  1.20000000E+00  1.50000000E+00
  1.20000000E+00  1.20000000E+00  1.50000000E+00  1.20000000E+00  1.20000000E+00
  1.50000000E+00  1.20000000E+00  1.20000000E+00  1.50000000E+00  1.20000000E+00
  1.20000000E+00  1.50000000E+00  1.20000000E+00  1.20000000E+00  1.50000000E+00
  1.20000000E+00  1.20000000E+00  1.50000000E+00  1.20000000E+00  1.20000000E+00
  1.50000000E+00  1.20000000E+00  1.20000000E+00  1.50000000E+00  1.20000000E+00
  1.20000000E+00  1.50000000E+00  1.20000000E+00  1.20000000E+00  1.50000000E+00
  1.20000000E+00  1.20000000E+00  1.50000000E+00  1.20000000E+00  1.20000000E+00
  1.50000000E+00  1.20000000E+00  1.20000000E+00  1.50000000E+00  1.20000000E+00
  1.20000000E+00  1.50000000E+00  1.20000000E+00  1.20000000E+00  1.50000000E+00
  1.20000000E+00  1.20000000E+00  1.50000000E+00  1.20000000E+00  1.20000000E+00
  1.50000000E+00  1.20000000E+00  1.20000000E+00  1.50000000E+00  1.20000000E+00
  1.20000000E+00  1.50000000E+00  1.20000000E+00  1.20000000E+00  1.50000000E+00
  1.20000000E+00  1.20000000E+00  1.50000000E+00  1.20000000E+00  1.20000000E+00
  1.50000000E+00  1.20000000E+00  1.20000000E+00  1.50000000E+00  1.20000000E+00
  1.20000000E+00  1.50000000E+00  1.20000000E+00  1.20000000E+00  1.50000000E+00
  1.20000000E+00  1.20000000E+00  1.50000000E+00  1.20000000E+00  1.20000000E+00
  1.50000000E+00  1.20000000E+00  1.20000000E+00  1.50000000E+00  1.20000000E+00
  1.20000000E+00  1.50000000E+00  1.20000000E+00  1.20000000E+00  1.50000000E+00
  1.20000000E+00  1.20000000E+00  1.50000000E+00  1.20000000E+00  1.20000000E+00
  1.50000000E+00  1.20000000E+00  1.20000000E+00  1.50000000E+00  1.20000000E+00
  1.20000000E+00  1.50000000E+00  1.20000000E+00  1.20000000E+00  1.50000000E+00
  1.20000000E+00  1.20000000E+00  1.50000000E+00  1.20000000E+00  1.20000000E+00
  1.50000000E+00  1.20000000E+00  1.20000000E+00  1.50000000E+00  1.20000000E+00
  1.20000000E+00  1.50000000E+00  1.20000000E+00  1.20000000E+00  1.50000000E+00
  1.20000000E+00  1.20000000E+00  1.50000000E+00  1.20000000E+00  1.20000000E+00
  1.50000000E+00  1.20000000E+00  1.20000000E+00  1.50000000E+00  1.20000000E+00
  1.20000000E+00  1.50000000E+00  1.20000000E+00  1.20000000E+00  1.50000000E+00
  1.20000000E+00  1.20000000E+00  1.50000000E+00  1.20000000E+00  1.20000000E+00
  1.50000000E+00  1.20000000E+00  1.20000000E+00  1.50000000E+00  1.20000000E+00
  1.20000000E+00  1.50000000E+00  1.20000000E+00  1.20000000E+00  1.50000000E+00
  1.20000000E+00  1.20000000E+00  1.50000000E+00  1.20000000E+00  1.20000000E+00
  1.50000000E+00  1.20000000E+00  1.20000000E+00  1.50000000E+00  1.20000000E+00
  1.20000000E+00  1.50000000E+00  1.20000000E+00  1.20000000E+00  1.50000000E+00
  1.20000000E+00  1.20000000E+00  1.50000000E+00  1.20000000E+00  1.20000000E+00
  1.50000000E+00  1.20000000E+00  1.20000000E+00  1.50000000E+00  1.20000000E+00
  1.20000000E+00  1.50000000E+00  1.20000000E+00  1.20000000E+00  1.50000000E+00
  1.20000000E+00  1.20000000E+00  1.50000000E+00  1.20000000E+00  1.20000000E+00
  1.50000000E+00  1.20000000E+00  1.20000000E+00  1.50000000E+00  1.20000000E+00
  1.20000000E+00  1.50000000E+00  1.20000000E+00  1.20000000E+00  1.50000000E+00
  1.20000000E+00  1.20000000E+00  1.50000000E+00  1.20000000E+00  1.20000000E+00
  1.50000000E+00  1.20000000E+00  1.20000000E+00  1.50000000E+00  1.20000000E+00
  1.20000000E+00  1.50000000E+00  1.20000000E+00  1.20000000E+00  1.50000000E+00
  1.20000000E+00  1.20000000E+00  1.50000000E+00  1.20000000E+00  1.20000000E+00
  1.50000000E+00  1.20000000E+00  1.20000000E+00  1.50000000E+00  1.20000000E+00
  1.20000000E+00  1.50000000E+00  1.20000000E+00  1.20000000E+00  1.50000000E+00
  1.20000000E+00  1.20000000E+00  1.50000000E+00  1.20000000E+00  1.20000000E+00
  1.50000000E+00  1.20000000E+00  1.20000000E+00  1.50000000E+00  1.20000000E+00
  1.20000000E+00  1.50000000E+00  1.20000000E+00  1.20000000E+00  1.50000000E+00
  1.20000000E+00  1.20000000E+00  1.50000000E+00  1.20000000E+00  1.20000000E+00
  1.50000000E+00  1.20000000E+00  1.20000000E+00  1.50000000E+00  1.20000000E+00
  1.20000000E+00  1.50000000E+00  1.20000000E+00  1.20000000E+00  1.50000000E+00
  1.20000000E+00  1.20000000E+00  1.50000000E+00  1.20000000E+00  1.20000000E+00
  1.50000000E+00  1.20000000E+00  1.20000000E+00  1.50000000E+00  1.20000000E+00
  1.20000000E+00  1.50000000E+00  1.20000000E+00  1.20000000E+00  1.50000000E+00
  1.20000000E+00  1.20000000E+00  1.50000000E+00  1.20000000E+00  1.20000000E+00
  1.50000000E+00  1.20000000E+00  1.20000000E+00  1.50000000E+00  1.20000000E+00
  1.20000000E+00  1.50000000E+00  1.20000000E+00  1.20000000E+00  1.50000000E+00
  1.20000000E+00  1.20000000E+00  1.50000000E+00  1.20000000E+00  1.20000000E+00
  1.50000000E+00  1.20000000E+00  1.20000000E+00  1.50000000E+00  1.20000000E+00
  1.20000000E+00  1.50000000E+00  1.20000000E+00  1.20000000E+00  1.50000000E+00
  1.20000000E+00  1.20000000E+00  1.50000000E+00  1.20000000E+00  1.20000000E+00
  1.50000000E+00  1.20000000E+00  1.20000000E+00  1.50000000E+00  1.20000000E+00
  1.20000000E+00  1.50000000E+00  1.20000000E+00  1.20000000E+00  1.50000000E+00
  1.20000000E+00  1.20000000E+00  1.50000000E+00  1.20000000E+00  1.20000000E+00
  1.50000000E+00  1.20000000E+00  1.20000000E+00  1.50000000E+00  1.20000000E+00
  1.20000000E+00  1.50000000E+00  1.20000000E+00  1.20000000E+00  1.50000000E+00
  1.20000000E+00  1.20000000E+00  1.50000000E+00  1.20000000E+00  1.20000000E+00
  1.50000000E+00  1.20000000E+00  1.20000000E+00  1.50000000E+00  1.20000000E+00
  1.20000000E+00  1.50000000E+00  1.20000000E+00  1.20000000E+00  1.50000000E+00
  1.20000000E+00  1.20000000E+00  1.50000000E+00  1.20000000E+00  1.20000000E+00
  1.50000000E+00  1.20000000E+00  1.20000000E+00  1.50000000E+00  1.20000000E+00
  1.20000000E+00  1.50000000E+00  1.20000000E+00  1.20000000E+00  1.50000000E+00
  1.20000000E+00  1.20000000E+00  1.50000000E+00  1.20000000E+00  1.20000000E+00
  1.50000000E+00  1.20000000E+00  1.20000000E+00  1.50000000E+00  1.20000000E+00
  1.20000000E+00  1.50000000E+00  1.20000000E+00  1.20000000E+00  1.50000000E+00
  1.20000000E+00  1.20000000E+00  1.50000000E+00  1.20000000E+00  1.20000000E+00
  1.50000000E+00  1.20000000E+00  1.20000000E+00  1.50000000E+00  1.20000000E+00
  1.20000000E+00  1.50000000E+00  1.20000000E+00  1.20000000E+00  1.50000000E+00
  1.20000000E+00  1.20000000E+00  1.50000000E+00  1.20000000E+00  1.20000000E+00
  1.50000000E+00  1.20000000E+00  1.20000000E+00  1.50000000E+00  1.20000000E+00
  1.20000000E+00  1.50000000E+00  1.20000000E+00  1.20000000E+00  1.50000000E+00
  1.20000000E+00  1.20000000E+00  1.50000000E+00  1.20000000E+00  1.20000000E+00
  1.50000000E+00  1.20000000E+00  1.20000000E+00  1.50000000E+00  1.20000000E+00
  1.20000000E+00  1.50000000E+00  1.20000000E+00  1.20000000E+00  1.50000000E+00
  1.20000000E+00  1.20000000E+00  1.50000000E+00  1.20000000E+00  1.20000000E+00
  1.50000000E+00  1.20000000E+00  1.20000000E+00  1.50000000E+00  1.20000000E+00
  1.20000000E+00  1.50000000E+00  1.20000000E+00  1.20000000E+00  1.50000000E+00
  1.20000000E+00  1.20000000E+00  1.50000000E+00  1.20000000E+00  1.20000000E+00
  1.50000000E+00  1.20000000E+00  1.20000000E+00  1.50000000E+00  1.20000000E+00
  1.20000000E+00  1.50000000E+00  1.20000000E+00  1.20000000E+00  1.50000000E+00
  1.20000000E+00  1.20000000E+00  1.50000000E+00  1.20000000E+00  1.20000000E+00
  1.50000000E+00  1.20000000E+00  1.20000000E+00  1.50000000E+00  1.20000000E+00
  1.20000000E+00  1.50000000E+00  1.20000000E+00  1.20000000E+00  1.50000000E+00
  1.20000000E+00  1.20000000E+00  1.50000000E+00  1.20000000E+00  1.20000000E+00
  1.50000000E+00  1.20000000E+00  1.20000000E+00  1.50000000E+00  1.20000000E+00
  1.20000000E+00  1.50000000E+00  1.20000000E+00  1.20000000E+00  1.50000000E+00
  1.20000000E+00  1.20000000E+00  1.50000000E+00  1.20000000E+00  1.20000000E+00
  1.50000000E+00  1.20000000E+00  1.20000000E+00  1.50000000E+00  1.20000000E+00
  1.20000000E+00  1.50000000E+00  1.20000000E+00  1.20000000E+00  1.50000000E+00
  1.20000000E+00  1.20000000E+00  1.50000000E+00  1.20000000E+00  1.20000000E+00
  1.50000000E+00  1.20000000E+00  1.20000000E+00  1.50000000E+00  1.20000000E+00
  1.20000000E+00  1.50000000E+00  1.20000000E+00  1.20000000E+00  1.50000000E+00
  1.20000000E+00  1.20000000E+00  1.50000000E+00  1.20000000E+00  1.20000000E+00
  1.50000000E+00  1.20000000E+00  1.20000000E+00  1.50000000E+00  1.20000000E+00
  1.20000000E+00  1.50000000E+00  1.20000000E+00  1.20000000E+00  1.50000000E+00
  1.20000000E+00  1.20000000E+00  1.50000000E+00  1.20000000E+00  1.20000000E+00
  1.50000000E+00  1.20000000E+00  1.20000000E+00  1.50000000E+00  1.20000000E+00
  1.20000000E+00  1.50000000E+00  1.20000000E+00  1.20000000E+00  1.50000000E+00
  1.20000000E+00  1.20000000E+00  1.50000000E+00  1.20000000E+00  1.20000000E+00
  1.50000000E+00  1.20000000E+00  1.20000000E+00  1.50000000E+00  1.20000000E+00
  1.20000000E+00  1.50000000E+00  1.20000000E+00  1.20000000E+00  1.50000000E+00
  1.20000000E+00  1.20000000E+00  1.50000000E+00  1.20000000E+00  1.20000000E+00
  1.50000000E+00  1.20000000E+00  1.20000000E+00  1.50000000E+00  1.20000000E+00
  1.20000000E+00  1.50000000E+00  1.20000000E+00  1.20000000E+00  1.50000000E+00
  1.20000000E+00  1.20000000E+00  1.50000000E+00  1.20000000E+00  1.20000000E+00
  1.50000000E+00  1.20000000E+00  1.20000000E+00  1.50000000E+00  1.20000000E+00
  1.20000000E+00  1.50000000E+00  1.20000000E+00  1.20000000E+00  1.50000000E+00
  1.20000000E+00  1.20000000E+00  1.50000000E+00  1.20000000E+00  1.20000000E+00
  1.50000000E+00  1.20000000E+00  1.20000000E+00  1.50000000E+00  1.20000000E+00
  1.20000000E+00  1.50000000E+00  1.20000000E+00  1.20000000E+00  1.50000000E+00
  1.20000000E+00  1.20000000E+00  1.50000000E+00  1.20000000E+00  1.20000000E+00
  1.50000000E+00  1.20000000E+00  1.20000000E+00  1.50000000E+00  1.20000000E+00
  1.20000000E+00  1.50000000E+00  1.20000000E+00  1.20000000E+00  1.50000000E+00
  1.20000000E+00  1.20000000E+00  1.50000000E+00  1.20000000E+00  1.20000000E+00
  1.50000000E+00  1.20000000E+00  1.20000000E+00  1.50000000E+00  1.20000000E+00
  1.20000000E+00  1.50000000E+00  1.20000000E+00  1.20000000E+00  1.50000000E+00
  1.20000000E+00  1.20000000E+00  1.50000000E+00  1.20000000E+00  1.20000000E+00
  1.50000000E+00  1.20000000E+00  1.20000000E+00  1.50000000E+00  1.20000000E+00
  1.20000000E+00  1.50000000E+00  1.20000000E+00  1.20000000E+00  1.50000000E+00
  1.20000000E+00  1.20000000E+00  1.50000000E+00  1.20000000E+00  1.20000000E+00
  1.50000000E+00  1.20000000E+00  1.20000000E+00  1.50000000E+00  1.20000000E+00
  1.20000000E+00  1.50000000E+00  1.20000000E+00  1.20000000E+00  1.50000000E+00
  1.20000000E+00  1.20000000E+00  1.50000000E+00  1.20000000E+00  1.20000000E+00
  1.50000000E+00  1.20000000E+00  1.20000000E+00  1.50000000E+00  1.20000000E+00
  1.20000000E+00  1.50000000E+00  1.20000000E+00  1.20000000E+00  1.50000000E+00
  1.20000000E+00  1.20000000E+00  1.50000000E+00  1.20000000E+00  1.20000000E+00
  1.50000000E+00  1.20000000E+00  1.20000000E+00  1.50000000E+00  1.20000000E+00
  1.20000000E+00  1.50000000E+00  1.20000000E+00  1.20000000E+00  1.50000000E+00
  1.20000000E+00  1.20000000E+00  1.50000000E+00  1.20000000E+00  1.20000000E+00
  1.50000000E+00  1.20000000E+00  1.20000000E+00  1.50000000E+00  1.20000000E+00
  1.20000000E+00  1.50000000E+00  1.20000000E+00  1.20000000E+00  1.50000000E+00
  1.20000000E+00  1.20000000E+00  1.50000000E+00  1.20000000E+00  1.20000000E+00
  1.50000000E+00  1.20000000E+00  1.20000000E+00  1.50000000E+00  1.20000000E+00
  1.20000000E+00  1.50000000E+00  1.20000000E+00  1.20000000E+00  1.50000000E+00
  1.20000000E+00  1.20000000E+00  1.50000000E+00  1.20000000E+00  1.20000000E+00
  1.50000000E+00  1.20000000E+00  1.20000000E+00  1.50000000E+00  1.20000000E+00
  1.20000000E+00  1.50000000E+00  1.20000000E+00  1.20000000E+00  1.50000000E+00
  1.20000000E+00  1.20000000E+00  1.50000000E+00  1.20000000E+00  1.20000000E+00
  1.50000000E+00  1.20000000E+00  1.20000000E+00  1.50000000E+00  1.20000000E+00
  1.20000000E+00  1.50000000E+00  1.20000000E+00  1.20000000E+00  1.50000000E+00
  1.20000000E+00  1.20000000E+00  1.50000000E+00  1.20000000E+00  1.20000000E+00
  1.50000000E+00  1.20000000E+00  1.20000000E+00  1.50000000E+00  1.20000000E+00
  1.20000000E+00  1.50000000E+00  1.20000000E+00  1.20000000E+00  1.50000000E+00
  1.20000000E+00  1.20000000E+00  1.50000000E+00  1.20000000E+00  1.20000000E+00
  1.50000000E+00  1.20000000E+00  1.20000000E+00  1.50000000E+00  1.20000000E+00
  1.20000000E+00  1.50000000E+00  1.20000000E+00  1.20000000E+00  1.50000000E+00
  1.20000000E+00  1.20000000E+00  1.50000000E+00  1.20000000E+00  1.20000000E+00
  1.50000000E+00  1.20000000E+00  1.20000000E+00  1.50000000E+00  1.20000000E+00
  1.20000000E+00  1.50000000E+00  1.20000000E+00  1.20000000E+00  1.50000000E+00
  1.20000000E+00  1.20000000E+00  1.50000000E+00  1.20000000E+00  1.20000000E+00
  1.50000000E+00  1.20000000E+00  1.20000000E+00  1.50000000E+00  1.20000000E+00
  1.20000000E+00  1.50000000E+00  1.20000000E+00  1.20000000E+00  1.50000000E+00
  1.20000000E+00  1.20000000E+00  1.50000000E+00  1.20000000E+00  1.20000000E+00
  1.50000000E+00  1.20000000E+00  1.20000000E+00  1.50000000E+00  1.20000000E+00
  1.20000000E+00  1.50000000E+00  1.20000000E+00  1.20000000E+00  1.50000000E+00
  1.20000000E+00  1.20000000E+00  1.50000000E+00  1.20000000E+00  1.20000000E+00
  1.50000000E+00  1.20000000E+00  1.20000000E+00  1.50000000E+00  1.20000000E+00
  1.20000000E+00  1.50000000E+00  1.20000000E+00  1.20000000E+00  1.50000000E+00
  1.20000000E+00  1.20000000E+00  1.50000000E+00  1.20000000E+00  1.20000000E+00
  1.50000000E+00  1.20000000E+00  1.20000000E+00  1.50000000E+00  1.20000000E+00
  1.20000000E+00  1.50000000E+00  1.20000000E+00  1.20000000E+00  1.50000000E+00
  1.20000000E+00  1.20000000E+00  1.50000000E+00  1.20000000E+00  1.20000000E+00
  1.50000000E+00  1.20000000E+00  1.20000000E+00  1.50000000E+00  1.20000000E+00
  1.20000000E+00  1.50000000E+00  1.20000000E+00  1.20000000E+00  1.50000000E+00
  1.20000000E+00  1.20000000E+00  1.50000000E+00  1.20000000E+00  1.20000000E+00
  1.50000000E+00  1.20000000E+00  1.20000000E+00  1.50000000E+00  1.20000000E+00
  1.20000000E+00  1.50000000E+00  1.20000000E+00  1.20000000E+00  1.50000000E+00
  1.20000000E+00  1.20000000E+00  1.50000000E+00  1.20000000E+00  1.20000000E+00
  1.50000000E+00  1.20000000E+00  1.20000000E+00  1.50000000E+00  1.20000000E+00
  1.20000000E+00  1.50000000E+00  1.20000000E+00  1.20000000E+00  1.50000000E+00
  1.20000000E+00  1.20000000E+00  1.50000000E+00  1.20000000E+00  1.20000000E+00
  1.50000000E+00  1.20000000E+00  1.20000000E+00  1.50000000E+00  1.20000000E+00
  1.20000000E+00  1.50000000E+00  1.20000000E+00  1.20000000E+00  1.50000000E+00
  1.20000000E+00  1.20000000E+00  1.50000000E+00  1.20000000E+00  1.20000000E+00
  1.50000000E+00  1.20000000E+00  1.20000000E+00  1.50000000E+00  1.20000000E+00
  1.20000000E+00  1.50000000E+00  1.20000000E+00  1.20000000E+00  1.50000000E+00
  1.20000000E+00  1.20000000E+00  1.50000000E+00  1.20000000E+00  1.20000000E+00
  1.50000000E+00  1.20000000E+00  1.20000000E+00  1.50000000E+00  1.20000000E+00
  1.20000000E+00  1.50000000E+00  1.20000000E+00  1.20000000E+00  1.50000000E+00
  1.20000000E+00  1.20000000E+00  1.50000000E+00  1.20000000E+00  1.20000000E+00
  1.50000000E+00  1.20000000E+00  1.20000000E+00  1.50000000E+00  1.20000000E+00
  1.20000000E+00  1.50000000E+00  1.20000000E+00  1.20000000E+00  1.50000000E+00
  1.20000000E+00  1.20000000E+00  1.50000000E+00  1.20000000E+00  1.20000000E+00
  1.50000000E+00  1.20000000E+00  1.20000000E+00  1.50000000E+00  1.20000000E+00
  1.20000000E+00  1.50000000E+00  1.20000000E+00  1.20000000E+00  1.50000000E+00
  1.20000000E+00  1.20000000E+00  1.50000000E+00  1.20000000E+00  1.20000000E+00
  1.50000000E+00  1.20000000E+00  1.20000000E+00  1.50000000E+00  1.20000000E+00
  1.20000000E+00  1.50000000E+00  1.20000000E+00  1.20000000E+00  1.50000000E+00
  1.20000000E+00  1.20000000E+00  1.50000000E+00  1.20000000E+00  1.20000000E+00
  1.50000000E+00  1.20000000E+00  1.20000000E+00  1.50000000E+00  1.20000000E+00
  1.20000000E+00  1.50000000E+00  1.20000000E+00  1.20000000E+00  1.50000000E+00
  1.20000000E+00  1.20000000E+00  1.50000000E+00  1.20000000E+00  1.20000000E+00
  1.50000000E+00  1.20000000E+00  1.20000000E+00  1.50000000E+00  1.20000000E+00
  1.20000000E+00  1.50000000E+00  1.20000000E+00  1.20000000E+00  1.50000000E+00
  1.20000000E+00  1.20000000E+00  1.50000000E+00  1.20000000E+00  1.20000000E+00
  1.50000000E+00  1.20000000E+00  1.20000000E+00  1.50000000E+00  1.20000000E+00
  1.20000000E+00  1.50000000E+00  1.20000000E+00  1.20000000E+00  1.50000000E+00
  1.20000000E+00  1.20000000E+00  1.50000000E+00  1.20000000E+00  1.20000000E+00
  1.50000000E+00  1.20000000E+00  1.20000000E+00  1.50000000E+00  1.20000000E+00
  1.20000000E+00  1.50000000E+00  1.20000000E+00  1.20000000E+00  1.50000000E+00
  1.20000000E+00  1.20000000E+00  1.50000000E+00  1.20000000E+00  1.20000000E+00
  1.50000000E+00  1.20000000E+00  1.20000000E+00  1.50000000E+00  1.20000000E+00
  1.20000000E+00  1.50000000E+00  1.20000000E+00  1.20000000E+00  1.50000000E+00
  1.20000000E+00  1.20000000E+00  1.50000000E+00  1.20000000E+00  1.20000000E+00
  1.50000000E+00  1.20000000E+00  1.20000000E+00  1.50000000E+00  1.20000000E+00
  1.20000000E+00  1.50000000E+00  1.20000000E+00  1.20000000E+00  1.50000000E+00
  1.20000000E+00  1.20000000E+00  1.50000000E+00  1.20000000E+00  1.20000000E+00
  1.50000000E+00  1.20000000E+00  1.20000000E+00  1.50000000E+00  1.20000000E+00
  1.20000000E+00  1.50000000E+00  1.20000000E+00  1.20000000E+00  1.50000000E+00
  1.20000000E+00  1.20000000E+00  1.50000000E+00  1.20000000E+00  1.20000000E+00
  1.50000000E+00  1.20000000E+00  1.20000000E+00  1.50000000E+00  1.20000000E+00
  1.20000000E+00  1.50000000E+00  1.20000000E+00  1.20000000E+00  1.50000000E+00
  1.20000000E+00  1.20000000E+00  1.50000000E+00  1.20000000E+00  1.20000000E+00
  1.50000000E+00  1.20000000E+00  1.20000000E+00  1.50000000E+00  1.20000000E+00
  1.20000000E+00  1.50000000E+00  1.20000000E+00  1.20000000E+00  1.50000000E+00
  1.20000000E+00  1.20000000E+00  1.50000000E+00  1.20000000E+00  1.20000000E+00
  1.50000000E+00  1.20000000E+00  1.20000000E+00  1.50000000E+00  1.20000000E+00
  1.20000000E+00  1.50000000E+00  1.20000000E+00  1.20000000E+00  1.50000000E+00
  1.20000000E+00  1.20000000E+00  1.50000000E+00  1.20000000E+00  1.20000000E+00
  1.50000000E+00  1.20000000E+00  1.20000000E+00  1.50000000E+00  1.20000000E+00
  1.20000000E+00  1.50000000E+00  1.20000000E+00  1.20000000E+00  1.50000000E+00
  1.20000000E+00  1.20000000E+00  1.50000000E+00  1.20000000E+00  1.20000000E+00
  1.50000000E+00  1.20000000E+00  1.20000000E+00  1.50000000E+00  1.20000000E+00
  1.20000000E+00  1.50000000E+00  1.20000000E+00  1.20000000E+00  1.50000000E+00
  1.20000000E+00  1.20000000E+00  1.50000000E+00  1.20000000E+00  1.20000000E+00
  1.50000000E+00  1.20000000E+00  1.20000000E+00  1.50000000E+00  1.20000000E+00
  1.20000000E+00  1.50000000E+00  1.20000000E+00  1.20000000E+00  1.50000000E+00
  1.20000000E+00  1.20000000E+00  1.50000000E+00  1.20000000E+00  1.20000000E+00
  1.50000000E+00  1.20000000E+00  1.20000000E+00  1.50000000E+00  1.20000000E+00
  1.20000000E+00  1.50000000E+00  1.20000000E+00  1.20000000E+00  1.50000000E+00
  1.20000000E+00  1.20000000E+00  1.50000000E+00  1.20000000E+00  1.20000000E+00
  1.50000000E+00  1.20000000E+00  1.20000000E+00  1.50000000E+00  1.20000000E+00
  1.20000000E+00  1.50000000E+00  1.20000000E+00  1.20000000E+00  1.50000000E+00
  1.20000000E+00  1.20000000E+00  1.50000000E+00  1.20000000E+00  1.20000000E+00
  1.50000000E+00  1.20000000E+00  1.20000000E+00  1.50000000E+00  1.20000000E+00
  1.20000000E+00  1.50000000E+00  1.20000000E+00  1.20000000E+00  1.50000000E+00
  1.20000000E+00  1.20000000E+00  1.50000000E+00  1.20000000E+00  1.20000000E+00
  1.50000000E+00  1.20000000E+00  1.20000000E+00  1.50000000E+00  1.20000000E+00
  1.20000000E+00  1.50000000E+00  1.20000000E+00  1.20000000E+00  1.50000000E+00
  1.20000000E+00  1.20000000E+00  1.50000000E+00  1.20000000E+00  1.20000000E+00
  1.50000000E+00  1.20000000E+00  1.20000000E+00  1.50000000E+00  1.20000000E+00
  1.20000000E+00  1.50000000E+00  1.20000000E+00  1.20000000E+00  1.50000000E+00
  1.20000000E+00  1.20000000E+00  1.50000000E+00  1.20000000E+00  1.20000000E+00
  1.50000000E+00  1.20000000E+00  1.20000000E+00  1.50000000E+00  1.20000000E+00
  1.20000000E+00  1.50000000E+00  1.20000000E+00  1.20000000E+00  1.50000000E+00
  1.20000000E+00  1.20000000E+00  1.50000000E+00  1.20000000E+00  1.20000000E+00
  1.50000000E+00  1.20000000E+00  1.20000000E+00  1.50000000E+00  1.20000000E+00
  1.20000000E+00  1.50000000E+00  1.20000000E+00  1.20000000E+00  1.50000000E+00
  1.20000000E+00  1.20000000E+00  1.50000000E+00  1.20000000E+00  1.20000000E+00
  1.50000000E+00  1.20000000E+00  1.20000000E+00  1.50000000E+00  1.20000000E+00
  1.20000000E+00  1.50000000E+00  1.20000000E+00  1.20000000E+00  1.50000000E+00
  1.20000000E+00  1.20000000E+00  1.50000000E+00  1.20000000E+00  1.20000000E+00
  1.50000000E+00  1.20000000E+00  1.20000000E+00  1.50000000E+00  1.20000000E+00
  1.20000000E+00  1.50000000E+00  1.20000000E+00  1.20000000E+00  1.50000000E+00
  1.20000000E+00  1.20000000E+00  1.50000000E+00  1.20000000E+00  1.20000000E+00
  1.50000000E+00  1.20000000E+00  1.20000000E+00  1.50000000E+00  1.20000000E+00
  1.20000000E+00  1.50000000E+00  1.20000000E+00  1.20000000E+00  1.50000000E+00
  1.20000000E+00  1.20000000E+00  1.50000000E+00  1.20000000E+00  1.20000000E+00
  1.50000000E+00  1.20000000E+00  1.20000000E+00  1.50000000E+00  1.20000000E+00
  1.20000000E+00  1.50000000E+00  1.20000000E+00  1.20000000E+00  1.50000000E+00
  1.20000000E+00  1.20000000E+00  1.50000000E+00  1.20000000E+00  1.20000000E+00
  1.50000000E+00  1.20000000E+00  1.20000000E+00  1.50000000E+00  1.20000000E+00
  1.20000000E+00  1.50000000E+00  1.20000000E+00  1.20000000E+00  1.50000000E+00
  1.20000000E+00  1.20000000E+00  1.50000000E+00  1.20000000E+00  1.20000000E+00
  1.50000000E+00  1.20000000E+00  1.20000000E+00  1.50000000E+00  1.20000000E+00
  1.20000000E+00  1.50000000E+00  1.20000000E+00  1.20000000E+00  1.50000000E+00
  1.20000000E+00  1.20000000E+00  1.50000000E+00  1.20000000E+00  1.20000000E+00
  1.50000000E+00  1.20000000E+00  1.20000000E+00  1.50000000E+00  1.20000000E+00
  1.20000000E+00  1.50000000E+00  1.20000000E+00  1.20000000E+00  1.50000000E+00
  1.20000000E+00  1.20000000E+00  1.50000000E+00  1.20000000E+00  1.20000000E+00
  1.50000000E+00  1.20000000E+00  1.20000000E+00  1.50000000E+00  1.20000000E+00
  1.20000000E+00  1.50000000E+00  1.20000000E+00  1.20000000E+00  1.50000000E+00
  1.20000000E+00  1.20000000E+00  1.50000000E+00  1.20000000E+00  1.20000000E+00
  1.50000000E+00  1.20000000E+00  1.20000000E+00  1.50000000E+00  1.20000000E+00
  1.20000000E+00  1.50000000E+00  1.20000000E+00  1.20000000E+00  1.50000000E+00
  1.20000000E+00  1.20000000E+00  1.50000000E+00  1.20000000E+00  1.20000000E+00
  1.50000000E+00  1.20000000E+00  1.20000000E+00  1.50000000E+00  1.20000000E+00
  1.20000000E+00  1.50000000E+00  1.20000000E+00  1.20000000E+00  1.50000000E+00
  1.20000000E+00  1.20000000E+00  1.50000000E+00  1.20000000E+00  1.20000000E+00
  1.50000000E+00  1.20000000E+00  1.20000000E+00  1.50000000E+00  1.20000000E+00
  1.20000000E+00  1.50000000E+00  1.20000000E+00  1.20000000E+00  1.50000000E+00
  1.20000000E+00  1.20000000E+00  1.50000000E+00  1.20000000E+00  1.20000000E+00
  1.50000000E+00  1.20000000E+00  1.20000000E+00  1.50000000E+00  1.20000000E+00
  1.20000000E+00  1.50000000E+00  1.20000000E+00  1.20000000E+00  1.50000000E+00
  1.20000000E+00  1.20000000E+00  1.50000000E+00  1.20000000E+00  1.20000000E+00
  1.50000000E+00  1.20000000E+00  1.20000000E+00  1.50000000E+00  1.20000000E+00
  1.20000000E+00  1.50000000E+00  1.20000000E+00  1.20000000E+00  1.50000000E+00
  1.20000000E+00  1.20000000E+00  1.50000000E+00  1.20000000E+00  1.20000000E+00
  1.50000000E+00  1.20000000E+00  1.20000000E+00  1.50000000E+00  1.20000000E+00
  1.20000000E+00  1.50000000E+00  1.20000000E+00  1.20000000E+00  1.50000000E+00
  1.20000000E+00  1.20000000E+00  1.50000000E+00  1.20000000E+00  1.20000000E+00
  1.50000000E+00  1.20000000E+00  1.20000000E+00  1.50000000E+00  1.20000000E+00
  1.20000000E+00  1.50000000E+00  1.20000000E+00  1.20000000E+00  1.50000000E+00
  1.20000000E+00  1.20000000E+00  1.50000000E+00  1.20000000E+00  1.20000000E+00
  1.50000000E+00  1.20000000E+00  1.20000000E+00  1.50000000E+00  1.20000000E+00
  1.20000000E+00  1.50000000E+00  1.20000000E+00  1.20000000E+00  1.50000000E+00
  1.20000000E+00  1.20000000E+00  1.50000000E+00  1.20000000E+00  1.20000000E+00
  1.50000000E+00  1.20000000E+00  1.20000000E+00  1.50000000E+00  1.20000000E+00
  1.20000000E+00  1.50000000E+00  1.20000000E+00  1.20000000E+00  1.50000000E+00
  1.20000000E+00  1.20000000E+00  1.50000000E+00  1.20000000E+00  1.20000000E+00
  1.50000000E+00  1.20000000E+00  1.20000000E+00  1.50000000E+00  1.20000000E+00
  1.20000000E+00  1.50000000E+00  1.20000000E+00  1.20000000E+00  1.50000000E+00
  1.20000000E+00  1.20000000E+00  1.50000000E+00  1.20000000E+00  1.20000000E+00
  1.50000000E+00  1.20000000E+00  1.20000000E+00  1.50000000E+00  1.20000000E+00
  1.20000000E+00  1.50000000E+00  1.20000000E+00  1.20000000E+00  1.50000000E+00
  1.20000000E+00  1.20000000E+00  1.50000000E+00  1.20000000E+00  1.20000000E+00
  1.50000000E+00  1.20000000E+00  1.20000000E+00  1.50000000E+00  1.20000000E+00
  1.20000000E+00  1.50000000E+00  1.20000000E+00  1.20000000E+00  1.50000000E+00
  1.20000000E+00  1.20000000E+00  1.50000000E+00  1.20000000E+00  1.20000000E+00
  1.50000000E+00  1.20000000E+00  1.20000000E+00  1.50000000E+00  1.20000000E+00
  1.20000000E+00  1.50000000E+00  1.20000000E+00  1.20000000E+00  1.50000000E+00
  1.20000000E+00  1.20000000E+00  1.50000000E+00  1.20000000E+00  1.20000000E+00
  1.50000000E+00  1.20000000E+00  1.20000000E+00  1.50000000E+00  1.20000000E+00
  1.20000000E+00  1.50000000E+00  1.20000000E+00  1.20000000E+00  1.50000000E+00
  1.20000000E+00  1.20000000E+00  1.50000000E+00  1.20000000E+00  1.20000000E+00
  1.50000000E+00  1.20000000E+00  1.20000000E+00  1.50000000E+00  1.20000000E+00
  1.20000000E+00  1.50000000E+00  1.20000000E+00  1.20000000E+00  1.50000000E+00
  1.20000000E+00  1.20000000E+00  1.50000000E+00  1.20000000E+00  1.20000000E+00
  1.50000000E+00  1.20000000E+00  1.20000000E+00  1.50000000E+00  1.20000000E+00
  1.20000000E+00  1.50000000E+00  1.20000000E+00  1.20000000E+00  1.50000000E+00
  1.20000000E+00  1.20000000E+00  1.50000000E+00  1.20000000E+00  1.20000000E+00
  1.50000000E+00  1.20000000E+00  1.20000000E+00  1.50000000E+00  1.20000000E+00
  1.20000000E+00  1.50000000E+00  1.20000000E+00  1.20000000E+00  1.50000000E+00
  1.20000000E+00  1.20000000E+00  1.50000000E+00  1.20000000E+00  1.20000000E+00
  1.50000000E+00  1.20000000E+00  1.20000000E+00  1.50000000E+00  1.20000000E+00
  1.20000000E+00  1.50000000E+00  1.20000000E+00  1.20000000E+00  1.50000000E+00
  1.20000000E+00  1.20000000E+00  1.50000000E+00  1.20000000E+00  1.20000000E+00
  1.50000000E+00  1.20000000E+00  1.20000000E+00  1.50000000E+00  1.20000000E+00
  1.20000000E+00  1.50000000E+00  1.20000000E+00  1.20000000E+00  1.50000000E+00
  1.20000000E+00  1.20000000E+00  1.50000000E+00  1.20000000E+00  1.20000000E+00
  1.50000000E+00  1.20000000E+00  1.20000000E+00  1.50000000E+00  1.20000000E+00
  1.20000000E+00  1.50000000E+00  1.20000000E+00  1.20000000E+00  1.50000000E+00
  1.20000000E+00  1.20000000E+00  1.50000000E+00  1.20000000E+00  1.20000000E+00
  1.50000000E+00  1.20000000E+00  1.20000000E+00  1.50000000E+00  1.20000000E+00
  1.20000000E+00  1.50000000E+00  1.20000000E+00  1.20000000E+00  1.50000000E+00
  1.20000000E+00  1.20000000E+00  1.50000000E+00  1.20000000E+00  1.20000000E+00
  1.50000000E+00  1.20000000E+00  1.20000000E+00  1.50000000E+00  1.20000000E+00
  1.20000000E+00  1.50000000E+00  1.20000000E+00  1.20000000E+00  1.50000000E+00
  1.20000000E+00  1.20000000E+00  1.50000000E+00  1.20000000E+00  1.20000000E+00
  1.50000000E+00  1.20000000E+00  1.20000000E+00  1.50000000E+00  1.20000000E+00
  1.20000000E+00  1.50000000E+00  1.20000000E+00  1.20000000E+00  1.50000000E+00
  1.20000000E+00  1.20000000E+00  1.50000000E+00  1.20000000E+00  1.20000000E+00
  1.50000000E+00  1.20000000E+00  1.20000000E+00  1.50000000E+00  1.20000000E+00
  1.20000000E+00  1.50000000E+00  1.20000000E+00  1.20000000E+00  1.50000000E+00
  1.20000000E+00  1.20000000E+00  1.50000000E+00  1.20000000E+00  1.20000000E+00
  1.50000000E+00  1.20000000E+00  1.20000000E+00  1.50000000E+00  1.20000000E+00
  1.20000000E+00  1.50000000E+00  1.20000000E+00  1.20000000E+00  1.50000000E+00
  1.20000000E+00  1.20000000E+00  1.50000000E+00  1.20000000E+00  1.20000000E+00
  1.50000000E+00  1.20000000E+00  1.20000000E+00  1.50000000E+00  1.20000000E+00
  1.20000000E+00  1.50000000E+00  1.20000000E+00  1.20000000E+00  1.50000000E+00
  1.20000000E+00  1.20000000E+00  1.50000000E+00  1.20000000E+00  1.20000000E+00
  1.50000000E+00  1.20000000E+00  1.20000000E+00  1.50000000E+00  1.20000000E+00
  1.20000000E+00  1.50000000E+00  1.20000000E+00  1.20000000E+00  1.50000000E+00
  1.20000000E+00  1.20000000E+00  1.50000000E+00  1.20000000E+00  1.20000000E+00
  1.50000000E+00  1.20000000E+00  1.20000000E+00  1.50000000E+00  1.20000000E+00
  1.20000000E+00  1.50000000E+00  1.20000000E+00  1.20000000E+00  1.50000000E+00
  1.20000000E+00  1.20000000E+00  1.50000000E+00  1.20000000E+00  1.20000000E+00
  1.50000000E+00  1.20000000E+00  1.20000000E+00  1.50000000E+00  1.20000000E+00
  1.20000000E+00  1.50000000E+00  1.20000000E+00  1.20000000E+00  1.50000000E+00
  1.20000000E+00  1.20000000E+00  1.50000000E+00  1.20000000E+00  1.20000000E+00
  1.50000000E+00  1.20000000E+00  1.20000000E+00  1.50000000E+00  1.20000000E+00
  1.20000000E+00  1.50000000E+00  1.20000000E+00  1.20000000E+00  1.50000000E+00
  1.20000000E+00  1.20000000E+00  1.50000000E+00  1.20000000E+00  1.20000000E+00
  1.50000000E+00  1.20000000E+00  1.20000000E+00  1.50000000E+00  1.20000000E+00
  1.20000000E+00  1.50000000E+00  1.20000000E+00  1.20000000E+00  1.50000000E+00
  1.20000000E+00  1.20000000E+00  1.50000000E+00  1.20000000E+00  1.20000000E+00
  1.50000000E+00  1.20000000E+00  1.20000000E+00  1.50000000E+00  1.20000000E+00
  1.20000000E+00  1.50000000E+00  1.20000000E+00  1.20000000E+00  1.50000000E+00
  1.20000000E+00  1.20000000E+00  1.50000000E+00  1.20000000E+00  1.20000000E+00
  1.50000000E+00  1.20000000E+00  1.20000000E+00  1.50000000E+00  1.20000000E+00
  1.20000000E+00  1.50000000E+00  1.20000000E+00  1.20000000E+00  1.50000000E+00
  1.20000000E+00  1.20000000E+00  1.50000000E+00  1.20000000E+00  1.20000000E+00
  1.50000000E+00  1.20000000E+00  1.20000000E+00  1.50000000E+00  1.20000000E+00
  1.20000000E+00  1.50000000E+00  1.20000000E+00  1.20000000E+00  1.50000000E+00
  1.20000000E+00  1.20000000E+00  1.50000000E+00  1.20000000E+00  1.20000000E+00
  1.50000000E+00  1.20000000E+00  1.20000000E+00  1.50000000E+00  1.20000000E+00
  1.20000000E+00  1.50000000E+00  1.20000000E+00  1.20000000E+00  1.50000000E+00
  1.20000000E+00  1.20000000E+00  1.50000000E+00  1.20000000E+00  1.20000000E+00
  1.50000000E+00  1.20000000E+00  1.20000000E+00  1.50000000E+00  1.20000000E+00
  1.20000000E+00  1.50000000E+00  1.20000000E+00  1.20000000E+00  1.50000000E+00
  1.20000000E+00  1.20000000E+00  1.50000000E+00  1.20000000E+00  1.20000000E+00
  1.50000000E+00  1.20000000E+00  1.20000000E+00  1.50000000E+00  1.20000000E+00
  1.20000000E+00  1.50000000E+00  1.20000000E+00  1.20000000E+00  1.50000000E+00
  1.20000000E+00  1.20000000E+00  1.50000000E+00  1.20000000E+00  1.20000000E+00
  1.50000000E+00  1.20000000E+00  1.20000000E+00  1.50000000E+00  1.20000000E+00
  1.20000000E+00  1.50000000E+00  1.20000000E+00  1.20000000E+00  1.50000000E+00
  1.20000000E+00  1.20000000E+00  1.50000000E+00  1.20000000E+00  1.20000000E+00
  1.50000000E+00  1.20000000E+00  1.20000000E+00  1.50000000E+00  1.20000000E+00
  1.20000000E+00  1.50000000E+00  1.20000000E+00  1.20000000E+00  1.50000000E+00
  1.20000000E+00  1.20000000E+00  1.50000000E+00  1.20000000E+00  1.20000000E+00
  1.50000000E+00  1.20000000E+00  1.20000000E+00  1.50000000E+00  1.20000000E+00
  1.20000000E+00  1.50000000E+00  1.20000000E+00  1.20000000E+00  1.50000000E+00
  1.20000000E+00  1.20000000E+00  1.50000000E+00  1.20000000E+00  1.20000000E+00
  1.50000000E+00  1.20000000E+00  1.20000000E+00  1.50000000E+00  1.20000000E+00
  1.20000000E+00  1.50000000E+00  1.20000000E+00  1.20000000E+00  1.50000000E+00
  1.20000000E+00  1.20000000E+00  1.50000000E+00  1.20000000E+00  1.20000000E+00
  1.50000000E+00  1.20000000E+00  1.20000000E+00  1.50000000E+00  1.20000000E+00
  1.20000000E+00  1.50000000E+00  1.20000000E+00  1.20000000E+00  1.50000000E+00
  1.20000000E+00  1.20000000E+00  1.50000000E+00  1.20000000E+00  1.20000000E+00
  1.50000000E+00  1.20000000E+00  1.20000000E+00  1.50000000E+00  1.20000000E+00
  1.20000000E+00  1.50000000E+00  1.20000000E+00  1.20000000E+00  1.50000000E+00
  1.20000000E+00  1.20000000E+00  1.50000000E+00  1.20000000E+00  1.20000000E+00
  1.50000000E+00  1.20000000E+00  1.20000000E+00  1.50000000E+00  1.20000000E+00
  1.20000000E+00  1.50000000E+00  1.20000000E+00  1.20000000E+00  1.50000000E+00
  1.20000000E+00  1.20000000E+00  1.50000000E+00  1.20000000E+00  1.20000000E+00
  1.50000000E+00  1.20000000E+00  1.20000000E+00  1.50000000E+00  1.20000000E+00
  1.20000000E+00  1.50000000E+00  1.20000000E+00  1.20000000E+00  1.50000000E+00
  1.20000000E+00  1.20000000E+00  1.50000000E+00  1.20000000E+00  1.20000000E+00
  1.50000000E+00  1.20000000E+00  1.20000000E+00  1.50000000E+00  1.20000000E+00
  1.20000000E+00  1.50000000E+00  1.20000000E+00  1.20000000E+00  1.50000000E+00
  1.20000000E+00  1.20000000E+00  1.50000000E+00  1.20000000E+00  1.20000000E+00
  1.50000000E+00  1.20000000E+00  1.20000000E+00  1.50000000E+00  1.20000000E+00
  1.20000000E+00  1.50000000E+00  1.20000000E+00  1.20000000E+00  1.50000000E+00
  1.20000000E+00  1.20000000E+00  1.50000000E+00  1.20000000E+00  1.20000000E+00
  1.50000000E+00  1.20000000E+00  1.20000000E+00  1.50000000E+00  1.20000000E+00
  1.20000000E+00  1.50000000E+00  1.20000000E+00  1.20000000E+00  1.50000000E+00
  1.20000000E+00  1.20000000E+00  1.50000000E+00  1.20000000E+00  1.20000000E+00
  1.50000000E+00  1.20000000E+00  1.20000000E+00  1.50000000E+00  1.20000000E+00
  1.20000000E+00  1.50000000E+00  1.20000000E+00  1.20000000E+00  1.50000000E+00
  1.20000000E+00  1.20000000E+00  1.50000000E+00  1.20000000E+00  1.20000000E+00
  1.50000000E+00  1.20000000E+00  1.20000000E+00  1.50000000E+00  1.20000000E+00
  1.20000000E+00  1.50000000E+00  1.20000000E+00  1.20000000E+00  1.50000000E+00
  1.20000000E+00  1.20000000E+00  1.50000000E+00  1.20000000E+00  1.20000000E+00
  1.50000000E+00  1.20000000E+00  1.20000000E+00  1.50000000E+00  1.20000000E+00
  1.20000000E+00  1.50000000E+00  1.20000000E+00  1.20000000E+00  1.50000000E+00
  1.20000000E+00  1.20000000E+00  1.50000000E+00  1.20000000E+00  1.20000000E+00
  1.50000000E+00  1.20000000E+00  1.20000000E+00  1.50000000E+00  1.20000000E+00
  1.20000000E+00  1.50000000E+00  1.20000000E+00  1.20000000E+00  1.50000000E+00
  1.20000000E+00  1.20000000E+00  1.50000000E+00  1.20000000E+00  1.20000000E+00
  1.50000000E+00  1.20000000E+00  1.20000000E+00  1.50000000E+00  1.20000000E+00
  1.20000000E+00  1.50000000E+00  1.20000000E+00  1.20000000E+00  1.50000000E+00
  1.20000000E+00  1.20000000E+00  1.50000000E+00  1.20000000E+00  1.20000000E+00
  1.50000000E+00  1.20000000E+00  1.20000000E+00  1.50000000E+00  1.20000000E+00
  1.20000000E+00  1.50000000E+00  1.20000000E+00  1.20000000E+00  1.50000000E+00
  1.20000000E+00  1.20000000E+00  1.50000000E+00  1.20000000E+00  1.20000000E+00
  1.50000000E+00  1.20000000E+00  1.20000000E+00  1.50000000E+00  1.20000000E+00
  1.20000000E+00  1.50000000E+00  1.20000000E+00  1.20000000E+00  1.50000000E+00
  1.20000000E+00  1.20000000E+00  1.50000000E+00  1.20000000E+00  1.20000000E+00
  1.50000000E+00  1.20000000E+00  1.20000000E+00  1.50000000E+00  1.20000000E+00
  1.20000000E+00  1.50000000E+00  1.20000000E+00  1.20000000E+00  1.50000000E+00
  1.20000000E+00  1.20000000E+00  1.50000000E+00  1.20000000E+00  1.20000000E+00
  1.50000000E+00  1.20000000E+00  1.20000000E+00  1.50000000E+00  1.20000000E+00
  1.20000000E+00  1.50000000E+00  1.20000000E+00  1.20000000E+00  1.50000000E+00
  1.20000000E+00  1.20000000E+00  1.50000000E+00  1.20000000E+00  1.20000000E+00
  1.50000000E+00  1.20000000E+00  1.20000000E+00  1.50000000E+00  1.20000000E+00
  1.20000000E+00  1.50000000E+00  1.20000000E+00  1.20000000E+00  1.50000000E+00
  1.20000000E+00  1.20000000E+00  1.50000000E+00  1.20000000E+00  1.20000000E+00
  1.50000000E+00  1.20000000E+00  1.20000000E+00  1.50000000E+00  1.20000000E+00
  1.20000000E+00  1.50000000E+00  1.20000000E+00  1.20000000E+00  1.50000000E+00
  1.20000000E+00  1.20000000E+00  1.50000000E+00  1.20000000E+00  1.20000000E+00
  1.50000000E+00  1.20000000E+00  1.20000000E+00  1.50000000E+00  1.20000000E+00
  1.20000000E+00  1.50000000E+00  1.20000000E+00  1.20000000E+00  1.50000000E+00
  1.20000000E+00  1.20000000E+00  1.50000000E+00  1.20000000E+00  1.20000000E+00
  1.50000000E+00  1.20000000E+00  1.20000000E+00  1.50000000E+00  1.20000000E+00
  1.20000000E+00  1.50000000E+00  1.20000000E+00  1.20000000E+00  1.50000000E+00
  1.20000000E+00  1.20000000E+00  1.50000000E+00  1.20000000E+00  1.20000000E+00
  1.50000000E+00  1.20000000E+00  1.20000000E+00  1.50000000E+00  1.20000000E+00
  1.20000000E+00  1.50000000E+00  1.20000000E+00  1.20000000E+00  1.50000000E+00
  1.20000000E+00  1.20000000E+00  1.50000000E+00  1.20000000E+00  1.20000000E+00
  1.50000000E+00  1.20000000E+00  1.20000000E+00  1.50000000E+00  1.20000000E+00
  1.20000000E+00  1.50000000E+00  1.20000000E+00  1.20000000E+00  1.50000000E+00
  1.20000000E+00  1.20000000E+00  1.50000000E+00  1.20000000E+00  1.20000000E+00
  1.50000000E+00  1.20000000E+00  1.20000000E+00  1.50000000E+00  1.20000000E+00
  1.20000000E+00  1.50000000E+00  1.20000000E+00  1.20000000E+00  1.50000000E+00
  1.20000000E+00  1.20000000E+00  1.50000000E+00  1.20000000E+00  1.20000000E+00
  1.50000000E+00  1.20000000E+00  1.20000000E+00  1.50000000E+00  1.20000000E+00
  1.20000000E+00  1.50000000E+00  1.20000000E+00  1.20000000E+00  1.50000000E+00
  1.20000000E+00  1.20000000E+00  1.50000000E+00  1.20000000E+00  1.20000000E+00
  1.50000000E+00  1.20000000E+00  1.20000000E+00  1.50000000E+00  1.20000000E+00
  1.20000000E+00  1.50000000E+00  1.20000000E+00  1.20000000E+00  1.50000000E+00
  1.20000000E+00  1.20000000E+00  1.50000000E+00  1.20000000E+00  1.20000000E+00
  1.50000000E+00  1.20000000E+00  1.20000000E+00  1.50000000E+00  1.20000000E+00
  1.20000000E+00  1.50000000E+00  1.20000000E+00  1.20000000E+00  1.50000000E+00
  1.20000000E+00  1.20000000E+00  1.50000000E+00  1.20000000E+00  1.20000000E+00
  1.50000000E+00  1.20000000E+00  1.20000000E+00  1.50000000E+00  1.20000000E+00
  1.20000000E+00  1.50000000E+00  1.20000000E+00  1.20000000E+00  1.50000000E+00
  1.20000000E+00  1.20000000E+00  1.50000000E+00  1.20000000E+00  1.20000000E+00
  1.50000000E+00  1.20000000E+00  1.20000000E+00  1.50000000E+00  1.20000000E+00
  1.20000000E+00  1.50000000E+00  1.20000000E+00  1.20000000E+00  1.50000000E+00
  1.20000000E+00  1.20000000E+00  1.50000000E+00  1.20000000E+00  1.20000000E+00
  1.50000000E+00  1.20000000E+00  1.20000000E+00  1.50000000E+00  1.20000000E+00
  1.20000000E+00  1.50000000E+00  1.20000000E+00  1.20000000E+00  1.50000000E+00
  1.20000000E+00  1.20000000E+00  1.50000000E+00  1.20000000E+00  1.20000000E+00
  1.50000000E+00  1.20000000E+00  1.20000000E+00  1.50000000E+00  1.20000000E+00
  1.20000000E+00  1.50000000E+00  1.20000000E+00  1.20000000E+00  1.50000000E+00
  1.20000000E+00  1.20000000E+00  1.50000000E+00  1.20000000E+00  1.20000000E+00
  1.50000000E+00  1.20000000E+00  1.20000000E+00  1.50000000E+00  1.20000000E+00
  1.20000000E+00  1.50000000E+00  1.20000000E+00  1.20000000E+00  1.50000000E+00
  1.20000000E+00  1.20000000E+00  1.50000000E+00  1.20000000E+00  1.20000000E+00
  1.50000000E+00  1.20000000E+00  1.20000000E+00  1.50000000E+00  1.20000000E+00
  1.20000000E+00  1.50000000E+00  1.20000000E+00  1.20000000E+00  1.50000000E+00
  1.20000000E+00  1.20000000E+00  1.50000000E+00  1.20000000E+00  1.20000000E+00
  1.50000000E+00  1.20000000E+00  1.20000000E+00  1.50000000E+00  1.20000000E+00
  1.20000000E+00  1.50000000E+00  1.20000000E+00  1.20000000E+00  1.50000000E+00
  1.20000000E+00  1.20000000E+00  1.50000000E+00  1.20000000E+00  1.20000000E+00
  1.50000000E+00  1.20000000E+00  1.20000000E+00  1.50000000E+00  1.20000000E+00
  1.20000000E+00  1.50000000E+00  1.20000000E+00  1.20000000E+00  1.50000000E+00
  1.20000000E+00  1.20000000E+00  1.50000000E+00  1.20000000E+00  1.20000000E+00
  1.50000000E+00  1.20000000E+00  1.20000000E+00  1.50000000E+00  1.20000000E+00
  1.20000000E+00  1.50000000E+00  1.20000000E+00  1.20000000E+00  1.50000000E+00
  1.20000000E+00  1.20000000E+00  1.50000000E+00  1.20000000E+00  1.20000000E+00
  1.50000000E+00  1.20000000E+00  1.20000000E+00  1.50000000E+00  1.20000000E+00
  1.20000000E+00  1.50000000E+00  1.20000000E+00  1.20000000E+00  1.50000000E+00
  1.20000000E+00  1.20000000E+00  1.50000000E+00  1.20000000E+00  1.20000000E+00
  1.50000000E+00  1.20000000E+00  1.20000000E+00  1.50000000E+00  1.20000000E+00
  1.20000000E+00  1.50000000E+00  1.20000000E+00  1.20000000E+00  1.50000000E+00
  1.20000000E+00  1.20000000E+00  1.50000000E+00  1.20000000E+00  1.20000000E+00
  1.50000000E+00  1.20000000E+00  1.20000000E+00  1.50000000E+00  1.20000000E+00
  1.20000000E+00  1.50000000E+00  1.20000000E+00  1.20000000E+00  1.50000000E+00
  1.20000000E+00  1.20000000E+00  1.50000000E+00  1.20000000E+00  1.20000000E+00
  1.50000000E+00  1.20000000E+00  1.20000000E+00  1.50000000E+00  1.20000000E+00
  1.20000000E+00  1.50000000E+00  1.20000000E+00  1.20000000E+00  1.50000000E+00
  1.20000000E+00  1.20000000E+00  1.50000000E+00  1.20000000E+00  1.20000000E+00
  1.50000000E+00  1.20000000E+00  1.20000000E+00  1.50000000E+00  1.20000000E+00
  1.20000000E+00  1.50000000E+00  1.20000000E+00  1.20000000E+00  1.50000000E+00
  1.20000000E+00  1.20000000E+00  1.50000000E+00  1.20000000E+00  1.20000000E+00
  1.50000000E+00  1.20000000E+00  1.20000000E+00  1.50000000E+00  1.20000000E+00
  1.20000000E+00  1.50000000E+00  1.20000000E+00  1.20000000E+00  1.50000000E+00
  1.20000000E+00  1.20000000E+00  1.50000000E+00  1.20000000E+00  1.20000000E+00
  1.50000000E+00  1.20000000E+00  1.20000000E+00  1.50000000E+00  1.20000000E+00
  1.20000000E+00  1.50000000E+00  1.20000000E+00  1.20000000E+00  1.50000000E+00
  1.20000000E+00  1.20000000E+00  1.50000000E+00  1.20000000E+00  1.20000000E+00
  1.50000000E+00  1.20000000E+00  1.20000000E+00  1.50000000E+00  1.20000000E+00
  1.20000000E+00  1.50000000E+00  1.20000000E+00  1.20000000E+00  1.50000000E+00
  1.20000000E+00  1.20000000E+00  1.50000000E+00  1.20000000E+00  1.20000000E+00
  1.50000000E+00  1.20000000E+00  1.20000000E+00  1.50000000E+00  1.20000000E+00
  1.20000000E+00  1.50000000E+00  1.20000000E+00  1.20000000E+00  1.50000000E+00
  1.20000000E+00  1.20000000E+00  1.50000000E+00  1.20000000E+00  1.20000000E+00
  1.50000000E+00  1.20000000E+00  1.20000000E+00  1.50000000E+00  1.20000000E+00
  1.20000000E+00  1.50000000E+00  1.20000000E+00  1.20000000E+00  1.50000000E+00
  1.20000000E+00  1.20000000E+00  1.50000000E+00  1.20000000E+00  1.20000000E+00
  1.50000000E+00  1.20000000E+00  1.20000000E+00  1.50000000E+00  1.20000000E+00
  1.20000000E+00  1.50000000E+00  1.20000000E+00  1.20000000E+00  1.50000000E+00
  1.20000000E+00  1.20000000E+00  1.50000000E+00  1.20000000E+00  1.20000000E+00
  1.50000000E+00  1.20000000E+00  1.20000000E+00  1.50000000E+00  1.20000000E+00
  1.20000000E+00  1.50000000E+00  1.20000000E+00  1.20000000E+00  1.50000000E+00
  1.20000000E+00  1.20000000E+00  1.50000000E+00  1.20000000E+00  1.20000000E+00
  1.50000000E+00  1.20000000E+00  1.20000000E+00  1.50000000E+00  1.20000000E+00
  1.20000000E+00  1.50000000E+00  1.20000000E+00  1.20000000E+00  1.50000000E+00
  1.20000000E+00  1.20000000E+00  1.50000000E+00  1.20000000E+00  1.20000000E+00
  1.50000000E+00  1.20000000E+00  1.20000000E+00  1.50000000E+00  1.20000000E+00
  1.20000000E+00  1.50000000E+00  1.20000000E+00  1.20000000E+00  1.50000000E+00
  1.20000000E+00  1.20000000E+00  1.50000000E+00  1.20000000E+00  1.20000000E+00
  1.50000000E+00  1.20000000E+00  1.20000000E+00  1.50000000E+00  1.20000000E+00
  1.20000000E+00  1.50000000E+00  1.20000000E+00  1.20000000E+00  1.50000000E+00
  1.20000000E+00  1.20000000E+00  1.50000000E+00  1.20000000E+00  1.20000000E+00
  1.50000000E+00  1.20000000E+00  1.20000000E+00  1.50000000E+00  1.20000000E+00
  1.20000000E+00  1.50000000E+00  1.20000000E+00  1.20000000E+00  1.50000000E+00
  1.20000000E+00  1.20000000E+00  1.50000000E+00  1.20000000E+00  1.20000000E+00
  1.50000000E+00  1.20000000E+00  1.20000000E+00  1.50000000E+00  1.20000000E+00
  1.20000000E+00  1.50000000E+00  1.20000000E+00  1.20000000E+00  1.50000000E+00
  1.20000000E+00  1.20000000E+00  1.50000000E+00  1.20000000E+00  1.20000000E+00
  1.50000000E+00  1.20000000E+00  1.20000000E+00  1.50000000E+00  1.20000000E+00
  1.20000000E+00  1.50000000E+00  1.20000000E+00  1.20000000E+00  1.50000000E+00
  1.20000000E+00  1.20000000E+00  1.50000000E+00  1.20000000E+00  1.20000000E+00
  1.50000000E+00  1.20000000E+00  1.20000000E+00  1.50000000E+00  1.20000000E+00
  1.20000000E+00  1.50000000E+00  1.20000000E+00  1.20000000E+00  1.50000000E+00
  1.20000000E+00  1.20000000E+00  1.50000000E+00  1.20000000E+00  1.20000000E+00
  1.50000000E+00  1.20000000E+00  1.20000000E+00  1.50000000E+00  1.20000000E+00
  1.20000000E+00  1.50000000E+00  1.20000000E+00  1.20000000E+00  1.50000000E+00
  1.20000000E+00  1.20000000E+00  1.50000000E+00  1.20000000E+00  1.20000000E+00
  1.50000000E+00  1.20000000E+00  1.20000000E+00  1.50000000E+00  1.20000000E+00
  1.20000000E+00  1.50000000E+00  1.20000000E+00  1.20000000E+00  1.50000000E+00
  1.20000000E+00  1.20000000E+00  1.50000000E+00  1.20000000E+00  1.20000000E+00
  1.50000000E+00  1.20000000E+00  1.20000000E+00  1.50000000E+00  1.20000000E+00
  1.20000000E+00  1.50000000E+00  1.20000000E+00  1.20000000E+00  1.50000000E+00
  1.20000000E+00  1.20000000E+00  1.50000000E+00  1.20000000E+00  1.20000000E+00
  1.50000000E+00  1.20000000E+00  1.20000000E+00  1.50000000E+00  1.20000000E+00
  1.20000000E+00  1.50000000E+00  1.20000000E+00  1.20000000E+00  1.50000000E+00
  1.20000000E+00  1.20000000E+00  1.50000000E+00  1.20000000E+00  1.20000000E+00
  1.50000000E+00  1.20000000E+00  1.20000000E+00  1.50000000E+00  1.20000000E+00
  1.20000000E+00  1.50000000E+00  1.20000000E+00  1.20000000E+00  1.50000000E+00
  1.20000000E+00  1.20000000E+00  1.50000000E+00  1.20000000E+00  1.20000000E+00
  1.50000000E+00  1.20000000E+00  1.20000000E+00  1.50000000E+00  1.20000000E+00
  1.20000000E+00  1.50000000E+00  1.20000000E+00  1.20000000E+00  1.50000000E+00
  1.20000000E+00  1.20000000E+00  1.50000000E+00  1.20000000E+00  1.20000000E+00
  1.50000000E+00  1.20000000E+00  1.20000000E+00  1.50000000E+00  1.20000000E+00
  1.20000000E+00  1.50000000E+00  1.20000000E+00  1.20000000E+00  1.50000000E+00
  1.20000000E+00  1.20000000E+00  1.50000000E+00  1.20000000E+00  1.20000000E+00
  1.50000000E+00  1.20000000E+00  1.20000000E+00  1.50000000E+00  1.20000000E+00
  1.20000000E+00  1.50000000E+00  1.20000000E+00  1.20000000E+00  1.50000000E+00
  1.20000000E+00  1.20000000E+00  1.50000000E+00  1.20000000E+00  1.20000000E+00
  1.50000000E+00  1.20000000E+00  1.20000000E+00  1.50000000E+00  1.20000000E+00
  1.20000000E+00  1.50000000E+00  1.20000000E+00  1.20000000E+00  1.50000000E+00
  1.20000000E+00  1.20000000E+00  1.50000000E+00  1.20000000E+00  1.20000000E+00
  1.50000000E+00  1.20000000E+00  1.20000000E+00  1.50000000E+00  1.20000000E+00
  1.20000000E+00  1.50000000E+00  1.20000000E+00  1.20000000E+00  1.50000000E+00
  1.20000000E+00  1.20000000E+00  1.50000000E+00  1.20000000E+00  1.20000000E+00
  1.50000000E+00  1.20000000E+00  1.20000000E+00  1.50000000E+00  1.20000000E+00
  1.20000000E+00  1.50000000E+00  1.20000000E+00  1.20000000E+00  1.50000000E+00
  1.20000000E+00  1.20000000E+00  1.50000000E+00  1.20000000E+00  1.20000000E+00
  1.50000000E+00  1.20000000E+00  1.20000000E+00  1.50000000E+00  1.20000000E+00
  1.20000000E+00  1.50000000E+00  1.20000000E+00  1.20000000E+00  1.50000000E+00
  1.20000000E+00  1.20000000E+00  1.50000000E+00  1.20000000E+00  1.20000000E+00
  1.50000000E+00  1.20000000E+00  1.20000000E+00  1.50000000E+00  1.20000000E+00
  1.20000000E+00  1.50000000E+00  1.20000000E+00  1.20000000E+00  1.50000000E+00
  1.20000000E+00  1.20000000E+00  1.50000000E+00  1.20000000E+00  1.20000000E+00
  1.50000000E+00  1.20000000E+00  1.20000000E+00  1.50000000E+00  1.20000000E+00
  1.20000000E+00  1.50000000E+00  1.20000000E+00  1.20000000E+00  1.50000000E+00
  1.20000000E+00  1.20000000E+00  1.50000000E+00  1.20000000E+00  1.20000000E+00
  1.50000000E+00  1.20000000E+00  1.20000000E+00  1.50000000E+00  1.20000000E+00
  1.20000000E+00  1.50000000E+00  1.20000000E+00  1.20000000E+00  1.50000000E+00
  1.20000000E+00  1.20000000E+00  1.50000000E+00  1.20000000E+00  1.20000000E+00
  1.50000000E+00  1.20000000E+00  1.20000000E+00  1.50000000E+00  1.20000000E+00
  1.20000000E+00  1.50000000E+00  1.20000000E+00  1.20000000E+00  1.50000000E+00
  1.20000000E+00  1.20000000E+00  1.50000000E+00  1.20000000E+00  1.20000000E+00
  1.50000000E+00  1.20000000E+00  1.20000000E+00  1.50000000E+00  1.20000000E+00
  1.20000000E+00  1.50000000E+00  1.20000000E+00  1.20000000E+00  1.50000000E+00
  1.20000000E+00  1.20000000E+00  1.50000000E+00  1.20000000E+00  1.20000000E+00
  1.50000000E+00  1.20000000E+00  1.20000000E+00  1.50000000E+00  1.20000000E+00
  1.20000000E+00  1.50000000E+00  1.20000000E+00  1.20000000E+00  1.50000000E+00
  1.20000000E+00  1.20000000E+00  1.50000000E+00  1.20000000E+00  1.20000000E+00
  1.50000000E+00  1.20000000E+00  1.20000000E+00  1.50000000E+00  1.20000000E+00
  1.20000000E+00  1.50000000E+00  1.20000000E+00  1.20000000E+00  1.50000000E+00
  1.20000000E+00  1.20000000E+00  1.50000000E+00  1.20000000E+00  1.20000000E+00
  1.50000000E+00  1.20000000E+00  1.20000000E+00  1.50000000E+00  1.20000000E+00
  1.20000000E+00  1.50000000E+00  1.20000000E+00  1.20000000E+00  1.50000000E+00
  1.20000000E+00  1.20000000E+00  1.50000000E+00  1.20000000E+00  1.20000000E+00
  1.50000000E+00  1.20000000E+00  1.20000000E+00  1.50000000E+00  1.20000000E+00
  1.20000000E+00  1.50000000E+00  1.20000000E+00  1.20000000E+00  1.50000000E+00
  1.20000000E+00  1.20000000E+00  1.50000000E+00  1.20000000E+00  1.20000000E+00
  1.50000000E+00  1.20000000E+00  1.20000000E+00  1.50000000E+00  1.20000000E+00
  1.20000000E+00  1.50000000E+00  1.20000000E+00  1.20000000E+00  1.50000000E+00
  1.20000000E+00  1.20000000E+00  1.50000000E+00  1.20000000E+00  1.20000000E+00
  1.50000000E+00  1.20000000E+00  1.20000000E+00  1.50000000E+00  1.20000000E+00
  1.20000000E+00  1.50000000E+00  1.20000000E+00  1.20000000E+00  1.50000000E+00
  1.20000000E+00  1.20000000E+00  1.50000000E+00  1.20000000E+00  1.20000000E+00
  1.50000000E+00  1.20000000E+00  1.20000000E+00  1.50000000E+00  1.20000000E+00
  1.20000000E+00  1.50000000E+00  1.20000000E+00  1.20000000E+00  1.50000000E+00
  1.20000000E+00  1.20000000E+00  1.50000000E+00  1.20000000E+00  1.20000000E+00
  1.50000000E+00  1.20000000E+00  1.20000000E+00  1.50000000E+00  1.20000000E+00
  1.20000000E+00  1.50000000E+00  1.20000000E+00  1.20000000E+00  1.50000000E+00
  1.20000000E+00  1.20000000E+00  1.50000000E+00  1.20000000E+00  1.20000000E+00
  1.50000000E+00  1.20000000E+00  1.20000000E+00  1.50000000E+00  1.20000000E+00
  1.20000000E+00  1.50000000E+00  1.20000000E+00  1.20000000E+00  1.50000000E+00
  1.20000000E+00  1.20000000E+00  1.50000000E+00  1.20000000E+00  1.20000000E+00
  1.50000000E+00  1.20000000E+00  1.20000000E+00  1.50000000E+00  1.20000000E+00
  1.20000000E+00  1.50000000E+00  1.20000000E+00  1.20000000E+00  1.50000000E+00
  1.20000000E+00  1.20000000E+00  1.50000000E+00  1.20000000E+00  1.20000000E+00
  1.50000000E+00  1.20000000E+00  1.20000000E+00  1.50000000E+00  1.20000000E+00
  1.20000000E+00  1.50000000E+00  1.20000000E+00  1.20000000E+00  1.50000000E+00
  1.20000000E+00  1.20000000E+00  1.50000000E+00  1.20000000E+00  1.20000000E+00
  1.50000000E+00  1.20000000E+00  1.20000000E+00  1.50000000E+00  1.20000000E+00
  1.20000000E+00  1.50000000E+00  1.20000000E+00  1.20000000E+00  1.50000000E+00
  1.20000000E+00  1.20000000E+00  1.50000000E+00  1.20000000E+00  1.20000000E+00
  1.50000000E+00  1.20000000E+00  1.20000000E+00  1.50000000E+00  1.20000000E+00
  1.20000000E+00  1.50000000E+00  1.20000000E+00  1.20000000E+00  1.50000000E+00
  1.20000000E+00  1.20000000E+00  1.50000000E+00  1.20000000E+00  1.20000000E+00
  1.50000000E+00  1.20000000E+00  1.20000000E+00  1.50000000E+00  1.20000000E+00
  1.20000000E+00  1.50000000E+00  1.20000000E+00  1.20000000E+00  1.50000000E+00
  1.20000000E+00  1.20000000E+00  1.50000000E+00  1.20000000E+00  1.20000000E+00
  1.50000000E+00  1.20000000E+00  1.20000000E+00  1.50000000E+00  1.20000000E+00
  1.20000000E+00  1.50000000E+00  1.20000000E+00  1.20000000E+00  1.50000000E+00
  1.20000000E+00  1.20000000E+00  1.50000000E+00  1.20000000E+00  1.20000000E+00
  1.50000000E+00  1.20000000E+00  1.20000000E+00  1.50000000E+00  1.20000000E+00
  1.20000000E+00  1.50000000E+00  1.20000000E+00  1.20000000E+00  1.50000000E+00
  1.20000000E+00  1.20000000E+00  1.50000000E+00  1.20000000E+00  1.20000000E+00
  1.50000000E+00  1.20000000E+00  1.20000000E+00  1.50000000E+00  1.20000000E+00
  1.20000000E+00  1.50000000E+00  1.20000000E+00  1.20000000E+00  1.50000000E+00
  1.20000000E+00  1.20000000E+00  1.50000000E+00  1.20000000E+00  1.20000000E+00
  1.50000000E+00  1.20000000E+00  1.20000000E+00  1.50000000E+00  1.20000000E+00
  1.20000000E+00  1.50000000E+00  1.20000000E+00  1.20000000E+00  1.50000000E+00
  1.20000000E+00  1.20000000E+00  1.50000000E+00  1.20000000E+00  1.20000000E+00
  1.50000000E+00  1.20000000E+00  1.20000000E+00  1.50000000E+00  1.20000000E+00
  1.20000000E+00  1.50000000E+00  1.20000000E+00  1.20000000E+00  1.50000000E+00
  1.20000000E+00  1.20000000E+00  1.50000000E+00  1.20000000E+00  1.20000000E+00
  1.50000000E+00  1.20000000E+00  1.20000000E+00  1.50000000E+00  1.20000000E+00
  1.20000000E+00  1.50000000E+00  1.20000000E+00  1.20000000E+00  1.50000000E+00
  1.20000000E+00  1.20000000E+00  1.50000000E+00  1.20000000E+00  1.20000000E+00
  1.50000000E+00  1.20000000E+00  1.20000000E+00  1.50000000E+00  1.20000000E+00
  1.20000000E+00  1.50000000E+00  1.20000000E+00  1.20000000E+00  1.50000000E+00
  1.20000000E+00  1.20000000E+00  1.50000000E+00  1.20000000E+00  1.20000000E+00
  1.50000000E+00  1.20000000E+00  1.20000000E+00  1.50000000E+00  1.20000000E+00
  1.20000000E+00  1.50000000E+00  1.20000000E+00  1.20000000E+00  1.50000000E+00
  1.20000000E+00  1.20000000E+00  1.50000000E+00  1.20000000E+00  1.20000000E+00
  1.50000000E+00  1.20000000E+00  1.20000000E+00  1.50000000E+00  1.20000000E+00
  1.20000000E+00  1.50000000E+00  1.20000000E+00  1.20000000E+00  1.50000000E+00
  1.20000000E+00  1.20000000E+00  1.50000000E+00  1.20000000E+00  1.20000000E+00
  1.50000000E+00  1.20000000E+00  1.20000000E+00  1.50000000E+00  1.20000000E+00
  1.20000000E+00  1.50000000E+00  1.20000000E+00  1.20000000E+00  1.50000000E+00
  1.20000000E+00  1.20000000E+00  1.50000000E+00  1.20000000E+00  1.20000000E+00
  1.50000000E+00  1.20000000E+00  1.20000000E+00  1.50000000E+00  1.20000000E+00
  1.20000000E+00  1.50000000E+00  1.20000000E+00  1.20000000E+00  1.50000000E+00
  1.20000000E+00  1.20000000E+00  1.50000000E+00  1.20000000E+00  1.20000000E+00
  1.50000000E+00  1.20000000E+00  1.20000000E+00  1.50000000E+00  1.20000000E+00
  1.20000000E+00  1.50000000E+00  1.20000000E+00  1.20000000E+00  1.50000000E+00
  1.20000000E+00  1.20000000E+00  1.50000000E+00  1.20000000E+00  1.20000000E+00
  1.50000000E+00  1.20000000E+00  1.20000000E+00  1.50000000E+00  1.20000000E+00
  1.20000000E+00  1.50000000E+00  1.20000000E+00  1.20000000E+00  1.50000000E+00
  1.20000000E+00  1.20000000E+00  1.50000000E+00  1.20000000E+00  1.20000000E+00
  1.50000000E+00  1.20000000E+00  1.20000000E+00  1.50000000E+00  1.20000000E+00
  1.20000000E+00  1.50000000E+00  1.20000000E+00  1.20000000E+00  1.50000000E+00
  1.20000000E+00  1.20000000E+00  1.50000000E+00  1.20000000E+00  1.20000000E+00
  1.50000000E+00  1.20000000E+00  1.20000000E+00  1.50000000E+00  1.20000000E+00
  1.20000000E+00  1.50000000E+00  1.20000000E+00  1.20000000E+00  1.50000000E+00
  1.20000000E+00  1.20000000E+00  1.50000000E+00  1.20000000E+00  1.20000000E+00
  1.50000000E+00  1.20000000E+00  1.20000000E+00  1.50000000E+00  1.20000000E+00
  1.20000000E+00  1.50000000E+00  1.20000000E+00  1.20000000E+00  1.50000000E+00
  1.20000000E+00  1.20000000E+00  1.50000000E+00  1.20000000E+00  1.20000000E+00
  1.50000000E+00  1.20000000E+00  1.20000000E+00  1.50000000E+00  1.20000000E+00
  1.20000000E+00  1.50000000E+00  1.20000000E+00  1.20000000E+00  1.50000000E+00
  1.20000000E+00  1.20000000E+00  1.50000000E+00  1.20000000E+00  1.20000000E+00
  1.50000000E+00  1.20000000E+00  1.20000000E+00  1.50000000E+00  1.20000000E+00
  1.20000000E+00  1.50000000E+00  1.20000000E+00  1.20000000E+00  1.50000000E+00
  1.20000000E+00  1.20000000E+00  1.50000000E+00  1.20000000E+00  1.20000000E+00
  1.50000000E+00  1.20000000E+00  1.20000000E+00  1.50000000E+00  1.20000000E+00
  1.20000000E+00  1.50000000E+00  1.20000000E+00  1.20000000E+00  1.50000000E+00
  1.20000000E+00  1.20000000E+00  1.50000000E+00  1.20000000E+00  1.20000000E+00
  1.50000000E+00  1.20000000E+00  1.20000000E+00  1.50000000E+00  1.20000000E+00
  1.20000000E+00  1.50000000E+00  1.20000000E+00  1.20000000E+00  1.50000000E+00
  1.20000000E+00  1.20000000E+00  1.50000000E+00  1.20000000E+00  1.20000000E+00
  1.50000000E+00  1.20000000E+00  1.20000000E+00  1.50000000E+00  1.20000000E+00
  1.20000000E+00  1.50000000E+00  1.20000000E+00  1.20000000E+00  1.50000000E+00
  1.20000000E+00  1.20000000E+00  1.50000000E+00  1.20000000E+00  1.20000000E+00
  1.50000000E+00  1.20000000E+00  1.20000000E+00  1.50000000E+00  1.20000000E+00
  1.20000000E+00  1.50000000E+00  1.20000000E+00  1.20000000E+00  1.50000000E+00
  1.20000000E+00  1.20000000E+00  1.50000000E+00  1.20000000E+00  1.20000000E+00
  1.50000000E+00  1.20000000E+00  1.20000000E+00  1.50000000E+00  1.20000000E+00
  1.20000000E+00  1.50000000E+00  1.20000000E+00  1.20000000E+00  1.50000000E+00
  1.20000000E+00  1.20000000E+00  1.50000000E+00  1.20000000E+00  1.20000000E+00
  1.50000000E+00  1.20000000E+00  1.20000000E+00  1.50000000E+00  1.20000000E+00
  1.20000000E+00  1.50000000E+00  1.20000000E+00  1.20000000E+00  1.50000000E+00
  1.20000000E+00  1.20000000E+00  1.50000000E+00  1.20000000E+00  1.20000000E+00
  1.50000000E+00  1.20000000E+00  1.20000000E+00  1.50000000E+00  1.20000000E+00
  1.20000000E+00  1.50000000E+00  1.20000000E+00  1.20000000E+00  1.50000000E+00
  1.20000000E+00  1.20000000E+00  1.50000000E+00  1.20000000E+00  1.20000000E+00
  1.50000000E+00  1.20000000E+00  1.20000000E+00  1.50000000E+00  1.20000000E+00
  1.20000000E+00  1.50000000E+00  1.20000000E+00  1.20000000E+00  1.50000000E+00
  1.20000000E+00  1.20000000E+00  1.50000000E+00  1.20000000E+00  1.20000000E+00
  1.50000000E+00  1.20000000E+00  1.20000000E+00  1.50000000E+00  1.20000000E+00
  1.20000000E+00  1.50000000E+00  1.20000000E+00  1.20000000E+00  1.50000000E+00
  1.20000000E+00  1.20000000E+00  1.50000000E+00  1.20000000E+00  1.20000000E+00
  1.50000000E+00  1.20000000E+00  1.20000000E+00  1.50000000E+00  1.20000000E+00
  1.20000000E+00  1.50000000E+00  1.20000000E+00  1.20000000E+00  1.50000000E+00
  1.20000000E+00  1.20000000E+00  1.50000000E+00  1.20000000E+00  1.20000000E+00
  1.50000000E+00  1.20000000E+00  1.20000000E+00  1.50000000E+00  1.20000000E+00
  1.20000000E+00  1.50000000E+00  1.20000000E+00  1.20000000E+00  1.50000000E+00
  1.20000000E+00  1.20000000E+00  1.50000000E+00  1.20000000E+00  1.20000000E+00
  1.50000000E+00  1.20000000E+00  1.20000000E+00  1.50000000E+00  1.20000000E+00
  1.20000000E+00  1.50000000E+00  1.20000000E+00  1.20000000E+00  1.50000000E+00
  1.20000000E+00  1.20000000E+00  1.50000000E+00  1.20000000E+00  1.20000000E+00
  1.50000000E+00  1.20000000E+00  1.20000000E+00  1.50000000E+00  1.20000000E+00
  1.20000000E+00  1.50000000E+00  1.20000000E+00  1.20000000E+00  1.50000000E+00
  1.20000000E+00  1.20000000E+00  1.50000000E+00  1.20000000E+00  1.20000000E+00
  1.50000000E+00  1.20000000E+00  1.20000000E+00  1.50000000E+00  1.20000000E+00
  1.20000000E+00  1.50000000E+00  1.20000000E+00  1.20000000E+00  1.50000000E+00
  1.20000000E+00  1.20000000E+00  1.50000000E+00  1.20000000E+00  1.20000000E+00
  1.50000000E+00  1.20000000E+00  1.20000000E+00  1.50000000E+00  1.20000000E+00
  1.20000000E+00  1.50000000E+00  1.20000000E+00  1.20000000E+00  1.50000000E+00
  1.20000000E+00  1.20000000E+00  1.50000000E+00  1.20000000E+00  1.20000000E+00
  1.50000000E+00  1.20000000E+00  1.20000000E+00  1.50000000E+00  1.20000000E+00
  1.20000000E+00  1.50000000E+00  1.20000000E+00  1.20000000E+00  1.50000000E+00
  1.20000000E+00  1.20000000E+00  1.50000000E+00  1.20000000E+00  1.20000000E+00
  1.50000000E+00  1.20000000E+00  1.20000000E+00  1.50000000E+00  1.20000000E+00
  1.20000000E+00  1.50000000E+00  1.20000000E+00  1.20000000E+00  1.50000000E+00
  1.20000000E+00  1.20000000E+00  1.50000000E+00  1.20000000E+00  1.20000000E+00
  1.50000000E+00  1.20000000E+00  1.20000000E+00  1.50000000E+00  1.20000000E+00
  1.20000000E+00  1.50000000E+00  1.20000000E+00  1.20000000E+00  1.50000000E+00
  1.20000000E+00  1.20000000E+00  1.50000000E+00  1.20000000E+00  1.20000000E+00
  1.50000000E+00  1.20000000E+00  1.20000000E+00  1.50000000E+00  1.20000000E+00
  1.20000000E+00  1.50000000E+00  1.20000000E+00  1.20000000E+00  1.50000000E+00
  1.20000000E+00  1.20000000E+00  1.50000000E+00  1.20000000E+00  1.20000000E+00
  1.50000000E+00  1.20000000E+00  1.20000000E+00  1.50000000E+00  1.20000000E+00
  1.20000000E+00  1.50000000E+00  1.20000000E+00  1.20000000E+00  1.50000000E+00
  1.20000000E+00  1.20000000E+00  1.50000000E+00  1.20000000E+00  1.20000000E+00
  1.50000000E+00  1.20000000E+00  1.20000000E+00  1.50000000E+00  1.20000000E+00
  1.20000000E+00  1.50000000E+00  1.20000000E+00  1.20000000E+00  1.50000000E+00
  1.20000000E+00  1.20000000E+00  1.50000000E+00  1.20000000E+00  1.20000000E+00
  1.50000000E+00  1.20000000E+00  1.20000000E+00  1.50000000E+00  1.20000000E+00
  1.20000000E+00  1.50000000E+00  1.20000000E+00  1.20000000E+00  1.50000000E+00
  1.20000000E+00  1.20000000E+00  1.50000000E+00  1.20000000E+00  1.20000000E+00
  1.50000000E+00  1.20000000E+00  1.20000000E+00  1.50000000E+00  1.20000000E+00
  1.20000000E+00  1.50000000E+00  1.20000000E+00  1.20000000E+00  1.50000000E+00
  1.20000000E+00  1.20000000E+00  1.50000000E+00  1.20000000E+00  1.20000000E+00
  1.50000000E+00  1.20000000E+00  1.20000000E+00  1.50000000E+00  1.20000000E+00
  1.20000000E+00  1.50000000E+00  1.20000000E+00  1.20000000E+00  1.50000000E+00
  1.20000000E+00  1.20000000E+00  1.50000000E+00  1.20000000E+00  1.20000000E+00
  1.50000000E+00  1.20000000E+00  1.20000000E+00  1.50000000E+00  1.20000000E+00
  1.20000000E+00  1.50000000E+00  1.20000000E+00  1.20000000E+00  1.50000000E+00
  1.20000000E+00  1.20000000E+00  1.50000000E+00  1.20000000E+00  1.20000000E+00
  1.50000000E+00  1.20000000E+00  1.20000000E+00  1.50000000E+00  1.20000000E+00
  1.20000000E+00  1.50000000E+00  1.20000000E+00  1.20000000E+00  1.50000000E+00
  1.20000000E+00  1.20000000E+00  1.50000000E+00  1.20000000E+00  1.20000000E+00
  1.50000000E+00  1.20000000E+00  1.20000000E+00  1.50000000E+00  1.20000000E+00
  1.20000000E+00  1.50000000E+00  1.20000000E+00  1.20000000E+00  1.50000000E+00
  1.20000000E+00  1.20000000E+00  1.50000000E+00  1.20000000E+00  1.20000000E+00
  1.50000000E+00  1.20000000E+00  1.20000000E+00  1.50000000E+00  1.20000000E+00
  1.20000000E+00  1.50000000E+00  1.20000000E+00  1.20000000E+00  1.50000000E+00
  1.20000000E+00  1.20000000E+00  1.50000000E+00  1.20000000E+00  1.20000000E+00
  1.50000000E+00  1.20000000E+00  1.20000000E+00  1.50000000E+00  1.20000000E+00
  1.20000000E+00  1.50000000E+00  1.20000000E+00  1.20000000E+00  1.50000000E+00
  1.20000000E+00  1.20000000E+00  1.50000000E+00  1.20000000E+00  1.20000000E+00
  1.50000000E+00  1.20000000E+00  1.20000000E+00  1.50000000E+00  1.20000000E+00
  1.20000000E+00  1.50000000E+00  1.20000000E+00  1.20000000E+00  1.50000000E+00
  1.20000000E+00  1.20000000E+00  1.50000000E+00  1.20000000E+00  1.20000000E+00
  1.50000000E+00  1.20000000E+00  1.20000000E+00  1.50000000E+00  1.20000000E+00
  1.20000000E+00  1.50000000E+00  1.20000000E+00  1.20000000E+00  1.50000000E+00
  1.20000000E+00  1.20000000E+00  1.50000000E+00  1.20000000E+00  1.20000000E+00
  1.50000000E+00  1.20000000E+00  1.20000000E+00  1.50000000E+00  1.20000000E+00
  1.20000000E+00  1.50000000E+00  1.20000000E+00  1.20000000E+00  1.50000000E+00
  1.20000000E+00  1.20000000E+00  1.50000000E+00  1.20000000E+00  1.20000000E+00
  1.50000000E+00  1.20000000E+00  1.20000000E+00  1.50000000E+00  1.20000000E+00
  1.20000000E+00  1.50000000E+00  1.20000000E+00  1.20000000E+00  1.50000000E+00
  1.20000000E+00  1.20000000E+00  1.50000000E+00  1.20000000E+00  1.20000000E+00
  1.50000000E+00  1.20000000E+00  1.20000000E+00  1.50000000E+00  1.20000000E+00
  1.20000000E+00  1.50000000E+00  1.20000000E+00  1.20000000E+00  1.50000000E+00
  1.20000000E+00  1.20000000E+00  1.50000000E+00  1.20000000E+00  1.20000000E+00
  1.50000000E+00  1.20000000E+00  1.20000000E+00  1.50000000E+00  1.20000000E+00
  1.20000000E+00  1.50000000E+00  1.20000000E+00  1.20000000E+00  1.50000000E+00
  1.20000000E+00  1.20000000E+00  1.50000000E+00  1.20000000E+00  1.20000000E+00
  1.50000000E+00  1.20000000E+00  1.20000000E+00  1.50000000E+00  1.20000000E+00
  1.20000000E+00  1.50000000E+00  1.20000000E+00  1.20000000E+00  1.50000000E+00
  1.20000000E+00  1.20000000E+00  1.50000000E+00  1.20000000E+00  1.20000000E+00
  1.50000000E+00  1.20000000E+00  1.20000000E+00  1.50000000E+00  1.20000000E+00
  1.20000000E+00  1.50000000E+00  1.20000000E+00  1.20000000E+00  1.50000000E+00
  1.20000000E+00  1.20000000E+00  1.50000000E+00  1.20000000E+00  1.20000000E+00
  1.50000000E+00  1.20000000E+00  1.20000000E+00  1.50000000E+00  1.20000000E+00
  1.20000000E+00  1.50000000E+00  1.20000000E+00  1.20000000E+00  1.50000000E+00
  1.20000000E+00  1.20000000E+00  1.50000000E+00  1.20000000E+00  1.20000000E+00
  1.50000000E+00  1.20000000E+00  1.20000000E+00  1.50000000E+00  1.20000000E+00
  1.20000000E+00  1.50000000E+00  1.20000000E+00  1.20000000E+00  1.50000000E+00
  1.20000000E+00  1.20000000E+00  1.50000000E+00  1.20000000E+00  1.20000000E+00
  1.50000000E+00  1.20000000E+00  1.20000000E+00  1.50000000E+00  1.20000000E+00
  1.20000000E+00  1.50000000E+00  1.20000000E+00  1.20000000E+00  1.50000000E+00
  1.20000000E+00  1.20000000E+00  1.50000000E+00  1.20000000E+00  1.20000000E+00
  1.50000000E+00  1.20000000E+00  1.20000000E+00  1.50000000E+00  1.20000000E+00
  1.20000000E+00  1.50000000E+00  1.20000000E+00  1.20000000E+00  1.50000000E+00
  1.20000000E+00  1.20000000E+00  1.50000000E+00  1.20000000E+00  1.20000000E+00
  1.50000000E+00  1.20000000E+00  1.20000000E+00  1.50000000E+00  1.20000000E+00
  1.20000000E+00  1.50000000E+00  1.20000000E+00  1.20000000E+00  1.50000000E+00
  1.20000000E+00  1.20000000E+00  1.50000000E+00  1.20000000E+00  1.20000000E+00
  1.50000000E+00  1.20000000E+00  1.20000000E+00  1.50000000E+00  1.20000000E+00
  1.20000000E+00  1.50000000E+00  1.20000000E+00  1.20000000E+00  1.50000000E+00
  1.20000000E+00  1.20000000E+00  1.50000000E+00  1.20000000E+00  1.20000000E+00
  1.50000000E+00  1.20000000E+00  1.20000000E+00  1.50000000E+00  1.20000000E+00
  1.20000000E+00  1.50000000E+00  1.20000000E+00  1.20000000E+00  1.50000000E+00
  1.20000000E+00  1.20000000E+00  1.50000000E+00  1.20000000E+00  1.20000000E+00
  1.50000000E+00  1.20000000E+00  1.20000000E+00  1.50000000E+00  1.20000000E+00
  1.20000000E+00  1.50000000E+00  1.20000000E+00  1.20000000E+00  1.50000000E+00
  1.20000000E+00  1.20000000E+00  1.50000000E+00  1.20000000E+00  1.20000000E+00
  1.50000000E+00  1.20000000E+00  1.20000000E+00  1.50000000E+00  1.20000000E+00
  1.20000000E+00  1.50000000E+00  1.20000000E+00  1.20000000E+00  1.50000000E+00
  1.20000000E+00  1.20000000E+00  1.50000000E+00  1.20000000E+00  1.20000000E+00
  1.50000000E+00  1.20000000E+00  1.20000000E+00  1.50000000E+00  1.20000000E+00
  1.20000000E+00  1.50000000E+00  1.20000000E+00  1.20000000E+00  1.50000000E+00
  1.20000000E+00  1.20000000E+00  1.50000000E+00  1.20000000E+00  1.20000000E+00
  1.50000000E+00  1.20000000E+00  1.20000000E+00  1.50000000E+00  1.20000000E+00
  1.20000000E+00  1.50000000E+00  1.20000000E+00  1.20000000E+00  1.50000000E+00
  1.20000000E+00  1.20000000E+00  1.50000000E+00  1.20000000E+00  1.20000000E+00
  1.50000000E+00  1.20000000E+00  1.20000000E+00  1.50000000E+00  1.20000000E+00
  1.20000000E+00  1.50000000E+00  1.20000000E+00  1.20000000E+00  1.50000000E+00
  1.20000000E+00  1.20000000E+00  1.50000000E+00  1.20000000E+00  1.20000000E+00
  1.50000000E+00  1.20000000E+00  1.20000000E+00  1.50000000E+00  1.20000000E+00
  1.20000000E+00  1.50000000E+00  1.20000000E+00  1.20000000E+00  1.50000000E+00
  1.20000000E+00  1.20000000E+00  1.50000000E+00  1.20000000E+00  1.20000000E+00
  1.50000000E+00  1.20000000E+00  1.20000000E+00  1.50000000E+00  1.20000000E+00
  1.20000000E+00  1.50000000E+00  1.20000000E+00  1.20000000E+00  1.50000000E+00
  1.20000000E+00  1.20000000E+00  1.50000000E+00  1.20000000E+00  1.20000000E+00
  1.50000000E+00  1.20000000E+00  1.20000000E+00  1.50000000E+00  1.20000000E+00
  1.20000000E+00  1.50000000E+00  1.20000000E+00  1.20000000E+00  1.50000000E+00
  1.20000000E+00  1.20000000E+00  1.50000000E+00  1.20000000E+00  1.20000000E+00
  1.50000000E+00  1.20000000E+00  1.20000000E+00  1.50000000E+00  1.20000000E+00
  1.20000000E+00  1.50000000E+00  1.20000000E+00  1.20000000E+00  1.50000000E+00
  1.20000000E+00  1.20000000E+00  1.50000000E+00  1.20000000E+00  1.20000000E+00
  1.50000000E+00  1.20000000E+00  1.20000000E+00  1.50000000E+00  1.20000000E+00
  1.20000000E+00  1.50000000E+00  1.20000000E+00  1.20000000E+00  1.50000000E+00
  1.20000000E+00  1.20000000E+00  1.50000000E+00  1.20000000E+00  1.20000000E+00
  1.50000000E+00  1.20000000E+00  1.20000000E+00  1.50000000E+00  1.20000000E+00
  1.20000000E+00  1.50000000E+00  1.20000000E+00  1.20000000E+00  1.50000000E+00
  1.20000000E+00  1.20000000E+00  1.50000000E+00  1.20000000E+00  1.20000000E+00
  1.50000000E+00  1.20000000E+00  1.20000000E+00  1.50000000E+00  1.20000000E+00
  1.20000000E+00  1.50000000E+00  1.20000000E+00  1.20000000E+00  1.50000000E+00
  1.20000000E+00  1.20000000E+00  1.50000000E+00  1.20000000E+00  1.20000000E+00
  1.50000000E+00  1.20000000E+00  1.20000000E+00  1.50000000E+00  1.20000000E+00
  1.20000000E+00  1.50000000E+00  1.20000000E+00  1.20000000E+00  1.50000000E+00
  1.20000000E+00  1.20000000E+00  1.50000000E+00  1.20000000E+00  1.20000000E+00
  1.50000000E+00  1.20000000E+00  1.20000000E+00  1.50000000E+00  1.20000000E+00
  1.20000000E+00  1.50000000E+00  1.20000000E+00  1.20000000E+00  1.50000000E+00
  1.20000000E+00  1.20000000E+00  1.50000000E+00  1.20000000E+00  1.20000000E+00
  1.50000000E+00  1.20000000E+00  1.20000000E+00  1.50000000E+00  1.20000000E+00
  1.20000000E+00  1.50000000E+00  1.20000000E+00  1.20000000E+00  1.50000000E+00
  1.20000000E+00  1.20000000E+00  1.50000000E+00  1.20000000E+00  1.20000000E+00
  1.50000000E+00  1.20000000E+00  1.20000000E+00  1.50000000E+00  1.20000000E+00
  1.20000000E+00  1.50000000E+00  1.20000000E+00  1.20000000E+00  1.50000000E+00
  1.20000000E+00  1.20000000E+00  1.50000000E+00  1.20000000E+00  1.20000000E+00
  1.50000000E+00  1.20000000E+00  1.20000000E+00  1.50000000E+00  1.20000000E+00
  1.20000000E+00  1.50000000E+00  1.20000000E+00  1.20000000E+00  1.50000000E+00
  1.20000000E+00  1.20000000E+00  1.50000000E+00  1.20000000E+00  1.20000000E+00
  1.50000000E+00  1.20000000E+00  1.20000000E+00  1.50000000E+00  1.20000000E+00
  1.20000000E+00  1.50000000E+00  1.20000000E+00  1.20000000E+00  1.50000000E+00
  1.20000000E+00  1.20000000E+00  1.50000000E+00  1.20000000E+00  1.20000000E+00
  1.50000000E+00  1.20000000E+00  1.20000000E+00  1.50000000E+00  1.20000000E+00
  1.20000000E+00  1.50000000E+00  1.20000000E+00  1.20000000E+00  1.50000000E+00
  1.20000000E+00  1.20000000E+00  1.50000000E+00  1.20000000E+00  1.20000000E+00
  1.50000000E+00  1.20000000E+00  1.20000000E+00  1.50000000E+00  1.20000000E+00
  1.20000000E+00  1.50000000E+00  1.20000000E+00  1.20000000E+00  1.50000000E+00
  1.20000000E+00  1.20000000E+00  1.50000000E+00  1.20000000E+00  1.20000000E+00
  1.50000000E+00  1.20000000E+00  1.20000000E+00  1.50000000E+00  1.20000000E+00
  1.20000000E+00  1.50000000E+00  1.20000000E+00  1.20000000E+00  1.50000000E+00
  1.20000000E+00  1.20000000E+00  1.50000000E+00  1.20000000E+00  1.20000000E+00
  1.50000000E+00  1.20000000E+00  1.20000000E+00  1.50000000E+00  1.20000000E+00
  1.20000000E+00  1.50000000E+00  1.20000000E+00  1.20000000E+00  1.50000000E+00
  1.20000000E+00  1.20000000E+00  1.50000000E+00  1.20000000E+00  1.20000000E+00
  1.50000000E+00  1.20000000E+00  1.20000000E+00  1.50000000E+00  1.20000000E+00
  1.20000000E+00  1.50000000E+00  1.20000000E+00  1.20000000E+00  1.50000000E+00
  1.20000000E+00  1.20000000E+00  1.50000000E+00  1.20000000E+00  1.20000000E+00
  1.50000000E+00  1.20000000E+00  1.20000000E+00  1.50000000E+00  1.20000000E+00
  1.20000000E+00  1.50000000E+00  1.20000000E+00  1.20000000E+00  1.50000000E+00
  1.20000000E+00  1.20000000E+00  1.50000000E+00  1.20000000E+00  1.20000000E+00
  1.50000000E+00  1.20000000E+00  1.20000000E+00  1.50000000E+00  1.20000000E+00
  1.20000000E+00  1.50000000E+00  1.20000000E+00  1.20000000E+00  1.50000000E+00
  1.20000000E+00  1.20000000E+00  1.50000000E+00  1.20000000E+00  1.20000000E+00
  1.50000000E+00  1.20000000E+00  1.20000000E+00  1.50000000E+00  1.20000000E+00
  1.20000000E+00  1.50000000E+00  1.20000000E+00  1.20000000E+00  1.50000000E+00
  1.20000000E+00  1.20000000E+00  1.50000000E+00  1.20000000E+00  1.20000000E+00
  1.50000000E+00  1.20000000E+00  1.20000000E+00  1.50000000E+00  1.20000000E+00
  1.20000000E+00  1.50000000E+00  1.20000000E+00  1.20000000E+00  1.50000000E+00
  1.20000000E+00  1.20000000E+00  1.50000000E+00  1.20000000E+00  1.20000000E+00
  1.50000000E+00  1.20000000E+00  1.20000000E+00  1.50000000E+00  1.20000000E+00
  1.20000000E+00  1.50000000E+00  1.20000000E+00  1.20000000E+00  1.50000000E+00
  1.20000000E+00  1.20000000E+00  1.50000000E+00  1.20000000E+00  1.20000000E+00
  1.50000000E+00  1.20000000E+00  1.20000000E+00  1.50000000E+00  1.20000000E+00
  1.20000000E+00  1.50000000E+00  1.20000000E+00  1.20000000E+00  1.50000000E+00
  1.20000000E+00  1.20000000E+00  1.50000000E+00  1.20000000E+00  1.20000000E+00
  1.50000000E+00  1.20000000E+00  1.20000000E+00  1.50000000E+00  1.20000000E+00
  1.20000000E+00  1.50000000E+00  1.20000000E+00  1.20000000E+00  1.50000000E+00
  1.20000000E+00  1.20000000E+00  1.50000000E+00  1.20000000E+00  1.20000000E+00
  1.50000000E+00  1.20000000E+00  1.20000000E+00  1.50000000E+00  1.20000000E+00
  1.20000000E+00  1.50000000E+00  1.20000000E+00  1.20000000E+00  1.50000000E+00
  1.20000000E+00  1.20000000E+00  1.50000000E+00  1.20000000E+00  1.20000000E+00
  1.50000000E+00  1.20000000E+00  1.20000000E+00  1.50000000E+00  1.20000000E+00
  1.20000000E+00  1.50000000E+00  1.20000000E+00  1.20000000E+00  1.50000000E+00
  1.20000000E+00  1.20000000E+00  1.50000000E+00  1.20000000E+00  1.20000000E+00
  1.50000000E+00  1.20000000E+00  1.20000000E+00  1.50000000E+00  1.20000000E+00
  1.20000000E+00  1.50000000E+00  1.20000000E+00  1.20000000E+00  1.50000000E+00
  1.20000000E+00  1.20000000E+00  1.50000000E+00  1.20000000E+00  1.20000000E+00
  1.50000000E+00  1.20000000E+00  1.20000000E+00  1.50000000E+00  1.20000000E+00
  1.20000000E+00  1.50000000E+00  1.20000000E+00  1.20000000E+00  1.50000000E+00
  1.20000000E+00  1.20000000E+00  1.50000000E+00  1.20000000E+00  1.20000000E+00
  1.50000000E+00  1.20000000E+00  1.20000000E+00  1.50000000E+00  1.20000000E+00
  1.20000000E+00  1.50000000E+00  1.20000000E+00  1.20000000E+00  1.50000000E+00
  1.20000000E+00  1.20000000E+00  1.50000000E+00  1.20000000E+00  1.20000000E+00
  1.50000000E+00  1.20000000E+00  1.20000000E+00  1.50000000E+00  1.20000000E+00
  1.20000000E+00  1.50000000E+00  1.20000000E+00  1.20000000E+00  1.50000000E+00
  1.20000000E+00  1.20000000E+00  1.50000000E+00  1.20000000E+00  1.20000000E+00
  1.50000000E+00  1.20000000E+00  1.20000000E+00  1.50000000E+00  1.20000000E+00
  1.20000000E+00  1.50000000E+00  1.20000000E+00  1.20000000E+00  1.50000000E+00
  1.20000000E+00  1.20000000E+00  1.50000000E+00  1.20000000E+00  1.20000000E+00
  1.50000000E+00  1.20000000E+00  1.20000000E+00  1.50000000E+00  1.20000000E+00
  1.20000000E+00  1.50000000E+00  1.20000000E+00  1.20000000E+00  1.50000000E+00
  1.20000000E+00  1.20000000E+00  1.50000000E+00  1.20000000E+00  1.20000000E+00
  1.50000000E+00  1.20000000E+00  1.20000000E+00  1.50000000E+00  1.20000000E+00
  1.20000000E+00  1.50000000E+00  1.20000000E+00  1.20000000E+00  1.50000000E+00
  1.20000000E+00  1.20000000E+00  1.50000000E+00  1.20000000E+00  1.20000000E+00
  1.50000000E+00  1.20000000E+00  1.20000000E+00  1.50000000E+00  1.20000000E+00
  1.20000000E+00  1.50000000E+00  1.20000000E+00  1.20000000E+00  1.50000000E+00
  1.20000000E+00  1.20000000E+00  1.50000000E+00  1.20000000E+00  1.20000000E+00
  1.50000000E+00  1.20000000E+00  1.20000000E+00  1.50000000E+00  1.20000000E+00
  1.20000000E+00  1.50000000E+00  1.20000000E+00  1.20000000E+00  1.50000000E+00
  1.20000000E+00  1.20000000E+00  1.50000000E+00  1.20000000E+00  1.20000000E+00
  1.50000000E+00  1.20000000E+00  1.20000000E+00  1.50000000E+00  1.20000000E+00
  1.20000000E+00  1.50000000E+00  1.20000000E+00  1.20000000E+00  1.50000000E+00
  1.20000000E+00  1.20000000E+00  1.50000000E+00  1.20000000E+00  1.20000000E+00
  1.50000000E+00  1.20000000E+00  1.20000000E+00  1.50000000E+00  1.20000000E+00
  1.20000000E+00  1.50000000E+00  1.20000000E+00  1.20000000E+00  1.50000000E+00
  1.20000000E+00  1.20000000E+00  1.50000000E+00  1.20000000E+00  1.20000000E+00
  1.50000000E+00  1.20000000E+00  1.20000000E+00  1.50000000E+00  1.20000000E+00
  1.20000000E+00  1.50000000E+00  1.20000000E+00  1.20000000E+00  1.50000000E+00
  1.20000000E+00  1.20000000E+00  1.50000000E+00  1.20000000E+00  1.20000000E+00
  1.50000000E+00  1.20000000E+00  1.20000000E+00  1.50000000E+00  1.20000000E+00
  1.20000000E+00  1.50000000E+00  1.20000000E+00  1.20000000E+00  1.50000000E+00
  1.20000000E+00  1.20000000E+00  1.50000000E+00  1.20000000E+00  1.20000000E+00
  1.50000000E+00  1.20000000E+00  1.20000000E+00  1.50000000E+00  1.20000000E+00
  1.20000000E+00  1.50000000E+00  1.20000000E+00  1.20000000E+00  1.50000000E+00
  1.20000000E+00  1.20000000E+00  1.50000000E+00  1.20000000E+00  1.20000000E+00
  1.50000000E+00  1.20000000E+00  1.20000000E+00  1.50000000E+00  1.20000000E+00
  1.20000000E+00  1.50000000E+00  1.20000000E+00  1.20000000E+00  1.50000000E+00
  1.20000000E+00  1.20000000E+00  1.50000000E+00  1.20000000E+00  1.20000000E+00
  1.50000000E+00  1.20000000E+00  1.20000000E+00  1.50000000E+00  1.20000000E+00
  1.20000000E+00  1.50000000E+00  1.20000000E+00  1.20000000E+00  1.50000000E+00
  1.20000000E+00  1.20000000E+00  1.50000000E+00  1.20000000E+00  1.20000000E+00
  1.50000000E+00  1.20000000E+00  1.20000000E+00  1.50000000E+00  1.20000000E+00
  1.20000000E+00  1.50000000E+00  1.20000000E+00  1.20000000E+00  1.50000000E+00
  1.20000000E+00  1.20000000E+00  1.50000000E+00  1.20000000E+00  1.20000000E+00
  1.50000000E+00  1.20000000E+00  1.20000000E+00  1.50000000E+00  1.20000000E+00
  1.20000000E+00  1.50000000E+00  1.20000000E+00  1.20000000E+00  1.50000000E+00
  1.20000000E+00  1.20000000E+00  1.50000000E+00  1.20000000E+00  1.20000000E+00
  1.50000000E+00  1.20000000E+00  1.20000000E+00  1.50000000E+00  1.20000000E+00
  1.20000000E+00  1.50000000E+00  1.20000000E+00  1.20000000E+00  1.50000000E+00
  1.20000000E+00  1.20000000E+00  1.50000000E+00  1.20000000E+00  1.20000000E+00
  1.50000000E+00  1.20000000E+00  1.20000000E+00  1.50000000E+00  1.20000000E+00
  1.20000000E+00  1.50000000E+00  1.20000000E+00  1.20000000E+00  1.50000000E+00
  1.20000000E+00  1.20000000E+00  1.50000000E+00  1.20000000E+00  1.20000000E+00
  1.50000000E+00  1.20000000E+00  1.20000000E+00  1.50000000E+00  1.20000000E+00
  1.20000000E+00  1.50000000E+00  1.20000000E+00  1.20000000E+00  1.50000000E+00
  1.20000000E+00  1.20000000E+00  1.50000000E+00  1.20000000E+00  1.20000000E+00
  1.50000000E+00  1.20000000E+00  1.20000000E+00  1.50000000E+00  1.20000000E+00
  1.20000000E+00  1.50000000E+00  1.20000000E+00  1.20000000E+00  1.50000000E+00
  1.20000000E+00  1.20000000E+00  1.50000000E+00  1.20000000E+00  1.20000000E+00
  1.50000000E+00  1.20000000E+00  1.20000000E+00  1.50000000E+00  1.20000000E+00
  1.20000000E+00  1.50000000E+00  1.20000000E+00  1.20000000E+00  1.50000000E+00
  1.20000000E+00  1.20000000E+00  1.50000000E+00  1.20000000E+00  1.20000000E+00
  1.50000000E+00  1.20000000E+00  1.20000000E+00  1.50000000E+00  1.20000000E+00
  1.20000000E+00  1.50000000E+00  1.20000000E+00  1.20000000E+00  1.50000000E+00
  1.20000000E+00  1.20000000E+00  1.50000000E+00  1.20000000E+00  1.20000000E+00
  1.50000000E+00  1.20000000E+00  1.20000000E+00  1.50000000E+00  1.20000000E+00
  1.20000000E+00  1.50000000E+00  1.20000000E+00  1.20000000E+00  1.50000000E+00
  1.20000000E+00  1.20000000E+00  1.50000000E+00  1.20000000E+00  1.20000000E+00
  1.50000000E+00  1.20000000E+00  1.20000000E+00  1.50000000E+00  1.20000000E+00
  1.20000000E+00  1.50000000E+00  1.20000000E+00  1.20000000E+00  1.50000000E+00
  1.20000000E+00  1.20000000E+00  1.50000000E+00  1.20000000E+00  1.20000000E+00
  1.50000000E+00  1.20000000E+00  1.20000000E+00  1.50000000E+00  1.20000000E+00
  1.20000000E+00  1.50000000E+00  1.20000000E+00  1.20000000E+00  1.50000000E+00
  1.20000000E+00  1.20000000E+00  1.50000000E+00  1.20000000E+00  1.20000000E+00
  1.50000000E+00  1.20000000E+00  1.20000000E+00  1.50000000E+00  1.20000000E+00
  1.20000000E+00  1.50000000E+00  1.20000000E+00  1.20000000E+00  1.50000000E+00
  1.20000000E+00  1.20000000E+00  1.50000000E+00  1.20000000E+00  1.20000000E+00
  1.50000000E+00  1.20000000E+00  1.20000000E+00  1.50000000E+00  1.20000000E+00
  1.20000000E+00  1.50000000E+00  1.20000000E+00  1.20000000E+00  1.50000000E+00
  1.20000000E+00  1.20000000E+00  1.50000000E+00  1.20000000E+00  1.20000000E+00
  1.50000000E+00  1.20000000E+00  1.20000000E+00  1.50000000E+00  1.20000000E+00
  1.20000000E+00  1.50000000E+00  1.20000000E+00  1.20000000E+00  1.50000000E+00
  1.20000000E+00  1.20000000E+00  1.50000000E+00  1.20000000E+00  1.20000000E+00
  1.50000000E+00  1.20000000E+00  1.20000000E+00  1.50000000E+00  1.20000000E+00
  1.20000000E+00  1.50000000E+00  1.20000000E+00  1.20000000E+00  1.50000000E+00
  1.20000000E+00  1.20000000E+00  1.50000000E+00  1.20000000E+00  1.20000000E+00
  1.50000000E+00  1.20000000E+00  1.20000000E+00  1.50000000E+00  1.20000000E+00
  1.20000000E+00  1.50000000E+00  1.20000000E+00  1.20000000E+00  1.50000000E+00
  1.20000000E+00  1.20000000E+00  1.50000000E+00  1.20000000E+00  1.20000000E+00
  1.50000000E+00  1.20000000E+00  1.20000000E+00  1.50000000E+00  1.20000000E+00
  1.20000000E+00  1.50000000E+00  1.20000000E+00  1.20000000E+00  1.50000000E+00
  1.20000000E+00  1.20000000E+00  1.50000000E+00  1.20000000E+00  1.20000000E+00
  1.50000000E+00  1.20000000E+00  1.20000000E+00  1.50000000E+00  1.20000000E+00
  1.20000000E+00  1.50000000E+00  1.20000000E+00  1.20000000E+00  1.50000000E+00
  1.20000000E+00  1.20000000E+00  1.50000000E+00  1.20000000E+00  1.20000000E+00
  1.50000000E+00  1.20000000E+00  1.20000000E+00  1.50000000E+00  1.20000000E+00
  1.20000000E+00  1.50000000E+00  1.20000000E+00  1.20000000E+00  1.50000000E+00
  1.20000000E+00  1.20000000E+00  1.50000000E+00  1.20000000E+00  1.20000000E+00
  1.50000000E+00  1.20000000E+00  1.20000000E+00  1.50000000E+00  1.20000000E+00
  1.20000000E+00  1.50000000E+00  1.20000000E+00  1.20000000E+00  1.50000000E+00
  1.20000000E+00  1.20000000E+00  1.50000000E+00  1.20000000E+00  1.20000000E+00
  1.50000000E+00  1.20000000E+00  1.20000000E+00  1.50000000E+00  1.20000000E+00
  1.20000000E+00  1.50000000E+00  1.20000000E+00  1.20000000E+00  1.50000000E+00
  1.20000000E+00  1.20000000E+00  1.50000000E+00  1.20000000E+00  1.20000000E+00
  1.50000000E+00  1.20000000E+00  1.20000000E+00  1.50000000E+00  1.20000000E+00
  1.20000000E+00  1.50000000E+00  1.20000000E+00  1.20000000E+00  1.50000000E+00
  1.20000000E+00  1.20000000E+00  1.50000000E+00  1.20000000E+00  1.20000000E+00
  1.50000000E+00  1.20000000E+00  1.20000000E+00  1.50000000E+00  1.20000000E+00
  1.20000000E+00  1.50000000E+00  1.20000000E+00  1.20000000E+00  1.50000000E+00
  1.20000000E+00  1.20000000E+00  1.50000000E+00  1.20000000E+00  1.20000000E+00
  1.50000000E+00  1.20000000E+00  1.20000000E+00  1.50000000E+00  1.20000000E+00
  1.20000000E+00  1.50000000E+00  1.20000000E+00  1.20000000E+00  1.50000000E+00
  1.20000000E+00  1.20000000E+00  1.50000000E+00  1.20000000E+00  1.20000000E+00
  1.50000000E+00  1.20000000E+00  1.20000000E+00  1.50000000E+00  1.20000000E+00
  1.20000000E+00  1.50000000E+00  1.20000000E+00  1.20000000E+00  1.50000000E+00
  1.20000000E+00  1.20000000E+00  1.50000000E+00  1.20000000E+00  1.20000000E+00
  1.50000000E+00  1.20000000E+00  1.20000000E+00  1.50000000E+00  1.20000000E+00
  1.20000000E+00  1.50000000E+00  1.20000000E+00  1.20000000E+00  1.50000000E+00
  1.20000000E+00  1.20000000E+00  1.50000000E+00  1.20000000E+00  1.20000000E+00
  1.50000000E+00  1.20000000E+00  1.20000000E+00  1.50000000E+00  1.20000000E+00
  1.20000000E+00  1.50000000E+00  1.20000000E+00  1.20000000E+00  1.50000000E+00
  1.20000000E+00  1.20000000E+00  1.50000000E+00  1.20000000E+00  1.20000000E+00
  1.50000000E+00  1.20000000E+00  1.20000000E+00  1.50000000E+00  1.20000000E+00
  1.20000000E+00  1.50000000E+00  1.20000000E+00  1.20000000E+00  1.50000000E+00
  1.20000000E+00  1.20000000E+00  1.50000000E+00  1.20000000E+00  1.20000000E+00
  1.50000000E+00  1.20000000E+00  1.20000000E+00  1.50000000E+00  1.20000000E+00
  1.20000000E+00  1.50000000E+00  1.20000000E+00  1.20000000E+00  1.50000000E+00
  1.20000000E+00  1.20000000E+00  1.50000000E+00  1.20000000E+00  1.20000000E+00
  1.50000000E+00  1.20000000E+00  1.20000000E+00  1.50000000E+00  1.20000000E+00
  1.20000000E+00  1.50000000E+00  1.20000000E+00  1.20000000E+00  1.50000000E+00
  1.20000000E+00  1.20000000E+00  1.50000000E+00  1.20000000E+00  1.20000000E+00
  1.50000000E+00  1.20000000E+00  1.20000000E+00  1.50000000E+00  1.20000000E+00
  1.20000000E+00  1.50000000E+00  1.20000000E+00  1.20000000E+00  1.50000000E+00
  1.20000000E+00  1.20000000E+00  1.50000000E+00  1.20000000E+00  1.20000000E+00
  1.50000000E+00  1.20000000E+00  1.20000000E+00  1.50000000E+00  1.20000000E+00
  1.20000000E+00  1.50000000E+00  1.20000000E+00  1.20000000E+00  1.50000000E+00
  1.20000000E+00  1.20000000E+00  1.50000000E+00  1.20000000E+00  1.20000000E+00
  1.50000000E+00  1.20000000E+00  1.20000000E+00  1.50000000E+00  1.20000000E+00
  1.20000000E+00  1.50000000E+00  1.20000000E+00  1.20000000E+00  1.50000000E+00
  1.20000000E+00  1.20000000E+00  1.50000000E+00  1.20000000E+00  1.20000000E+00
  1.50000000E+00  1.20000000E+00  1.20000000E+00  1.50000000E+00  1.20000000E+00
  1.20000000E+00  1.50000000E+00  1.20000000E+00  1.20000000E+00  1.50000000E+00
  1.20000000E+00  1.20000000E+00  1.50000000E+00  1.20000000E+00  1.20000000E+00
  1.50000000E+00  1.20000000E+00  1.20000000E+00  1.50000000E+00  1.20000000E+00
  1.20000000E+00  1.50000000E+00  1.20000000E+00  1.20000000E+00  1.50000000E+00
  1.20000000E+00  1.20000000E+00  1.50000000E+00  1.20000000E+00  1.20000000E+00
  1.50000000E+00  1.20000000E+00  1.20000000E+00  1.50000000E+00  1.20000000E+00
  1.20000000E+00  1.50000000E+00  1.20000000E+00  1.20000000E+00  1.50000000E+00
  1.20000000E+00  1.20000000E+00  1.50000000E+00  1.20000000E+00  1.20000000E+00
  1.50000000E+00  1.20000000E+00  1.20000000E+00  1.50000000E+00  1.20000000E+00
  1.20000000E+00  1.50000000E+00  1.20000000E+00  1.20000000E+00  1.50000000E+00
  1.20000000E+00  1.20000000E+00  1.50000000E+00  1.20000000E+00  1.20000000E+00
  1.50000000E+00  1.20000000E+00  1.20000000E+00  1.50000000E+00  1.20000000E+00
  1.20000000E+00  1.50000000E+00  1.20000000E+00  1.20000000E+00  1.50000000E+00
  1.20000000E+00  1.20000000E+00  1.50000000E+00  1.20000000E+00  1.20000000E+00
  1.50000000E+00  1.20000000E+00  1.20000000E+00  1.50000000E+00  1.20000000E+00
  1.20000000E+00  1.50000000E+00  1.20000000E+00  1.20000000E+00  1.50000000E+00
  1.20000000E+00  1.20000000E+00  1.50000000E+00  1.20000000E+00  1.20000000E+00
  1.50000000E+00  1.20000000E+00  1.20000000E+00  1.50000000E+00  1.20000000E+00
  1.20000000E+00  1.50000000E+00  1.20000000E+00  1.20000000E+00  1.50000000E+00
  1.20000000E+00  1.20000000E+00  1.50000000E+00  1.20000000E+00  1.20000000E+00
  1.50000000E+00  1.20000000E+00  1.20000000E+00  1.50000000E+00  1.20000000E+00
  1.20000000E+00  1.50000000E+00  1.20000000E+00  1.20000000E+00  1.50000000E+00
  1.20000000E+00  1.20000000E+00  1.50000000E+00  1.20000000E+00  1.20000000E+00
  1.50000000E+00  1.20000000E+00  1.20000000E+00  1.50000000E+00  1.20000000E+00
  1.20000000E+00  1.50000000E+00  1.20000000E+00  1.20000000E+00  1.50000000E+00
  1.20000000E+00  1.20000000E+00  1.50000000E+00  1.20000000E+00  1.20000000E+00
  1.50000000E+00  1.20000000E+00  1.20000000E+00  1.50000000E+00  1.20000000E+00
  1.20000000E+00  1.50000000E+00  1.20000000E+00  1.20000000E+00  1.50000000E+00
  1.20000000E+00  1.20000000E+00  1.50000000E+00  1.20000000E+00  1.20000000E+00
  1.50000000E+00  1.20000000E+00  1.20000000E+00  1.50000000E+00  1.20000000E+00
  1.20000000E+00  1.50000000E+00  1.20000000E+00  1.20000000E+00  1.50000000E+00
  1.20000000E+00  1.20000000E+00  1.50000000E+00  1.20000000E+00  1.20000000E+00
  1.50000000E+00  1.20000000E+00  1.20000000E+00  1.50000000E+00  1.20000000E+00
  1.20000000E+00  1.50000000E+00  1.20000000E+00  1.20000000E+00  1.50000000E+00
  1.20000000E+00  1.20000000E+00  1.50000000E+00  1.20000000E+00  1.20000000E+00
  1.50000000E+00  1.20000000E+00  1.20000000E+00  1.50000000E+00  1.20000000E+00
  1.20000000E+00  1.50000000E+00  1.20000000E+00  1.20000000E+00  1.50000000E+00
  1.20000000E+00  1.20000000E+00  1.50000000E+00  1.20000000E+00  1.20000000E+00
  1.50000000E+00  1.20000000E+00  1.20000000E+00  1.50000000E+00  1.20000000E+00
  1.20000000E+00  1.50000000E+00  1.20000000E+00  1.20000000E+00  1.50000000E+00
  1.20000000E+00  1.20000000E+00  1.50000000E+00  1.20000000E+00  1.20000000E+00
  1.50000000E+00  1.20000000E+00  1.20000000E+00  1.50000000E+00  1.20000000E+00
  1.20000000E+00  1.50000000E+00  1.20000000E+00  1.20000000E+00  1.50000000E+00
  1.20000000E+00  1.20000000E+00  1.50000000E+00  1.20000000E+00  1.20000000E+00
  1.50000000E+00  1.20000000E+00  1.20000000E+00  1.50000000E+00  1.20000000E+00
  1.20000000E+00  1.50000000E+00  1.20000000E+00  1.20000000E+00  1.50000000E+00
  1.20000000E+00  1.20000000E+00  1.50000000E+00  1.20000000E+00  1.20000000E+00
  1.50000000E+00  1.20000000E+00  1.20000000E+00  1.50000000E+00  1.20000000E+00
  1.20000000E+00  1.50000000E+00  1.20000000E+00  1.20000000E+00  1.50000000E+00
  1.20000000E+00  1.20000000E+00  1.50000000E+00  1.20000000E+00  1.20000000E+00
  1.50000000E+00  1.20000000E+00  1.20000000E+00  1.50000000E+00  1.20000000E+00
  1.20000000E+00  1.50000000E+00  1.20000000E+00  1.20000000E+00  1.50000000E+00
  1.20000000E+00  1.20000000E+00  1.50000000E+00  1.20000000E+00  1.20000000E+00
  1.50000000E+00  1.20000000E+00  1.20000000E+00  1.50000000E+00  1.20000000E+00
  1.20000000E+00  1.50000000E+00  1.20000000E+00  1.20000000E+00  1.50000000E+00
  1.20000000E+00  1.20000000E+00  1.50000000E+00  1.20000000E+00  1.20000000E+00
  1.50000000E+00  1.20000000E+00  1.20000000E+00  1.50000000E+00  1.20000000E+00
  1.20000000E+00  1.50000000E+00  1.20000000E+00  1.20000000E+00  1.50000000E+00
  1.20000000E+00  1.20000000E+00  1.50000000E+00  1.20000000E+00  1.20000000E+00
  1.50000000E+00  1.20000000E+00  1.20000000E+00  1.50000000E+00  1.20000000E+00
  1.20000000E+00  1.50000000E+00  1.20000000E+00  1.20000000E+00  1.50000000E+00
  1.20000000E+00  1.20000000E+00  1.50000000E+00  1.20000000E+00  1.20000000E+00
  1.50000000E+00  1.20000000E+00  1.20000000E+00  1.50000000E+00  1.20000000E+00
  1.20000000E+00  1.50000000E+00  1.20000000E+00  1.20000000E+00  1.50000000E+00
  1.20000000E+00  1.20000000E+00  1.50000000E+00  1.20000000E+00  1.20000000E+00
  1.50000000E+00  1.20000000E+00  1.20000000E+00  1.50000000E+00  1.20000000E+00
  1.20000000E+00  1.50000000E+00  1.20000000E+00  1.20000000E+00  1.50000000E+00
  1.20000000E+00  1.20000000E+00  1.50000000E+00  1.20000000E+00  1.20000000E+00
  1.50000000E+00  1.20000000E+00  1.20000000E+00  1.50000000E+00  1.20000000E+00
  1.20000000E+00  1.50000000E+00  1.20000000E+00  1.20000000E+00  1.50000000E+00
  1.20000000E+00  1.20000000E+00  1.50000000E+00  1.20000000E+00  1.20000000E+00
  1.50000000E+00  1.20000000E+00  1.20000000E+00  1.50000000E+00  1.20000000E+00
  1.20000000E+00  1.50000000E+00  1.20000000E+00  1.20000000E+00  1.50000000E+00
  1.20000000E+00  1.20000000E+00  1.50000000E+00  1.20000000E+00  1.20000000E+00
  1.50000000E+00  1.20000000E+00  1.20000000E+00  1.50000000E+00  1.20000000E+00
  1.20000000E+00  1.50000000E+00  1.20000000E+00  1.20000000E+00  1.50000000E+00
  1.20000000E+00  1.20000000E+00  1.50000000E+00  1.20000000E+00  1.20000000E+00
  1.50000000E+00  1.20000000E+00  1.20000000E+00  1.50000000E+00  1.20000000E+00
  1.20000000E+00  1.50000000E+00  1.20000000E+00  1.20000000E+00  1.50000000E+00
  1.20000000E+00  1.20000000E+00  1.50000000E+00  1.20000000E+00  1.20000000E+00
  1.50000000E+00  1.20000000E+00  1.20000000E+00  1.50000000E+00  1.20000000E+00
  1.20000000E+00  1.50000000E+00  1.20000000E+00  1.20000000E+00  1.50000000E+00
  1.20000000E+00  1.20000000E+00  1.50000000E+00  1.20000000E+00  1.20000000E+00
  1.50000000E+00  1.20000000E+00  1.20000000E+00  1.50000000E+00  1.20000000E+00
  1.20000000E+00  1.50000000E+00  1.20000000E+00  1.20000000E+00  1.50000000E+00
  1.20000000E+00  1.20000000E+00  1.50000000E+00  1.20000000E+00  1.20000000E+00
  1.50000000E+00  1.20000000E+00  1.20000000E+00  1.50000000E+00  1.20000000E+00
  1.20000000E+00  1.50000000E+00  1.20000000E+00  1.20000000E+00  1.50000000E+00
  1.20000000E+00  1.20000000E+00  1.50000000E+00  1.20000000E+00  1.20000000E+00
  1.50000000E+00  1.20000000E+00  1.20000000E+00  1.50000000E+00  1.20000000E+00
  1.20000000E+00  1.50000000E+00  1.20000000E+00  1.20000000E+00  1.50000000E+00
  1.20000000E+00  1.20000000E+00  1.50000000E+00  1.20000000E+00  1.20000000E+00
  1.50000000E+00  1.20000000E+00  1.20000000E+00  1.50000000E+00  1.20000000E+00
  1.20000000E+00  1.50000000E+00  1.20000000E+00  1.20000000E+00  1.50000000E+00
  1.20000000E+00  1.20000000E+00  1.50000000E+00  1.20000000E+00  1.20000000E+00
  1.50000000E+00  1.20000000E+00  1.20000000E+00  1.50000000E+00  1.20000000E+00
  1.20000000E+00  1.50000000E+00  1.20000000E+00  1.20000000E+00  1.50000000E+00
  1.20000000E+00  1.20000000E+00  1.50000000E+00  1.20000000E+00  1.20000000E+00
  1.50000000E+00  1.20000000E+00  1.20000000E+00  1.50000000E+00  1.20000000E+00
  1.20000000E+00  1.50000000E+00  1.20000000E+00  1.20000000E+00  1.50000000E+00
  1.20000000E+00  1.20000000E+00  1.50000000E+00  1.20000000E+00  1.20000000E+00
  1.50000000E+00  1.20000000E+00  1.20000000E+00  1.50000000E+00  1.20000000E+00
  1.20000000E+00  1.50000000E+00  1.20000000E+00  1.20000000E+00  1.50000000E+00
  1.20000000E+00  1.20000000E+00  1.50000000E+00  1.20000000E+00  1.20000000E+00
  1.50000000E+00  1.20000000E+00  1.20000000E+00  1.50000000E+00  1.20000000E+00
  1.20000000E+00  1.50000000E+00  1.20000000E+00  1.20000000E+00  1.50000000E+00
  1.20000000E+00  1.20000000E+00  1.50000000E+00  1.20000000E+00  1.20000000E+00
  1.50000000E+00  1.20000000E+00  1.20000000E+00  1.50000000E+00  1.20000000E+00
  1.20000000E+00  1.50000000E+00  1.20000000E+00  1.20000000E+00  1.50000000E+00
  1.20000000E+00  1.20000000E+00  1.50000000E+00  1.20000000E+00  1.20000000E+00
  1.50000000E+00  1.20000000E+00  1.20000000E+00  1.50000000E+00  1.20000000E+00
  1.20000000E+00  1.50000000E+00  1.20000000E+00  1.20000000E+00  1.50000000E+00
  1.20000000E+00  1.20000000E+00  1.50000000E+00  1.20000000E+00  1.20000000E+00
  1.50000000E+00  1.20000000E+00  1.20000000E+00  1.50000000E+00  1.20000000E+00
  1.20000000E+00  1.50000000E+00  1.20000000E+00  1.20000000E+00  1.50000000E+00
  1.20000000E+00  1.20000000E+00  1.50000000E+00  1.20000000E+00  1.20000000E+00
  1.50000000E+00  1.20000000E+00  1.20000000E+00  1.50000000E+00  1.20000000E+00
  1.20000000E+00  1.50000000E+00  1.20000000E+00  1.20000000E+00  1.50000000E+00
  1.20000000E+00  1.20000000E+00  1.50000000E+00  1.20000000E+00  1.20000000E+00
  1.50000000E+00  1.20000000E+00  1.20000000E+00  1.50000000E+00  1.20000000E+00
  1.20000000E+00  1.50000000E+00  1.20000000E+00  1.20000000E+00  1.50000000E+00
  1.20000000E+00  1.20000000E+00  1.50000000E+00  1.20000000E+00  1.20000000E+00
  1.50000000E+00  1.20000000E+00  1.20000000E+00  1.50000000E+00  1.20000000E+00
  1.20000000E+00  1.50000000E+00  1.20000000E+00  1.20000000E+00  1.50000000E+00
  1.20000000E+00  1.20000000E+00  1.50000000E+00  1.20000000E+00  1.20000000E+00
  1.50000000E+00  1.20000000E+00  1.20000000E+00  1.50000000E+00  1.20000000E+00
  1.20000000E+00  1.50000000E+00  1.20000000E+00  1.20000000E+00  1.50000000E+00
  1.20000000E+00  1.20000000E+00  1.50000000E+00  1.20000000E+00  1.20000000E+00
  1.50000000E+00  1.20000000E+00  1.20000000E+00  1.50000000E+00  1.20000000E+00
  1.20000000E+00  1.50000000E+00  1.20000000E+00  1.20000000E+00  1.50000000E+00
  1.20000000E+00  1.20000000E+00  1.50000000E+00  1.20000000E+00  1.20000000E+00
  1.50000000E+00  1.20000000E+00  1.20000000E+00  1.50000000E+00  1.20000000E+00
  1.20000000E+00  1.50000000E+00  1.20000000E+00  1.20000000E+00  1.50000000E+00
  1.20000000E+00  1.20000000E+00  1.50000000E+00  1.20000000E+00  1.20000000E+00
  1.50000000E+00  1.20000000E+00  1.20000000E+00  1.50000000E+00  1.20000000E+00
  1.20000000E+00  1.50000000E+00  1.20000000E+00  1.20000000E+00  1.50000000E+00
  1.20000000E+00  1.20000000E+00  1.50000000E+00  1.20000000E+00  1.20000000E+00
  1.50000000E+00  1.20000000E+00  1.20000000E+00  1.50000000E+00  1.20000000E+00
  1.20000000E+00  1.50000000E+00  1.20000000E+00  1.20000000E+00  1.50000000E+00
  1.20000000E+00  1.20000000E+00  1.50000000E+00  1.20000000E+00  1.20000000E+00
  1.50000000E+00  1.20000000E+00  1.20000000E+00  1.50000000E+00  1.20000000E+00
  1.20000000E+00  1.50000000E+00  1.20000000E+00  1.20000000E+00  1.50000000E+00
  1.20000000E+00  1.20000000E+00  1.50000000E+00  1.20000000E+00  1.20000000E+00
  1.50000000E+00  1.20000000E+00  1.20000000E+00  1.50000000E+00  1.20000000E+00
  1.20000000E+00  1.50000000E+00  1.20000000E+00  1.20000000E+00  1.50000000E+00
  1.20000000E+00  1.20000000E+00  1.50000000E+00  1.20000000E+00  1.20000000E+00
  1.50000000E+00  1.20000000E+00  1.20000000E+00  1.50000000E+00  1.20000000E+00
  1.20000000E+00  1.50000000E+00  1.20000000E+00  1.20000000E+00  1.50000000E+00
  1.20000000E+00  1.20000000E+00  1.50000000E+00  1.20000000E+00  1.20000000E+00
  1.50000000E+00  1.20000000E+00  1.20000000E+00  1.50000000E+00  1.20000000E+00
  1.20000000E+00  1.50000000E+00  1.20000000E+00  1.20000000E+00  1.50000000E+00
  1.20000000E+00  1.20000000E+00  1.50000000E+00  1.20000000E+00  1.20000000E+00
  1.50000000E+00  1.20000000E+00  1.20000000E+00  1.50000000E+00  1.20000000E+00
  1.20000000E+00  1.50000000E+00  1.20000000E+00  1.20000000E+00  1.50000000E+00
  1.20000000E+00  1.20000000E+00  1.50000000E+00  1.20000000E+00  1.20000000E+00
  1.50000000E+00  1.20000000E+00  1.20000000E+00  1.50000000E+00  1.20000000E+00
  1.20000000E+00  1.50000000E+00  1.20000000E+00  1.20000000E+00  1.50000000E+00
  1.20000000E+00  1.20000000E+00  1.50000000E+00  1.20000000E+00  1.20000000E+00
  1.50000000E+00  1.20000000E+00  1.20000000E+00  1.50000000E+00  1.20000000E+00
  1.20000000E+00  1.50000000E+00  1.20000000E+00  1.20000000E+00  1.50000000E+00
  1.20000000E+00  1.20000000E+00  1.50000000E+00  1.20000000E+00  1.20000000E+00
  1.50000000E+00  1.20000000E+00  1.20000000E+00  1.50000000E+00  1.20000000E+00
  1.20000000E+00  1.50000000E+00  1.20000000E+00  1.20000000E+00  1.50000000E+00
  1.20000000E+00  1.20000000E+00  1.50000000E+00  1.20000000E+00  1.20000000E+00
  1.50000000E+00  1.20000000E+00  1.20000000E+00  1.50000000E+00  1.20000000E+00
  1.20000000E+00  1.50000000E+00  1.20000000E+00  1.20000000E+00  1.50000000E+00
  1.20000000E+00  1.20000000E+00  1.50000000E+00  1.20000000E+00  1.20000000E+00
  1.50000000E+00  1.20000000E+00  1.20000000E+00  1.50000000E+00  1.20000000E+00
  1.20000000E+00  1.50000000E+00  1.20000000E+00  1.20000000E+00  1.50000000E+00
  1.20000000E+00  1.20000000E+00  1.50000000E+00  1.20000000E+00  1.20000000E+00
  1.50000000E+00  1.20000000E+00  1.20000000E+00  1.50000000E+00  1.20000000E+00
  1.20000000E+00  1.50000000E+00  1.20000000E+00  1.20000000E+00  1.50000000E+00
  1.20000000E+00  1.20000000E+00  1.50000000E+00  1.20000000E+00  1.20000000E+00
  1.50000000E+00  1.20000000E+00  1.20000000E+00  1.50000000E+00  1.20000000E+00
  1.20000000E+00  1.50000000E+00  1.20000000E+00  1.20000000E+00  1.50000000E+00
  1.20000000E+00  1.20000000E+00  1.50000000E+00  1.20000000E+00  1.20000000E+00
  1.50000000E+00  1.20000000E+00  1.20000000E+00  1.50000000E+00  1.20000000E+00
  1.20000000E+00  1.50000000E+00  1.20000000E+00  1.20000000E+00  1.50000000E+00
  1.20000000E+00  1.20000000E+00  1.50000000E+00  1.20000000E+00  1.20000000E+00
  1.50000000E+00  1.20000000E+00  1.20000000E+00  1.50000000E+00  1.20000000E+00
  1.20000000E+00  1.50000000E+00  1.20000000E+00  1.20000000E+00  1.50000000E+00
  1.20000000E+00  1.20000000E+00  1.50000000E+00  1.20000000E+00  1.20000000E+00
  1.50000000E+00  1.20000000E+00  1.20000000E+00  1.50000000E+00  1.20000000E+00
  1.20000000E+00  1.50000000E+00  1.20000000E+00  1.20000000E+00  1.50000000E+00
  1.20000000E+00  1.20000000E+00  1.50000000E+00  1.20000000E+00  1.20000000E+00
  1.50000000E+00  1.20000000E+00  1.20000000E+00  1.50000000E+00  1.20000000E+00
  1.20000000E+00  1.50000000E+00  1.20000000E+00  1.20000000E+00  1.50000000E+00
  1.20000000E+00  1.20000000E+00  1.50000000E+00  1.20000000E+00  1.20000000E+00
  1.50000000E+00  1.20000000E+00  1.20000000E+00  1.50000000E+00  1.20000000E+00
  1.20000000E+00  1.50000000E+00  1.20000000E+00  1.20000000E+00  1.50000000E+00
  1.20000000E+00  1.20000000E+00  1.50000000E+00  1.20000000E+00  1.20000000E+00
  1.50000000E+00  1.20000000E+00  1.20000000E+00  1.50000000E+00  1.20000000E+00
  1.20000000E+00  1.50000000E+00  1.20000000E+00  1.20000000E+00  1.50000000E+00
  1.20000000E+00  1.20000000E+00  1.50000000E+00  1.20000000E+00  1.20000000E+00
  1.50000000E+00  1.20000000E+00  1.20000000E+00  1.50000000E+00  1.20000000E+00
  1.20000000E+00  1.50000000E+00  1.20000000E+00  1.20000000E+00  1.50000000E+00
  1.20000000E+00  1.20000000E+00  1.50000000E+00  1.20000000E+00  1.20000000E+00
  1.50000000E+00  1.20000000E+00  1.20000000E+00  1.50000000E+00  1.20000000E+00
  1.20000000E+00  1.50000000E+00  1.20000000E+00  1.20000000E+00  1.50000000E+00
  1.20000000E+00  1.20000000E+00  1.50000000E+00  1.20000000E+00  1.20000000E+00
  1.50000000E+00  1.20000000E+00  1.20000000E+00  1.50000000E+00  1.20000000E+00
  1.20000000E+00  1.50000000E+00  1.20000000E+00  1.20000000E+00  1.50000000E+00
  1.20000000E+00  1.20000000E+00  1.50000000E+00  1.20000000E+00  1.20000000E+00
  1.50000000E+00  1.20000000E+00  1.20000000E+00  1.50000000E+00  1.20000000E+00
  1.20000000E+00  1.50000000E+00  1.20000000E+00  1.20000000E+00  1.50000000E+00
  1.20000000E+00  1.20000000E+00  1.50000000E+00  1.20000000E+00  1.20000000E+00
  1.50000000E+00  1.20000000E+00  1.20000000E+00  1.50000000E+00  1.20000000E+00
  1.20000000E+00  1.50000000E+00  1.20000000E+00  1.20000000E+00  1.50000000E+00
  1.20000000E+00  1.20000000E+00  1.50000000E+00  1.20000000E+00  1.20000000E+00
  1.50000000E+00  1.20000000E+00  1.20000000E+00  1.50000000E+00  1.20000000E+00
  1.20000000E+00  1.50000000E+00  1.20000000E+00  1.20000000E+00  1.50000000E+00
  1.20000000E+00  1.20000000E+00  1.50000000E+00  1.20000000E+00  1.20000000E+00
  1.50000000E+00  1.20000000E+00  1.20000000E+00  1.50000000E+00  1.20000000E+00
  1.20000000E+00  1.50000000E+00  1.20000000E+00  1.20000000E+00  1.50000000E+00
  1.20000000E+00  1.20000000E+00  1.50000000E+00  1.20000000E+00  1.20000000E+00
  1.50000000E+00  1.20000000E+00  1.20000000E+00  1.50000000E+00  1.20000000E+00
  1.20000000E+00  1.50000000E+00  1.20000000E+00  1.20000000E+00  1.50000000E+00
  1.20000000E+00  1.20000000E+00  1.50000000E+00  1.20000000E+00  1.20000000E+00
  1.50000000E+00  1.20000000E+00  1.20000000E+00  1.50000000E+00  1.20000000E+00
  1.20000000E+00  1.50000000E+00  1.20000000E+00  1.20000000E+00  1.50000000E+00
  1.20000000E+00  1.20000000E+00  1.50000000E+00  1.20000000E+00  1.20000000E+00
  1.50000000E+00  1.20000000E+00  1.20000000E+00  1.50000000E+00  1.20000000E+00
  1.20000000E+00  1.50000000E+00  1.20000000E+00  1.20000000E+00  1.50000000E+00
  1.20000000E+00  1.20000000E+00  1.50000000E+00  1.20000000E+00  1.20000000E+00
  1.50000000E+00  1.20000000E+00  1.20000000E+00  1.50000000E+00  1.20000000E+00
  1.20000000E+00  1.50000000E+00  1.20000000E+00  1.20000000E+00  1.50000000E+00
  1.20000000E+00  1.20000000E+00  1.50000000E+00  1.20000000E+00  1.20000000E+00
  1.50000000E+00  1.20000000E+00  1.20000000E+00  1.50000000E+00  1.20000000E+00
  1.20000000E+00  1.50000000E+00  1.20000000E+00  1.20000000E+00  1.50000000E+00
  1.20000000E+00  1.20000000E+00  1.50000000E+00  1.20000000E+00  1.20000000E+00
  1.50000000E+00  1.20000000E+00  1.20000000E+00  1.50000000E+00  1.20000000E+00
  1.20000000E+00  1.50000000E+00  1.20000000E+00  1.20000000E+00  1.50000000E+00
  1.20000000E+00  1.20000000E+00  1.50000000E+00  1.20000000E+00  1.20000000E+00
  1.50000000E+00  1.20000000E+00  1.20000000E+00  1.50000000E+00  1.20000000E+00
  1.20000000E+00  1.50000000E+00  1.20000000E+00  1.20000000E+00  1.50000000E+00
  1.20000000E+00  1.20000000E+00  1.50000000E+00  1.20000000E+00  1.20000000E+00
  1.50000000E+00  1.20000000E+00  1.20000000E+00  1.50000000E+00  1.20000000E+00
  1.20000000E+00  1.50000000E+00  1.20000000E+00  1.20000000E+00  1.50000000E+00
  1.20000000E+00  1.20000000E+00  1.50000000E+00  1.20000000E+00  1.20000000E+00
  1.50000000E+00  1.20000000E+00  1.20000000E+00  1.50000000E+00  1.20000000E+00
  1.20000000E+00  1.50000000E+00  1.20000000E+00  1.20000000E+00  1.50000000E+00
  1.20000000E+00  1.20000000E+00  1.50000000E+00  1.20000000E+00  1.20000000E+00
  1.50000000E+00  1.20000000E+00  1.20000000E+00  1.50000000E+00  1.20000000E+00
  1.20000000E+00  1.50000000E+00  1.20000000E+00  1.20000000E+00  1.50000000E+00
  1.20000000E+00  1.20000000E+00  1.50000000E+00  1.20000000E+00  1.20000000E+00
  1.50000000E+00  1.20000000E+00  1.20000000E+00  1.50000000E+00  1.20000000E+00
  1.20000000E+00  1.50000000E+00  1.20000000E+00  1.20000000E+00  1.50000000E+00
  1.20000000E+00  1.20000000E+00  1.50000000E+00  1.20000000E+00  1.20000000E+00
  1.50000000E+00  1.20000000E+00  1.20000000E+00  1.50000000E+00  1.20000000E+00
  1.20000000E+00  1.50000000E+00  1.20000000E+00  1.20000000E+00  1.50000000E+00
  1.20000000E+00  1.20000000E+00  1.50000000E+00  1.20000000E+00  1.20000000E+00
  1.50000000E+00  1.20000000E+00  1.20000000E+00  1.50000000E+00  1.20000000E+00
  1.20000000E+00  1.50000000E+00  1.20000000E+00  1.20000000E+00  1.50000000E+00
  1.20000000E+00  1.20000000E+00  1.50000000E+00  1.20000000E+00  1.20000000E+00
  1.50000000E+00  1.20000000E+00  1.20000000E+00  1.50000000E+00  1.20000000E+00
  1.20000000E+00  1.50000000E+00  1.20000000E+00  1.20000000E+00  1.50000000E+00
  1.20000000E+00  1.20000000E+00  1.50000000E+00  1.20000000E+00  1.20000000E+00
  1.50000000E+00  1.20000000E+00  1.20000000E+00  1.50000000E+00  1.20000000E+00
  1.20000000E+00  1.50000000E+00  1.20000000E+00  1.20000000E+00  1.50000000E+00
  1.20000000E+00  1.20000000E+00  1.50000000E+00  1.20000000E+00  1.20000000E+00
  1.50000000E+00  1.20000000E+00  1.20000000E+00  1.50000000E+00  1.20000000E+00
  1.20000000E+00  1.50000000E+00  1.20000000E+00  1.20000000E+00  1.50000000E+00
  1.20000000E+00  1.20000000E+00  1.50000000E+00  1.20000000E+00  1.20000000E+00
  1.50000000E+00  1.20000000E+00  1.20000000E+00  1.50000000E+00  1.20000000E+00
  1.20000000E+00  1.50000000E+00  1.20000000E+00  1.20000000E+00  1.50000000E+00
  1.20000000E+00  1.20000000E+00  1.50000000E+00  1.20000000E+00  1.20000000E+00
  1.50000000E+00  1.20000000E+00  1.20000000E+00  1.50000000E+00  1.20000000E+00
  1.20000000E+00  1.50000000E+00  1.20000000E+00  1.20000000E+00  1.50000000E+00
  1.20000000E+00  1.20000000E+00  1.50000000E+00  1.20000000E+00  1.20000000E+00
  1.50000000E+00  1.20000000E+00  1.20000000E+00  1.50000000E+00  1.20000000E+00
  1.20000000E+00  1.50000000E+00  1.20000000E+00  1.20000000E+00  1.50000000E+00
  1.20000000E+00  1.20000000E+00  1.50000000E+00  1.20000000E+00  1.20000000E+00
  1.50000000E+00  1.20000000E+00  1.20000000E+00  1.50000000E+00  1.20000000E+00
  1.20000000E+00  1.50000000E+00  1.20000000E+00  1.20000000E+00  1.50000000E+00
  1.20000000E+00  1.20000000E+00  1.50000000E+00  1.20000000E+00  1.20000000E+00
  1.50000000E+00  1.20000000E+00  1.20000000E+00  1.50000000E+00  1.20000000E+00
  1.20000000E+00  1.50000000E+00  1.20000000E+00  1.20000000E+00  1.50000000E+00
  1.20000000E+00  1.20000000E+00  1.50000000E+00  1.20000000E+00  1.20000000E+00
  1.50000000E+00  1.20000000E+00  1.20000000E+00  1.50000000E+00  1.20000000E+00
  1.20000000E+00  1.50000000E+00  1.20000000E+00  1.20000000E+00  1.50000000E+00
  1.20000000E+00  1.20000000E+00  1.50000000E+00  1.20000000E+00  1.20000000E+00
  1.50000000E+00  1.20000000E+00  1.20000000E+00  1.50000000E+00  1.20000000E+00
  1.20000000E+00  1.50000000E+00  1.20000000E+00  1.20000000E+00  1.50000000E+00
  1.20000000E+00  1.20000000E+00  1.50000000E+00  1.20000000E+00  1.20000000E+00
  1.50000000E+00  1.20000000E+00  1.20000000E+00  1.50000000E+00  1.20000000E+00
  1.20000000E+00  1.50000000E+00  1.20000000E+00  1.20000000E+00  1.50000000E+00
  1.20000000E+00  1.20000000E+00  1.50000000E+00  1.20000000E+00  1.20000000E+00
  1.50000000E+00  1.20000000E+00  1.20000000E+00  1.50000000E+00  1.20000000E+00
  1.20000000E+00  1.50000000E+00  1.20000000E+00  1.20000000E+00  1.50000000E+00
  1.20000000E+00  1.20000000E+00  1.50000000E+00  1.20000000E+00  1.20000000E+00
  1.50000000E+00  1.20000000E+00  1.20000000E+00  1.50000000E+00  1.20000000E+00
  1.20000000E+00  1.50000000E+00  1.20000000E+00  1.20000000E+00  1.50000000E+00
  1.20000000E+00  1.20000000E+00  1.50000000E+00  1.20000000E+00  1.20000000E+00
  1.50000000E+00  1.20000000E+00  1.20000000E+00  1.50000000E+00  1.20000000E+00
  1.20000000E+00  1.50000000E+00  1.20000000E+00  1.20000000E+00  1.50000000E+00
  1.20000000E+00  1.20000000E+00  1.50000000E+00  1.20000000E+00  1.20000000E+00
  1.50000000E+00  1.20000000E+00  1.20000000E+00  1.50000000E+00  1.20000000E+00
  1.20000000E+00  1.50000000E+00  1.20000000E+00  1.20000000E+00  1.50000000E+00
  1.20000000E+00  1.20000000E+00  1.50000000E+00  1.20000000E+00  1.20000000E+00
  1.50000000E+00  1.20000000E+00  1.20000000E+00  1.50000000E+00  1.20000000E+00
  1.20000000E+00  1.50000000E+00  1.20000000E+00  1.20000000E+00  1.50000000E+00
  1.20000000E+00  1.20000000E+00  1.50000000E+00  1.20000000E+00  1.20000000E+00
  1.50000000E+00  1.20000000E+00  1.20000000E+00  1.50000000E+00  1.20000000E+00
  1.20000000E+00  1.50000000E+00  1.20000000E+00  1.20000000E+00  1.50000000E+00
  1.20000000E+00  1.20000000E+00  1.50000000E+00  1.20000000E+00  1.20000000E+00
  1.50000000E+00  1.20000000E+00  1.20000000E+00  1.50000000E+00  1.20000000E+00
  1.20000000E+00  1.50000000E+00  1.20000000E+00  1.20000000E+00  1.50000000E+00
  1.20000000E+00  1.20000000E+00  1.50000000E+00  1.20000000E+00  1.20000000E+00
  1.50000000E+00  1.20000000E+00  1.20000000E+00  1.50000000E+00  1.20000000E+00
  1.20000000E+00  1.50000000E+00  1.20000000E+00  1.20000000E+00  1.50000000E+00
  1.20000000E+00  1.20000000E+00  1.50000000E+00  1.20000000E+00  1.20000000E+00
  1.50000000E+00  1.20000000E+00  1.20000000E+00  1.50000000E+00  1.20000000E+00
  1.20000000E+00  1.50000000E+00  1.20000000E+00  1.20000000E+00  1.50000000E+00
  1.20000000E+00  1.20000000E+00  1.50000000E+00  1.20000000E+00  1.20000000E+00
  1.50000000E+00  1.20000000E+00  1.20000000E+00  1.50000000E+00  1.20000000E+00
  1.20000000E+00  1.50000000E+00  1.20000000E+00  1.20000000E+00  1.50000000E+00
  1.20000000E+00  1.20000000E+00  1.50000000E+00  1.20000000E+00  1.20000000E+00
  1.50000000E+00  1.20000000E+00  1.20000000E+00  1.50000000E+00  1.20000000E+00
  1.20000000E+00  1.50000000E+00  1.20000000E+00  1.20000000E+00  1.50000000E+00
  1.20000000E+00  1.20000000E+00  1.50000000E+00  1.20000000E+00  1.20000000E+00
  1.50000000E+00  1.20000000E+00  1.20000000E+00  1.50000000E+00  1.20000000E+00
  1.20000000E+00  1.50000000E+00  1.20000000E+00  1.20000000E+00  1.50000000E+00
  1.20000000E+00  1.20000000E+00  1.50000000E+00  1.20000000E+00  1.20000000E+00
  1.50000000E+00  1.20000000E+00  1.20000000E+00  1.50000000E+00  1.20000000E+00
  1.20000000E+00  1.50000000E+00  1.20000000E+00  1.20000000E+00  1.50000000E+00
  1.20000000E+00  1.20000000E+00  1.50000000E+00  1.20000000E+00  1.20000000E+00
  1.50000000E+00  1.20000000E+00  1.20000000E+00  1.50000000E+00  1.20000000E+00
  1.20000000E+00  1.50000000E+00  1.20000000E+00  1.20000000E+00  1.50000000E+00
  1.20000000E+00  1.20000000E+00  1.50000000E+00  1.20000000E+00  1.20000000E+00
  1.50000000E+00  1.20000000E+00  1.20000000E+00  1.50000000E+00  1.20000000E+00
  1.20000000E+00  1.50000000E+00  1.20000000E+00  1.20000000E+00  1.50000000E+00
  1.20000000E+00  1.20000000E+00  1.50000000E+00  1.20000000E+00  1.20000000E+00
  1.50000000E+00  1.20000000E+00  1.20000000E+00  1.50000000E+00  1.20000000E+00
  1.20000000E+00  1.50000000E+00  1.20000000E+00  1.20000000E+00  1.50000000E+00
  1.20000000E+00  1.20000000E+00  1.50000000E+00  1.20000000E+00  1.20000000E+00
  1.50000000E+00  1.20000000E+00  1.20000000E+00  1.50000000E+00  1.20000000E+00
  1.20000000E+00  1.50000000E+00  1.20000000E+00  1.20000000E+00  1.50000000E+00
  1.20000000E+00  1.20000000E+00  1.50000000E+00  1.20000000E+00  1.20000000E+00
  1.50000000E+00  1.20000000E+00  1.20000000E+00  1.50000000E+00  1.20000000E+00
  1.20000000E+00  1.50000000E+00  1.20000000E+00  1.20000000E+00  1.50000000E+00
  1.20000000E+00  1.20000000E+00  1.50000000E+00  1.20000000E+00  1.20000000E+00
  1.50000000E+00  1.20000000E+00  1.20000000E+00  1.50000000E+00  1.20000000E+00
  1.20000000E+00  1.50000000E+00  1.20000000E+00  1.20000000E+00  1.50000000E+00
  1.20000000E+00  1.20000000E+00  1.50000000E+00  1.20000000E+00  1.20000000E+00
  1.50000000E+00  1.20000000E+00  1.20000000E+00  1.50000000E+00  1.20000000E+00
  1.20000000E+00  1.50000000E+00  1.20000000E+00  1.20000000E+00  1.50000000E+00
  1.20000000E+00  1.20000000E+00  1.50000000E+00  1.20000000E+00  1.20000000E+00
  1.50000000E+00  1.20000000E+00  1.20000000E+00  1.50000000E+00  1.20000000E+00
  1.20000000E+00  1.50000000E+00  1.20000000E+00  1.20000000E+00  1.50000000E+00
  1.20000000E+00  1.20000000E+00  1.50000000E+00  1.20000000E+00  1.20000000E+00
  1.50000000E+00  1.20000000E+00  1.20000000E+00  1.50000000E+00  1.20000000E+00
  1.20000000E+00  1.50000000E+00  1.20000000E+00  1.20000000E+00  1.50000000E+00
  1.20000000E+00  1.20000000E+00  1.50000000E+00  1.20000000E+00  1.20000000E+00
  1.50000000E+00  1.20000000E+00  1.20000000E+00  1.50000000E+00  1.20000000E+00
  1.20000000E+00  1.50000000E+00  1.20000000E+00  1.20000000E+00  1.50000000E+00
  1.20000000E+00  1.20000000E+00  1.50000000E+00  1.20000000E+00  1.20000000E+00
  1.50000000E+00  1.20000000E+00  1.20000000E+00  1.50000000E+00  1.20000000E+00
  1.20000000E+00  1.50000000E+00  1.20000000E+00  1.20000000E+00  1.50000000E+00
  1.20000000E+00  1.20000000E+00  1.50000000E+00  1.20000000E+00  1.20000000E+00
  1.50000000E+00  1.20000000E+00  1.20000000E+00  1.50000000E+00  1.20000000E+00
  1.20000000E+00  1.50000000E+00  1.20000000E+00  1.20000000E+00  1.50000000E+00
  1.20000000E+00  1.20000000E+00  1.50000000E+00  1.20000000E+00  1.20000000E+00
  1.50000000E+00  1.20000000E+00  1.20000000E+00  1.50000000E+00  1.20000000E+00
  1.20000000E+00  1.50000000E+00  1.20000000E+00  1.20000000E+00  1.50000000E+00
  1.20000000E+00  1.20000000E+00  1.50000000E+00  1.20000000E+00  1.20000000E+00
  1.50000000E+00  1.20000000E+00  1.20000000E+00  1.50000000E+00  1.20000000E+00
  1.20000000E+00  1.50000000E+00  1.20000000E+00  1.20000000E+00  1.50000000E+00
  1.20000000E+00  1.20000000E+00  1.50000000E+00  1.20000000E+00  1.20000000E+00
  1.50000000E+00  1.20000000E+00  1.20000000E+00  1.50000000E+00  1.20000000E+00
  1.20000000E+00  1.50000000E+00  1.20000000E+00  1.20000000E+00  1.50000000E+00
  1.20000000E+00  1.20000000E+00  1.50000000E+00  1.20000000E+00  1.20000000E+00
  1.50000000E+00  1.20000000E+00  1.20000000E+00  1.50000000E+00  1.20000000E+00
  1.20000000E+00  1.50000000E+00  1.20000000E+00  1.20000000E+00  1.50000000E+00
  1.20000000E+00  1.20000000E+00  1.50000000E+00  1.20000000E+00  1.20000000E+00
  1.50000000E+00  1.20000000E+00  1.20000000E+00  1.50000000E+00  1.20000000E+00
  1.20000000E+00  1.50000000E+00  1.20000000E+00  1.20000000E+00  1.50000000E+00
  1.20000000E+00  1.20000000E+00  1.50000000E+00  1.20000000E+00  1.20000000E+00
  1.50000000E+00  1.20000000E+00  1.20000000E+00  1.50000000E+00  1.20000000E+00
  1.20000000E+00  1.50000000E+00  1.20000000E+00  1.20000000E+00  1.50000000E+00
  1.20000000E+00  1.20000000E+00  1.50000000E+00  1.20000000E+00  1.20000000E+00
  1.50000000E+00  1.20000000E+00  1.20000000E+00  1.50000000E+00  1.20000000E+00
  1.20000000E+00  1.50000000E+00  1.20000000E+00  1.20000000E+00  1.50000000E+00
  1.20000000E+00  1.20000000E+00  1.50000000E+00  1.20000000E+00  1.20000000E+00
  1.50000000E+00  1.20000000E+00  1.20000000E+00  1.50000000E+00  1.20000000E+00
  1.20000000E+00  1.50000000E+00  1.20000000E+00  1.20000000E+00  1.50000000E+00
  1.20000000E+00  1.20000000E+00  1.50000000E+00  1.20000000E+00  1.20000000E+00
  1.50000000E+00  1.20000000E+00  1.20000000E+00  1.50000000E+00  1.20000000E+00
  1.20000000E+00  1.50000000E+00  1.20000000E+00  1.20000000E+00  1.50000000E+00
  1.20000000E+00  1.20000000E+00  1.50000000E+00  1.20000000E+00  1.20000000E+00
  1.50000000E+00  1.20000000E+00  1.20000000E+00  1.50000000E+00  1.20000000E+00
  1.20000000E+00  1.50000000E+00  1.20000000E+00  1.20000000E+00  1.50000000E+00
  1.20000000E+00  1.20000000E+00  1.50000000E+00  1.20000000E+00  1.20000000E+00
  1.50000000E+00  1.20000000E+00  1.20000000E+00  1.50000000E+00  1.20000000E+00
  1.20000000E+00  1.50000000E+00  1.20000000E+00  1.20000000E+00  1.50000000E+00
  1.20000000E+00  1.20000000E+00  1.50000000E+00  1.20000000E+00  1.20000000E+00
  1.50000000E+00  1.20000000E+00  1.20000000E+00  1.50000000E+00  1.20000000E+00
  1.20000000E+00  1.50000000E+00  1.20000000E+00  1.20000000E+00  1.50000000E+00
  1.20000000E+00  1.20000000E+00  1.50000000E+00  1.20000000E+00  1.20000000E+00
  1.50000000E+00  1.20000000E+00  1.20000000E+00  1.50000000E+00  1.20000000E+00
  1.20000000E+00  1.50000000E+00  1.20000000E+00  1.20000000E+00  1.50000000E+00
  1.20000000E+00  1.20000000E+00  1.50000000E+00  1.20000000E+00  1.20000000E+00
  1.50000000E+00  1.20000000E+00  1.20000000E+00  1.50000000E+00  1.20000000E+00
  1.20000000E+00  1.50000000E+00  1.20000000E+00  1.20000000E+00  1.50000000E+00
  1.20000000E+00  1.20000000E+00  1.50000000E+00  1.20000000E+00  1.20000000E+00
  1.50000000E+00  1.20000000E+00  1.20000000E+00  1.50000000E+00  1.20000000E+00
  1.20000000E+00  1.50000000E+00  1.20000000E+00  1.20000000E+00  1.50000000E+00
  1.20000000E+00  1.20000000E+00  1.50000000E+00  1.20000000E+00  1.20000000E+00
  1.50000000E+00  1.20000000E+00  1.20000000E+00  1.50000000E+00  1.20000000E+00
  1.20000000E+00  1.50000000E+00  1.20000000E+00  1.20000000E+00  1.50000000E+00
  1.20000000E+00  1.20000000E+00  1.50000000E+00  1.20000000E+00  1.20000000E+00
  1.50000000E+00  1.20000000E+00  1.20000000E+00  1.50000000E+00  1.20000000E+00
  1.20000000E+00  1.50000000E+00  1.20000000E+00  1.20000000E+00  1.50000000E+00
  1.20000000E+00  1.20000000E+00  1.50000000E+00  1.20000000E+00  1.20000000E+00
  1.50000000E+00  1.20000000E+00  1.20000000E+00  1.50000000E+00  1.20000000E+00
  1.20000000E+00  1.50000000E+00  1.20000000E+00  1.20000000E+00  1.50000000E+00
  1.20000000E+00  1.20000000E+00  1.50000000E+00  1.20000000E+00  1.20000000E+00
  1.50000000E+00  1.20000000E+00  1.20000000E+00  1.50000000E+00  1.20000000E+00
  1.20000000E+00  1.50000000E+00  1.20000000E+00  1.20000000E+00  1.50000000E+00
  1.20000000E+00  1.20000000E+00  1.50000000E+00  1.20000000E+00  1.20000000E+00
  1.50000000E+00  1.20000000E+00  1.20000000E+00  1.50000000E+00  1.20000000E+00
  1.20000000E+00  1.50000000E+00  1.20000000E+00  1.20000000E+00  1.50000000E+00
  1.20000000E+00  1.20000000E+00  1.50000000E+00  1.20000000E+00  1.20000000E+00
  1.50000000E+00  1.20000000E+00  1.20000000E+00  1.50000000E+00  1.20000000E+00
  1.20000000E+00  1.50000000E+00  1.20000000E+00  1.20000000E+00  1.50000000E+00
  1.20000000E+00  1.20000000E+00  1.50000000E+00  1.20000000E+00  1.20000000E+00
  1.50000000E+00  1.20000000E+00  1.20000000E+00  1.50000000E+00  1.20000000E+00
  1.20000000E+00  1.50000000E+00  1.20000000E+00  1.20000000E+00  1.50000000E+00
  1.20000000E+00  1.20000000E+00  1.50000000E+00  1.20000000E+00  1.20000000E+00
  1.50000000E+00  1.20000000E+00  1.20000000E+00  1.50000000E+00  1.20000000E+00
  1.20000000E+00  1.50000000E+00  1.20000000E+00  1.20000000E+00  1.50000000E+00
  1.20000000E+00  1.20000000E+00  1.50000000E+00  1.20000000E+00  1.20000000E+00
  1.50000000E+00  1.20000000E+00  1.20000000E+00  1.50000000E+00  1.20000000E+00
  1.20000000E+00  1.50000000E+00  1.20000000E+00  1.20000000E+00  1.50000000E+00
  1.20000000E+00  1.20000000E+00  1.50000000E+00  1.20000000E+00  1.20000000E+00
  1.50000000E+00  1.20000000E+00  1.20000000E+00  1.50000000E+00  1.20000000E+00
  1.20000000E+00  1.50000000E+00  1.20000000E+00  1.20000000E+00  1.50000000E+00
  1.20000000E+00  1.20000000E+00  1.50000000E+00  1.20000000E+00  1.20000000E+00
  1.50000000E+00  1.20000000E+00  1.20000000E+00  1.50000000E+00  1.20000000E+00
  1.20000000E+00  1.50000000E+00  1.20000000E+00  1.20000000E+00  1.50000000E+00
  1.20000000E+00  1.20000000E+00  1.50000000E+00  1.20000000E+00  1.20000000E+00
  1.50000000E+00  1.20000000E+00  1.20000000E+00  1.50000000E+00  1.20000000E+00
  1.20000000E+00  1.50000000E+00  1.20000000E+00  1.20000000E+00  1.50000000E+00
  1.20000000E+00  1.20000000E+00  1.50000000E+00  1.20000000E+00  1.20000000E+00
  1.50000000E+00  1.20000000E+00  1.20000000E+00  1.50000000E+00  1.20000000E+00
  1.20000000E+00  1.50000000E+00  1.20000000E+00  1.20000000E+00  1.50000000E+00
  1.20000000E+00  1.20000000E+00  1.50000000E+00  1.20000000E+00  1.20000000E+00
  1.50000000E+00  1.20000000E+00  1.20000000E+00  1.50000000E+00  1.20000000E+00
  1.20000000E+00  1.50000000E+00  1.20000000E+00  1.20000000E+00  1.50000000E+00
  1.20000000E+00  1.20000000E+00  1.50000000E+00  1.20000000E+00  1.20000000E+00
  1.50000000E+00  1.20000000E+00  1.20000000E+00  1.50000000E+00  1.20000000E+00
  1.20000000E+00  1.50000000E+00  1.20000000E+00  1.20000000E+00  1.50000000E+00
  1.20000000E+00  1.20000000E+00  1.50000000E+00  1.20000000E+00  1.20000000E+00
  1.50000000E+00  1.20000000E+00  1.20000000E+00  1.50000000E+00  1.20000000E+00
  1.20000000E+00  1.50000000E+00  1.20000000E+00  1.20000000E+00  1.50000000E+00
  1.20000000E+00  1.20000000E+00  1.50000000E+00  1.20000000E+00  1.20000000E+00
  1.50000000E+00  1.20000000E+00  1.20000000E+00  1.50000000E+00  1.20000000E+00
  1.20000000E+00  1.50000000E+00  1.20000000E+00  1.20000000E+00  1.50000000E+00
  1.20000000E+00  1.20000000E+00  1.50000000E+00  1.20000000E+00  1.20000000E+00
  1.50000000E+00  1.20000000E+00  1.20000000E+00  1.50000000E+00  1.20000000E+00
  1.20000000E+00  1.50000000E+00  1.20000000E+00  1.20000000E+00  1.50000000E+00
  1.20000000E+00  1.20000000E+00  1.50000000E+00  1.20000000E+00  1.20000000E+00
  1.50000000E+00  1.20000000E+00  1.20000000E+00  1.50000000E+00  1.20000000E+00
  1.20000000E+00  1.50000000E+00  1.20000000E+00  1.20000000E+00  1.50000000E+00
  1.20000000E+00  1.20000000E+00  1.50000000E+00  1.20000000E+00  1.20000000E+00
  1.50000000E+00  1.20000000E+00  1.20000000E+00  1.50000000E+00  1.20000000E+00
  1.20000000E+00  1.50000000E+00  1.20000000E+00  1.20000000E+00  1.50000000E+00
  1.20000000E+00  1.20000000E+00  1.50000000E+00  1.20000000E+00  1.20000000E+00
  1.50000000E+00  1.20000000E+00  1.20000000E+00  1.50000000E+00  1.20000000E+00
  1.20000000E+00  1.50000000E+00  1.20000000E+00  1.20000000E+00  1.50000000E+00
  1.20000000E+00  1.20000000E+00  1.50000000E+00  1.20000000E+00  1.20000000E+00
  1.50000000E+00  1.20000000E+00  1.20000000E+00  1.50000000E+00  1.20000000E+00
  1.20000000E+00  1.50000000E+00  1.20000000E+00  1.20000000E+00  1.50000000E+00
  1.20000000E+00  1.20000000E+00  1.50000000E+00  1.20000000E+00  1.20000000E+00
  1.50000000E+00  1.20000000E+00  1.20000000E+00  1.50000000E+00  1.20000000E+00
  1.20000000E+00  1.50000000E+00  1.20000000E+00  1.20000000E+00  1.50000000E+00
  1.20000000E+00  1.20000000E+00  1.50000000E+00  1.20000000E+00  1.20000000E+00
  1.50000000E+00  1.20000000E+00  1.20000000E+00  1.50000000E+00  1.20000000E+00
  1.20000000E+00  1.50000000E+00  1.20000000E+00  1.20000000E+00  1.50000000E+00
  1.20000000E+00  1.20000000E+00  1.50000000E+00  1.20000000E+00  1.20000000E+00
  1.50000000E+00  1.20000000E+00  1.20000000E+00  1.50000000E+00  1.20000000E+00
  1.20000000E+00  1.50000000E+00  1.20000000E+00  1.20000000E+00  1.50000000E+00
  1.20000000E+00  1.20000000E+00  1.50000000E+00  1.20000000E+00  1.20000000E+00
  1.50000000E+00  1.20000000E+00  1.20000000E+00  1.50000000E+00  1.20000000E+00
  1.20000000E+00  1.50000000E+00  1.20000000E+00  1.20000000E+00  1.50000000E+00
  1.20000000E+00  1.20000000E+00  1.50000000E+00  1.20000000E+00  1.20000000E+00
  1.50000000E+00  1.20000000E+00  1.20000000E+00  1.50000000E+00  1.20000000E+00
  1.20000000E+00  1.50000000E+00  1.20000000E+00  1.20000000E+00  1.50000000E+00
  1.20000000E+00  1.20000000E+00  1.50000000E+00  1.20000000E+00  1.20000000E+00
  1.50000000E+00  1.20000000E+00  1.20000000E+00  1.50000000E+00  1.20000000E+00
  1.20000000E+00  1.50000000E+00  1.20000000E+00  1.20000000E+00  1.50000000E+00
  1.20000000E+00  1.20000000E+00  1.50000000E+00  1.20000000E+00  1.20000000E+00
  1.50000000E+00  1.20000000E+00  1.20000000E+00  1.50000000E+00  1.20000000E+00
  1.20000000E+00  1.50000000E+00  1.20000000E+00  1.20000000E+00  1.50000000E+00
  1.20000000E+00  1.20000000E+00  1.50000000E+00  1.20000000E+00  1.20000000E+00
  1.50000000E+00  1.20000000E+00  1.20000000E+00  1.50000000E+00  1.20000000E+00
  1.20000000E+00  1.50000000E+00  1.20000000E+00  1.20000000E+00  1.50000000E+00
  1.20000000E+00  1.20000000E+00  1.50000000E+00  1.20000000E+00  1.20000000E+00
  1.50000000E+00  1.20000000E+00  1.20000000E+00  1.50000000E+00  1.20000000E+00
  1.20000000E+00  1.50000000E+00  1.20000000E+00  1.20000000E+00  1.50000000E+00
  1.20000000E+00  1.20000000E+00  1.50000000E+00  1.20000000E+00  1.20000000E+00
  1.50000000E+00  1.20000000E+00  1.20000000E+00  1.50000000E+00  1.20000000E+00
  1.20000000E+00  1.50000000E+00  1.20000000E+00  1.20000000E+00  1.50000000E+00
  1.20000000E+00  1.20000000E+00  1.50000000E+00  1.20000000E+00  1.20000000E+00
  1.50000000E+00  1.20000000E+00  1.20000000E+00  1.50000000E+00  1.20000000E+00
  1.20000000E+00  1.50000000E+00  1.20000000E+00  1.20000000E+00  1.50000000E+00
  1.20000000E+00  1.20000000E+00  1.50000000E+00  1.20000000E+00  1.20000000E+00
  1.50000000E+00  1.20000000E+00  1.20000000E+00  1.50000000E+00  1.20000000E+00
  1.20000000E+00  1.50000000E+00  1.20000000E+00  1.20000000E+00  1.50000000E+00
  1.20000000E+00  1.20000000E+00  1.50000000E+00  1.20000000E+00  1.20000000E+00
  1.50000000E+00  1.20000000E+00  1.20000000E+00  1.50000000E+00  1.20000000E+00
  1.20000000E+00  1.50000000E+00  1.20000000E+00  1.20000000E+00  1.50000000E+00
  1.20000000E+00  1.20000000E+00  1.50000000E+00  1.20000000E+00  1.20000000E+00
  1.50000000E+00  1.20000000E+00  1.20000000E+00  1.50000000E+00  1.20000000E+00
  1.20000000E+00  1.50000000E+00  1.20000000E+00  1.20000000E+00  1.50000000E+00
  1.20000000E+00  1.20000000E+00  1.50000000E+00  1.20000000E+00  1.20000000E+00
  1.50000000E+00  1.20000000E+00  1.20000000E+00  1.50000000E+00  1.20000000E+00
  1.20000000E+00  1.50000000E+00  1.20000000E+00  1.20000000E+00  1.50000000E+00
  1.20000000E+00  1.20000000E+00  1.50000000E+00  1.20000000E+00  1.20000000E+00
  1.50000000E+00  1.20000000E+00  1.20000000E+00  1.50000000E+00  1.20000000E+00
  1.20000000E+00  1.50000000E+00  1.20000000E+00  1.20000000E+00  1.50000000E+00
  1.20000000E+00  1.20000000E+00  1.50000000E+00  1.20000000E+00  1.20000000E+00
  1.50000000E+00  1.20000000E+00  1.20000000E+00  1.50000000E+00  1.20000000E+00
  1.20000000E+00  1.50000000E+00  1.20000000E+00  1.20000000E+00  1.50000000E+00
  1.20000000E+00  1.20000000E+00  1.50000000E+00  1.20000000E+00  1.20000000E+00
  1.50000000E+00  1.20000000E+00  1.20000000E+00  1.50000000E+00  1.20000000E+00
  1.20000000E+00  1.50000000E+00  1.20000000E+00  1.20000000E+00  1.50000000E+00
  1.20000000E+00  1.20000000E+00  1.50000000E+00  1.20000000E+00  1.20000000E+00
  1.50000000E+00  1.20000000E+00  1.20000000E+00  1.50000000E+00  1.20000000E+00
  1.20000000E+00  1.50000000E+00  1.20000000E+00  1.20000000E+00  1.50000000E+00
  1.20000000E+00  1.20000000E+00  1.50000000E+00  1.20000000E+00  1.20000000E+00
  1.50000000E+00  1.20000000E+00  1.20000000E+00  1.50000000E+00  1.20000000E+00
  1.20000000E+00  1.50000000E+00  1.20000000E+00  1.20000000E+00  1.50000000E+00
  1.20000000E+00  1.20000000E+00  1.50000000E+00  1.20000000E+00  1.20000000E+00
  1.50000000E+00  1.20000000E+00  1.20000000E+00  1.50000000E+00  1.20000000E+00
  1.20000000E+00  1.50000000E+00  1.20000000E+00  1.20000000E+00  1.50000000E+00
  1.20000000E+00  1.20000000E+00  1.50000000E+00  1.20000000E+00  1.20000000E+00
  1.50000000E+00  1.20000000E+00  1.20000000E+00  1.50000000E+00  1.20000000E+00
  1.20000000E+00  1.50000000E+00  1.20000000E+00  1.20000000E+00  1.50000000E+00
  1.20000000E+00  1.20000000E+00  1.50000000E+00  1.20000000E+00  1.20000000E+00
  1.50000000E+00  1.20000000E+00  1.20000000E+00  1.50000000E+00  1.20000000E+00
  1.20000000E+00  1.50000000E+00  1.20000000E+00  1.20000000E+00  1.50000000E+00
  1.20000000E+00  1.20000000E+00  1.50000000E+00  1.20000000E+00  1.20000000E+00
  1.50000000E+00  1.20000000E+00  1.20000000E+00  1.50000000E+00  1.20000000E+00
  1.20000000E+00  1.50000000E+00  1.20000000E+00  1.20000000E+00  1.50000000E+00
  1.20000000E+00  1.20000000E+00  1.50000000E+00  1.20000000E+00  1.20000000E+00
  1.50000000E+00  1.20000000E+00  1.20000000E+00  1.50000000E+00  1.20000000E+00
  1.20000000E+00  1.50000000E+00  1.20000000E+00  1.20000000E+00  1.50000000E+00
  1.20000000E+00  1.20000000E+00  1.50000000E+00  1.20000000E+00  1.20000000E+00
  1.50000000E+00  1.20000000E+00  1.20000000E+00  1.50000000E+00  1.20000000E+00
  1.20000000E+00  1.50000000E+00  1.20000000E+00  1.20000000E+00  1.50000000E+00
  1.20000000E+00  1.20000000E+00  1.50000000E+00  1.20000000E+00  1.20000000E+00
  1.50000000E+00  1.20000000E+00  1.20000000E+00  1.50000000E+00  1.20000000E+00
  1.20000000E+00  1.50000000E+00  1.20000000E+00  1.20000000E+00  1.50000000E+00
  1.20000000E+00  1.20000000E+00  1.50000000E+00  1.20000000E+00  1.20000000E+00
  1.50000000E+00  1.20000000E+00  1.20000000E+00  1.50000000E+00  1.20000000E+00
  1.20000000E+00  1.50000000E+00  1.20000000E+00  1.20000000E+00  1.50000000E+00
  1.20000000E+00  1.20000000E+00  1.50000000E+00  1.20000000E+00  1.20000000E+00
  1.50000000E+00  1.20000000E+00  1.20000000E+00  1.50000000E+00  1.20000000E+00
  1.20000000E+00  1.50000000E+00  1.20000000E+00  1.20000000E+00  1.50000000E+00
  1.20000000E+00  1.20000000E+00  1.50000000E+00  1.20000000E+00  1.20000000E+00
  1.50000000E+00  1.20000000E+00  1.20000000E+00  1.50000000E+00  1.20000000E+00
  1.20000000E+00  1.50000000E+00  1.20000000E+00  1.20000000E+00  1.50000000E+00
  1.20000000E+00  1.20000000E+00  1.50000000E+00  1.20000000E+00  1.20000000E+00
  1.50000000E+00  1.20000000E+00  1.20000000E+00  1.50000000E+00  1.20000000E+00
  1.20000000E+00  1.50000000E+00  1.20000000E+00  1.20000000E+00  1.50000000E+00
  1.20000000E+00  1.20000000E+00  1.50000000E+00  1.20000000E+00  1.20000000E+00
  1.50000000E+00  1.20000000E+00  1.20000000E+00  1.50000000E+00  1.20000000E+00
  1.20000000E+00  1.50000000E+00  1.20000000E+00  1.20000000E+00  1.50000000E+00
  1.20000000E+00  1.20000000E+00  1.50000000E+00  1.20000000E+00  1.20000000E+00
  1.50000000E+00  1.20000000E+00  1.20000000E+00  1.50000000E+00  1.20000000E+00
  1.20000000E+00  1.50000000E+00  1.20000000E+00  1.20000000E+00  1.50000000E+00
  1.20000000E+00  1.20000000E+00  1.50000000E+00  1.20000000E+00  1.20000000E+00
  1.50000000E+00  1.20000000E+00  1.20000000E+00  1.50000000E+00  1.20000000E+00
  1.20000000E+00  1.50000000E+00  1.20000000E+00  1.20000000E+00  1.50000000E+00
  1.20000000E+00  1.20000000E+00  1.50000000E+00  1.20000000E+00  1.20000000E+00
  1.50000000E+00  1.20000000E+00  1.20000000E+00  1.50000000E+00  1.20000000E+00
  1.20000000E+00  1.50000000E+00  1.20000000E+00  1.20000000E+00  1.50000000E+00
  1.20000000E+00  1.20000000E+00  1.50000000E+00  1.20000000E+00  1.20000000E+00
  1.50000000E+00  1.20000000E+00  1.20000000E+00  1.50000000E+00  1.20000000E+00
  1.20000000E+00  1.50000000E+00  1.20000000E+00  1.20000000E+00  1.50000000E+00
  1.20000000E+00  1.20000000E+00  1.50000000E+00  1.20000000E+00  1.20000000E+00
  1.50000000E+00  1.20000000E+00  1.20000000E+00  1.50000000E+00  1.20000000E+00
  1.20000000E+00  1.50000000E+00  1.20000000E+00  1.20000000E+00  1.50000000E+00
  1.20000000E+00  1.20000000E+00  1.50000000E+00  1.20000000E+00  1.20000000E+00
  1.50000000E+00  1.20000000E+00  1.20000000E+00  1.50000000E+00  1.20000000E+00
  1.20000000E+00  1.50000000E+00  1.20000000E+00  1.20000000E+00  1.50000000E+00
  1.20000000E+00  1.20000000E+00  1.50000000E+00  1.20000000E+00  1.20000000E+00
  1.50000000E+00  1.20000000E+00  1.20000000E+00  1.50000000E+00  1.20000000E+00
  1.20000000E+00  1.50000000E+00  1.20000000E+00  1.20000000E+00  1.50000000E+00
  1.20000000E+00  1.20000000E+00  1.50000000E+00  1.20000000E+00  1.20000000E+00
  1.50000000E+00  1.20000000E+00  1.20000000E+00  1.50000000E+00  1.20000000E+00
  1.20000000E+00  1.50000000E+00  1.20000000E+00  1.20000000E+00  1.50000000E+00
  1.20000000E+00  1.20000000E+00  1.50000000E+00  1.20000000E+00  1.20000000E+00
  1.50000000E+00  1.20000000E+00  1.20000000E+00  1.50000000E+00  1.20000000E+00
  1.20000000E+00  1.50000000E+00  1.20000000E+00  1.20000000E+00  1.50000000E+00
  1.20000000E+00  1.20000000E+00  1.50000000E+00  1.20000000E+00  1.20000000E+00
  1.50000000E+00  1.20000000E+00  1.20000000E+00  1.50000000E+00  1.20000000E+00
  1.20000000E+00  1.50000000E+00  1.20000000E+00  1.20000000E+00  1.50000000E+00
  1.20000000E+00  1.20000000E+00  1.50000000E+00  1.20000000E+00  1.20000000E+00
  1.50000000E+00  1.20000000E+00  1.20000000E+00  1.50000000E+00  1.20000000E+00
  1.20000000E+00  1.50000000E+00  1.20000000E+00  1.20000000E+00  1.50000000E+00
  1.20000000E+00  1.20000000E+00  1.50000000E+00  1.20000000E+00  1.20000000E+00
  1.50000000E+00  1.20000000E+00  1.20000000E+00  1.50000000E+00  1.20000000E+00
  1.20000000E+00  1.50000000E+00  1.20000000E+00  1.20000000E+00  1.50000000E+00
  1.20000000E+00  1.20000000E+00  1.50000000E+00  1.20000000E+00  1.20000000E+00
  1.50000000E+00  1.20000000E+00  1.20000000E+00  1.50000000E+00  1.20000000E+00
  1.20000000E+00  1.50000000E+00  1.20000000E+00  1.20000000E+00  1.50000000E+00
  1.20000000E+00  1.20000000E+00  1.50000000E+00  1.20000000E+00  1.20000000E+00
  1.50000000E+00  1.20000000E+00  1.20000000E+00  1.50000000E+00  1.20000000E+00
  1.20000000E+00  1.50000000E+00  1.20000000E+00  1.20000000E+00  1.50000000E+00
  1.20000000E+00  1.20000000E+00  1.50000000E+00  1.20000000E+00  1.20000000E+00
  1.50000000E+00  1.20000000E+00  1.20000000E+00  1.50000000E+00  1.20000000E+00
  1.20000000E+00  1.50000000E+00  1.20000000E+00  1.20000000E+00  1.50000000E+00
  1.20000000E+00  1.20000000E+00  1.50000000E+00  1.20000000E+00  1.20000000E+00
  1.50000000E+00  1.20000000E+00  1.20000000E+00  1.50000000E+00  1.20000000E+00
  1.20000000E+00  1.50000000E+00  1.20000000E+00  1.20000000E+00  1.50000000E+00
  1.20000000E+00  1.20000000E+00  1.50000000E+00  1.20000000E+00  1.20000000E+00
  1.50000000E+00  1.20000000E+00  1.20000000E+00  1.50000000E+00  1.20000000E+00
  1.20000000E+00  1.50000000E+00  1.20000000E+00  1.20000000E+00  1.50000000E+00
  1.20000000E+00  1.20000000E+00  1.50000000E+00  1.20000000E+00  1.20000000E+00
  1.50000000E+00  1.20000000E+00  1.20000000E+00  1.50000000E+00  1.20000000E+00
  1.20000000E+00  1.50000000E+00  1.20000000E+00  1.20000000E+00  1.50000000E+00
  1.20000000E+00  1.20000000E+00  1.50000000E+00  1.20000000E+00  1.20000000E+00
  1.50000000E+00  1.20000000E+00  1.20000000E+00  1.50000000E+00  1.20000000E+00
  1.20000000E+00  1.50000000E+00  1.20000000E+00  1.20000000E+00  1.50000000E+00
  1.20000000E+00  1.20000000E+00  1.50000000E+00  1.20000000E+00  1.20000000E+00
  1.50000000E+00  1.20000000E+00  1.20000000E+00  1.50000000E+00  1.20000000E+00
  1.20000000E+00  1.50000000E+00  1.20000000E+00  1.20000000E+00  1.50000000E+00
  1.20000000E+00  1.20000000E+00  1.50000000E+00  1.20000000E+00  1.20000000E+00
  1.50000000E+00  1.20000000E+00  1.20000000E+00  1.50000000E+00  1.20000000E+00
  1.20000000E+00  1.50000000E+00  1.20000000E+00  1.20000000E+00  1.50000000E+00
  1.20000000E+00  1.20000000E+00  1.50000000E+00  1.20000000E+00  1.20000000E+00
  1.50000000E+00  1.20000000E+00  1.20000000E+00  1.50000000E+00  1.20000000E+00
  1.20000000E+00  1.50000000E+00  1.20000000E+00  1.20000000E+00  1.50000000E+00
  1.20000000E+00  1.20000000E+00  1.50000000E+00  1.20000000E+00  1.20000000E+00
  1.50000000E+00  1.20000000E+00  1.20000000E+00  1.50000000E+00  1.20000000E+00
  1.20000000E+00  1.50000000E+00  1.20000000E+00  1.20000000E+00  1.50000000E+00
  1.20000000E+00  1.20000000E+00  1.50000000E+00  1.20000000E+00  1.20000000E+00
  1.50000000E+00  1.20000000E+00  1.20000000E+00  1.50000000E+00  1.20000000E+00
  1.20000000E+00  1.50000000E+00  1.20000000E+00  1.20000000E+00  1.50000000E+00
  1.20000000E+00  1.20000000E+00  1.50000000E+00  1.20000000E+00  1.20000000E+00
  1.50000000E+00  1.20000000E+00  1.20000000E+00  1.50000000E+00  1.20000000E+00
  1.20000000E+00  1.50000000E+00  1.20000000E+00  1.20000000E+00  1.50000000E+00
  1.20000000E+00  1.20000000E+00  1.50000000E+00  1.20000000E+00  1.20000000E+00
  1.50000000E+00  1.20000000E+00  1.20000000E+00  1.50000000E+00  1.20000000E+00
  1.20000000E+00  1.50000000E+00  1.20000000E+00  1.20000000E+00  1.50000000E+00
  1.20000000E+00  1.20000000E+00  1.50000000E+00  1.20000000E+00  1.20000000E+00
  1.50000000E+00  1.20000000E+00  1.20000000E+00  1.50000000E+00  1.20000000E+00
  1.20000000E+00  1.50000000E+00  1.20000000E+00  1.20000000E+00  1.50000000E+00
  1.20000000E+00  1.20000000E+00  1.50000000E+00  1.20000000E+00  1.20000000E+00
  1.50000000E+00  1.20000000E+00  1.20000000E+00  1.50000000E+00  1.20000000E+00
  1.20000000E+00  1.50000000E+00  1.20000000E+00  1.20000000E+00  1.50000000E+00
  1.20000000E+00  1.20000000E+00  1.50000000E+00  1.20000000E+00  1.20000000E+00
  1.50000000E+00  1.20000000E+00  1.20000000E+00  1.50000000E+00  1.20000000E+00
  1.20000000E+00  1.50000000E+00  1.20000000E+00  1.20000000E+00  1.50000000E+00
  1.20000000E+00  1.20000000E+00  1.50000000E+00  1.20000000E+00  1.20000000E+00
  1.50000000E+00  1.20000000E+00  1.20000000E+00  1.50000000E+00  1.20000000E+00
  1.20000000E+00  1.50000000E+00  1.20000000E+00  1.20000000E+00  1.50000000E+00
  1.20000000E+00  1.20000000E+00  1.50000000E+00  1.20000000E+00  1.20000000E+00
  1.50000000E+00  1.20000000E+00  1.20000000E+00  1.50000000E+00  1.20000000E+00
  1.20000000E+00  1.50000000E+00  1.20000000E+00  1.20000000E+00  1.50000000E+00
  1.20000000E+00  1.20000000E+00  1.50000000E+00  1.20000000E+00  1.20000000E+00
  1.50000000E+00  1.20000000E+00  1.20000000E+00  1.50000000E+00  1.20000000E+00
  1.20000000E+00  1.50000000E+00  1.20000000E+00  1.20000000E+00  1.50000000E+00
  1.20000000E+00  1.20000000E+00  1.50000000E+00  1.20000000E+00  1.20000000E+00
  1.50000000E+00  1.20000000E+00  1.20000000E+00  1.50000000E+00  1.20000000E+00
  1.20000000E+00  1.50000000E+00  1.20000000E+00  1.20000000E+00  1.50000000E+00
  1.20000000E+00  1.20000000E+00  1.50000000E+00  1.20000000E+00  1.20000000E+00
  1.50000000E+00  1.20000000E+00  1.20000000E+00  1.50000000E+00  1.20000000E+00
  1.20000000E+00  1.50000000E+00  1.20000000E+00  1.20000000E+00  1.50000000E+00
  1.20000000E+00  1.20000000E+00  1.50000000E+00  1.20000000E+00  1.20000000E+00
  1.50000000E+00  1.20000000E+00  1.20000000E+00  1.50000000E+00  1.20000000E+00
  1.20000000E+00  1.50000000E+00  1.20000000E+00  1.20000000E+00  1.50000000E+00
  1.20000000E+00  1.20000000E+00  1.50000000E+00  1.20000000E+00  1.20000000E+00
  1.50000000E+00  1.20000000E+00  1.20000000E+00  1.50000000E+00  1.20000000E+00
  1.20000000E+00  1.50000000E+00  1.20000000E+00  1.20000000E+00  1.50000000E+00
  1.20000000E+00  1.20000000E+00  1.50000000E+00  1.20000000E+00  1.20000000E+00
  1.50000000E+00  1.20000000E+00  1.20000000E+00  1.50000000E+00  1.20000000E+00
  1.20000000E+00  1.50000000E+00  1.20000000E+00  1.20000000E+00  1.50000000E+00
  1.20000000E+00  1.20000000E+00  1.50000000E+00  1.20000000E+00  1.20000000E+00
  1.50000000E+00  1.20000000E+00  1.20000000E+00  1.50000000E+00  1.20000000E+00
  1.20000000E+00  1.50000000E+00  1.20000000E+00  1.20000000E+00  1.50000000E+00
  1.20000000E+00  1.20000000E+00  1.50000000E+00  1.20000000E+00  1.20000000E+00
  1.50000000E+00  1.20000000E+00  1.20000000E+00  1.50000000E+00  1.20000000E+00
  1.20000000E+00  1.50000000E+00  1.20000000E+00  1.20000000E+00  1.50000000E+00
  1.20000000E+00  1.20000000E+00  1.50000000E+00  1.20000000E+00  1.20000000E+00
  1.50000000E+00  1.20000000E+00  1.20000000E+00  1.50000000E+00  1.20000000E+00
  1.20000000E+00  1.50000000E+00  1.20000000E+00  1.20000000E+00  1.50000000E+00
  1.20000000E+00  1.20000000E+00  1.50000000E+00  1.20000000E+00  1.20000000E+00
  1.50000000E+00  1.20000000E+00  1.20000000E+00  1.50000000E+00  1.20000000E+00
  1.20000000E+00  1.50000000E+00  1.20000000E+00  1.20000000E+00  1.50000000E+00
  1.20000000E+00  1.20000000E+00  1.50000000E+00  1.20000000E+00  1.20000000E+00
  1.50000000E+00  1.20000000E+00  1.20000000E+00  1.50000000E+00  1.20000000E+00
  1.20000000E+00  1.50000000E+00  1.20000000E+00  1.20000000E+00  1.50000000E+00
  1.20000000E+00  1.20000000E+00  1.50000000E+00  1.20000000E+00  1.20000000E+00
  1.50000000E+00  1.20000000E+00  1.20000000E+00  1.50000000E+00  1.20000000E+00
  1.20000000E+00  1.50000000E+00  1.20000000E+00  1.20000000E+00  1.50000000E+00
  1.20000000E+00  1.20000000E+00  1.50000000E+00  1.20000000E+00  1.20000000E+00
  1.50000000E+00  1.20000000E+00  1.20000000E+00  1.50000000E+00  1.20000000E+00
  1.20000000E+00  1.50000000E+00  1.20000000E+00  1.20000000E+00  1.50000000E+00
  1.20000000E+00  1.20000000E+00  1.50000000E+00  1.20000000E+00  1.20000000E+00
  1.50000000E+00  1.20000000E+00  1.20000000E+00  1.50000000E+00  1.20000000E+00
  1.20000000E+00  1.50000000E+00  1.20000000E+00  1.20000000E+00  1.50000000E+00
  1.20000000E+00  1.20000000E+00  1.50000000E+00  1.20000000E+00  1.20000000E+00
  1.50000000E+00  1.20000000E+00  1.20000000E+00  1.50000000E+00  1.20000000E+00
  1.20000000E+00  1.50000000E+00  1.20000000E+00  1.20000000E+00  1.50000000E+00
  1.20000000E+00  1.20000000E+00  1.50000000E+00  1.20000000E+00  1.20000000E+00
  1.50000000E+00  1.20000000E+00  1.20000000E+00  1.50000000E+00  1.20000000E+00
  1.20000000E+00  1.50000000E+00  1.20000000E+00  1.20000000E+00  1.50000000E+00
  1.20000000E+00  1.20000000E+00  1.50000000E+00  1.20000000E+00  1.20000000E+00
  1.50000000E+00  1.20000000E+00  1.20000000E+00  1.50000000E+00  1.20000000E+00
  1.20000000E+00  1.50000000E+00  1.20000000E+00  1.20000000E+00  1.50000000E+00
  1.20000000E+00  1.20000000E+00  1.50000000E+00  1.20000000E+00  1.20000000E+00
  1.50000000E+00  1.20000000E+00  1.20000000E+00  1.50000000E+00  1.20000000E+00
  1.20000000E+00  1.50000000E+00  1.20000000E+00  1.20000000E+00  1.50000000E+00
  1.20000000E+00  1.20000000E+00  1.50000000E+00  1.20000000E+00  1.20000000E+00
  1.50000000E+00  1.20000000E+00  1.20000000E+00  1.50000000E+00  1.20000000E+00
  1.20000000E+00  1.50000000E+00  1.20000000E+00  1.20000000E+00  1.50000000E+00
  1.20000000E+00  1.20000000E+00  1.50000000E+00  1.20000000E+00  1.20000000E+00
  1.50000000E+00  1.20000000E+00  1.20000000E+00  1.50000000E+00  1.20000000E+00
  1.20000000E+00  1.50000000E+00  1.20000000E+00  1.20000000E+00  1.50000000E+00
  1.20000000E+00  1.20000000E+00  1.50000000E+00  1.20000000E+00  1.20000000E+00
  1.50000000E+00  1.20000000E+00  1.20000000E+00  1.50000000E+00  1.20000000E+00
  1.20000000E+00  1.50000000E+00  1.20000000E+00  1.20000000E+00  1.50000000E+00
  1.20000000E+00  1.20000000E+00  1.50000000E+00  1.20000000E+00  1.20000000E+00
  1.50000000E+00  1.20000000E+00  1.20000000E+00  1.50000000E+00  1.20000000E+00
  1.20000000E+00  1.50000000E+00  1.20000000E+00  1.20000000E+00  1.50000000E+00
  1.20000000E+00  1.20000000E+00  1.50000000E+00  1.20000000E+00  1.20000000E+00
  1.50000000E+00  1.20000000E+00  1.20000000E+00  1.50000000E+00  1.20000000E+00
  1.20000000E+00  1.50000000E+00  1.20000000E+00  1.20000000E+00  1.50000000E+00
  1.20000000E+00  1.20000000E+00  1.50000000E+00  1.20000000E+00  1.20000000E+00
  1.50000000E+00  1.20000000E+00  1.20000000E+00  1.50000000E+00  1.20000000E+00
  1.20000000E+00  1.50000000E+00  1.20000000E+00  1.20000000E+00  1.50000000E+00
  1.20000000E+00  1.20000000E+00  1.50000000E+00  1.20000000E+00  1.20000000E+00
  1.50000000E+00  1.20000000E+00  1.20000000E+00  1.50000000E+00  1.20000000E+00
  1.20000000E+00  1.50000000E+00  1.20000000E+00  1.20000000E+00  1.50000000E+00
  1.20000000E+00  1.20000000E+00  1.50000000E+00  1.20000000E+00  1.20000000E+00
  1.50000000E+00  1.20000000E+00  1.20000000E+00  1.50000000E+00  1.20000000E+00
  1.20000000E+00  1.50000000E+00  1.20000000E+00  1.20000000E+00  1.50000000E+00
  1.20000000E+00  1.20000000E+00  1.50000000E+00  1.20000000E+00  1.20000000E+00
  1.50000000E+00  1.20000000E+00  1.20000000E+00  1.50000000E+00  1.20000000E+00
  1.20000000E+00  1.50000000E+00  1.20000000E+00  1.20000000E+00  1.50000000E+00
  1.20000000E+00  1.20000000E+00  1.50000000E+00  1.20000000E+00  1.20000000E+00
  1.50000000E+00  1.20000000E+00  1.20000000E+00  1.50000000E+00  1.20000000E+00
  1.20000000E+00  1.50000000E+00  1.20000000E+00  1.20000000E+00  1.50000000E+00
  1.20000000E+00  1.20000000E+00  1.50000000E+00  1.20000000E+00  1.20000000E+00
  1.50000000E+00  1.20000000E+00  1.20000000E+00  1.50000000E+00  1.20000000E+00
  1.20000000E+00  1.50000000E+00  1.20000000E+00  1.20000000E+00  1.50000000E+00
  1.20000000E+00  1.20000000E+00  1.50000000E+00  1.20000000E+00  1.20000000E+00
  1.50000000E+00  1.20000000E+00  1.20000000E+00  1.50000000E+00  1.20000000E+00
  1.20000000E+00  1.50000000E+00  1.20000000E+00  1.20000000E+00  1.50000000E+00
  1.20000000E+00  1.20000000E+00  1.50000000E+00  1.20000000E+00  1.20000000E+00
  1.50000000E+00  1.20000000E+00  1.20000000E+00  1.50000000E+00  1.20000000E+00
  1.20000000E+00  1.50000000E+00  1.20000000E+00  1.20000000E+00  1.50000000E+00
  1.20000000E+00  1.20000000E+00  1.50000000E+00  1.20000000E+00  1.20000000E+00
  1.50000000E+00  1.20000000E+00  1.20000000E+00  1.50000000E+00  1.20000000E+00
  1.20000000E+00  1.50000000E+00  1.20000000E+00  1.20000000E+00  1.50000000E+00
  1.20000000E+00  1.20000000E+00  1.50000000E+00  1.20000000E+00  1.20000000E+00
  1.50000000E+00  1.20000000E+00  1.20000000E+00  1.50000000E+00  1.20000000E+00
  1.20000000E+00  1.50000000E+00  1.20000000E+00  1.20000000E+00  1.50000000E+00
  1.20000000E+00  1.20000000E+00  1.50000000E+00  1.20000000E+00  1.20000000E+00
  1.50000000E+00  1.20000000E+00  1.20000000E+00  1.50000000E+00  1.20000000E+00
  1.20000000E+00  1.50000000E+00  1.20000000E+00  1.20000000E+00  1.50000000E+00
  1.20000000E+00  1.20000000E+00  1.50000000E+00  1.20000000E+00  1.20000000E+00
  1.50000000E+00  1.20000000E+00  1.20000000E+00  1.50000000E+00  1.20000000E+00
  1.20000000E+00  1.50000000E+00  1.20000000E+00  1.20000000E+00  1.50000000E+00
  1.20000000E+00  1.20000000E+00  1.50000000E+00  1.20000000E+00  1.20000000E+00
  1.50000000E+00  1.20000000E+00  1.20000000E+00  1.50000000E+00  1.20000000E+00
  1.20000000E+00  1.50000000E+00  1.20000000E+00  1.20000000E+00  1.50000000E+00
  1.20000000E+00  1.20000000E+00  1.50000000E+00  1.20000000E+00  1.20000000E+00
  1.50000000E+00  1.20000000E+00  1.20000000E+00  1.50000000E+00  1.20000000E+00
  1.20000000E+00  1.50000000E+00  1.20000000E+00  1.20000000E+00  1.50000000E+00
  1.20000000E+00  1.20000000E+00  1.50000000E+00  1.20000000E+00  1.20000000E+00
  1.50000000E+00  1.20000000E+00  1.20000000E+00  1.50000000E+00  1.20000000E+00
  1.20000000E+00  1.50000000E+00  1.20000000E+00  1.20000000E+00  1.50000000E+00
  1.20000000E+00  1.20000000E+00  1.50000000E+00  1.20000000E+00  1.20000000E+00
  1.50000000E+00  1.20000000E+00  1.20000000E+00  1.50000000E+00  1.20000000E+00
  1.20000000E+00  1.50000000E+00  1.20000000E+00  1.20000000E+00  1.50000000E+00
  1.20000000E+00  1.20000000E+00  1.50000000E+00  1.20000000E+00  1.20000000E+00
  1.50000000E+00  1.20000000E+00  1.20000000E+00  1.50000000E+00  1.20000000E+00
  1.20000000E+00  1.50000000E+00  1.20000000E+00  1.20000000E+00  1.50000000E+00
  1.20000000E+00  1.20000000E+00  1.50000000E+00  1.20000000E+00  1.20000000E+00
  1.50000000E+00  1.20000000E+00  1.20000000E+00  1.50000000E+00  1.20000000E+00
  1.20000000E+00  1.50000000E+00  1.20000000E+00  1.20000000E+00  1.50000000E+00
  1.20000000E+00  1.20000000E+00  1.50000000E+00  1.20000000E+00  1.20000000E+00
  1.50000000E+00  1.20000000E+00  1.20000000E+00  1.50000000E+00  1.20000000E+00
  1.20000000E+00  1.50000000E+00  1.20000000E+00  1.20000000E+00  1.50000000E+00
  1.20000000E+00  1.20000000E+00  1.50000000E+00  1.20000000E+00  1.20000000E+00
  1.50000000E+00  1.20000000E+00  1.20000000E+00  1.50000000E+00  1.20000000E+00
  1.20000000E+00  1.50000000E+00  1.20000000E+00  1.20000000E+00  1.50000000E+00
  1.20000000E+00  1.20000000E+00  1.50000000E+00  1.20000000E+00  1.20000000E+00
  1.50000000E+00  1.20000000E+00  1.20000000E+00  1.50000000E+00  1.20000000E+00
  1.20000000E+00  1.50000000E+00  1.20000000E+00  1.20000000E+00  1.50000000E+00
  1.20000000E+00  1.20000000E+00  1.50000000E+00  1.20000000E+00  1.20000000E+00
  1.50000000E+00  1.20000000E+00  1.20000000E+00  1.50000000E+00  1.20000000E+00
  1.20000000E+00  1.50000000E+00  1.20000000E+00  1.20000000E+00  1.50000000E+00
  1.20000000E+00  1.20000000E+00  1.50000000E+00  1.20000000E+00  1.20000000E+00
  1.50000000E+00  1.20000000E+00  1.20000000E+00  1.50000000E+00  1.20000000E+00
  1.20000000E+00  1.50000000E+00  1.20000000E+00  1.20000000E+00  1.50000000E+00
  1.20000000E+00  1.20000000E+00  1.50000000E+00  1.20000000E+00  1.20000000E+00
  1.50000000E+00  1.20000000E+00  1.20000000E+00  1.50000000E+00  1.20000000E+00
  1.20000000E+00  1.50000000E+00  1.20000000E+00  1.20000000E+00  1.50000000E+00
  1.20000000E+00  1.20000000E+00  1.50000000E+00  1.20000000E+00  1.20000000E+00
  1.50000000E+00  1.20000000E+00  1.20000000E+00  1.50000000E+00  1.20000000E+00
  1.20000000E+00  1.50000000E+00  1.20000000E+00  1.20000000E+00  1.50000000E+00
  1.20000000E+00  1.20000000E+00  1.50000000E+00  1.20000000E+00  1.20000000E+00
  1.50000000E+00  1.20000000E+00  1.20000000E+00  1.50000000E+00  1.20000000E+00
  1.20000000E+00  1.50000000E+00  1.20000000E+00  1.20000000E+00  1.50000000E+00
  1.20000000E+00  1.20000000E+00  1.50000000E+00  1.20000000E+00  1.20000000E+00
  1.50000000E+00  1.20000000E+00  1.20000000E+00  1.50000000E+00  1.20000000E+00
  1.20000000E+00  1.50000000E+00  1.20000000E+00  1.20000000E+00  1.50000000E+00
  1.20000000E+00  1.20000000E+00  1.50000000E+00  1.20000000E+00  1.20000000E+00
  1.50000000E+00  1.20000000E+00  1.20000000E+00  1.50000000E+00  1.20000000E+00
  1.20000000E+00  1.50000000E+00  1.20000000E+00  1.20000000E+00  1.50000000E+00
  1.20000000E+00  1.20000000E+00  1.50000000E+00  1.20000000E+00  1.20000000E+00
  1.50000000E+00  1.20000000E+00  1.20000000E+00  1.50000000E+00  1.20000000E+00
  1.20000000E+00  1.50000000E+00  1.20000000E+00  1.20000000E+00  1.50000000E+00
  1.20000000E+00  1.20000000E+00  1.50000000E+00  1.20000000E+00  1.20000000E+00
  1.50000000E+00  1.20000000E+00  1.20000000E+00  1.50000000E+00  1.20000000E+00
  1.20000000E+00  1.50000000E+00  1.20000000E+00  1.20000000E+00  1.50000000E+00
  1.20000000E+00  1.20000000E+00  1.50000000E+00  1.20000000E+00  1.20000000E+00
  1.50000000E+00  1.20000000E+00  1.20000000E+00  1.50000000E+00  1.20000000E+00
  1.20000000E+00  1.50000000E+00  1.20000000E+00  1.20000000E+00  1.50000000E+00
  1.20000000E+00  1.20000000E+00  1.50000000E+00  1.20000000E+00  1.20000000E+00
  1.50000000E+00  1.20000000E+00  1.20000000E+00  1.50000000E+00  1.20000000E+00
  1.20000000E+00  1.50000000E+00  1.20000000E+00  1.20000000E+00  1.50000000E+00
  1.20000000E+00  1.20000000E+00  1.50000000E+00  1.20000000E+00  1.20000000E+00
  1.50000000E+00  1.20000000E+00  1.20000000E+00  1.50000000E+00  1.20000000E+00
  1.20000000E+00  1.50000000E+00  1.20000000E+00  1.20000000E+00  1.50000000E+00
  1.20000000E+00  1.20000000E+00  1.50000000E+00  1.20000000E+00  1.20000000E+00
  1.50000000E+00  1.20000000E+00  1.20000000E+00  1.50000000E+00  1.20000000E+00
  1.20000000E+00  1.50000000E+00  1.20000000E+00  1.20000000E+00  1.50000000E+00
  1.20000000E+00  1.20000000E+00  1.50000000E+00  1.20000000E+00  1.20000000E+00
  1.50000000E+00  1.20000000E+00  1.20000000E+00  1.50000000E+00  1.20000000E+00
  1.20000000E+00  1.50000000E+00  1.20000000E+00  1.20000000E+00  1.50000000E+00
  1.20000000E+00  1.20000000E+00  1.50000000E+00  1.20000000E+00  1.20000000E+00
  1.50000000E+00  1.20000000E+00  1.20000000E+00  1.50000000E+00  1.20000000E+00
  1.20000000E+00  1.50000000E+00  1.20000000E+00  1.20000000E+00  1.50000000E+00
  1.20000000E+00  1.20000000E+00  1.50000000E+00  1.20000000E+00  1.20000000E+00
  1.50000000E+00  1.20000000E+00  1.20000000E+00  1.50000000E+00  1.20000000E+00
  1.20000000E+00  1.50000000E+00  1.20000000E+00  1.20000000E+00  1.50000000E+00
  1.20000000E+00  1.20000000E+00  1.50000000E+00  1.20000000E+00  1.20000000E+00
  1.50000000E+00  1.20000000E+00  1.20000000E+00  1.50000000E+00  1.20000000E+00
  1.20000000E+00  1.50000000E+00  1.20000000E+00  1.20000000E+00  1.50000000E+00
  1.20000000E+00  1.20000000E+00  1.50000000E+00  1.20000000E+00  1.20000000E+00
  1.50000000E+00  1.20000000E+00  1.20000000E+00  1.50000000E+00  1.20000000E+00
  1.20000000E+00  1.50000000E+00  1.20000000E+00  1.20000000E+00  1.50000000E+00
  1.20000000E+00  1.20000000E+00  1.50000000E+00  1.20000000E+00  1.20000000E+00
  1.50000000E+00  1.20000000E+00  1.20000000E+00  1.50000000E+00  1.20000000E+00
  1.20000000E+00  1.50000000E+00  1.20000000E+00  1.20000000E+00  1.50000000E+00
  1.20000000E+00  1.20000000E+00  1.50000000E+00  1.20000000E+00  1.20000000E+00
  1.50000000E+00  1.20000000E+00  1.20000000E+00  1.50000000E+00  1.20000000E+00
  1.20000000E+00  1.50000000E+00  1.20000000E+00  1.20000000E+00  1.50000000E+00
  1.20000000E+00  1.20000000E+00  1.50000000E+00  1.20000000E+00  1.20000000E+00
  1.50000000E+00  1.20000000E+00  1.20000000E+00  1.50000000E+00  1.20000000E+00
  1.20000000E+00  1.50000000E+00  1.20000000E+00  1.20000000E+00  1.50000000E+00
  1.20000000E+00  1.20000000E+00  1.50000000E+00  1.20000000E+00  1.20000000E+00
  1.50000000E+00  1.20000000E+00  1.20000000E+00  1.50000000E+00  1.20000000E+00
  1.20000000E+00  1.50000000E+00  1.20000000E+00  1.20000000E+00  1.50000000E+00
  1.20000000E+00  1.20000000E+00  1.50000000E+00  1.20000000E+00  1.20000000E+00
  1.50000000E+00  1.20000000E+00  1.20000000E+00  1.50000000E+00  1.20000000E+00
  1.20000000E+00  1.50000000E+00  1.20000000E+00  1.20000000E+00  1.50000000E+00
  1.20000000E+00  1.20000000E+00  1.50000000E+00  1.20000000E+00  1.20000000E+00
  1.50000000E+00  1.20000000E+00  1.20000000E+00  1.50000000E+00  1.20000000E+00
  1.20000000E+00  1.50000000E+00  1.20000000E+00  1.20000000E+00  1.50000000E+00
  1.20000000E+00  1.20000000E+00  1.50000000E+00  1.20000000E+00  1.20000000E+00
  1.50000000E+00  1.20000000E+00  1.20000000E+00  1.50000000E+00  1.20000000E+00
  1.20000000E+00  1.50000000E+00  1.20000000E+00  1.20000000E+00  1.50000000E+00
  1.20000000E+00  1.20000000E+00  1.50000000E+00  1.20000000E+00  1.20000000E+00
  1.50000000E+00  1.20000000E+00  1.20000000E+00  1.50000000E+00  1.20000000E+00
  1.20000000E+00  1.50000000E+00  1.20000000E+00  1.20000000E+00  1.50000000E+00
  1.20000000E+00  1.20000000E+00  1.50000000E+00  1.20000000E+00  1.20000000E+00
  1.50000000E+00  1.20000000E+00  1.20000000E+00  1.50000000E+00  1.20000000E+00
  1.20000000E+00  1.50000000E+00  1.20000000E+00  1.20000000E+00  1.50000000E+00
  1.20000000E+00  1.20000000E+00  1.50000000E+00  1.20000000E+00  1.20000000E+00
  1.50000000E+00  1.20000000E+00  1.20000000E+00  1.50000000E+00  1.20000000E+00
  1.20000000E+00  1.50000000E+00  1.20000000E+00  1.20000000E+00  1.50000000E+00
  1.20000000E+00  1.20000000E+00  1.50000000E+00  1.20000000E+00  1.20000000E+00
  1.50000000E+00  1.20000000E+00  1.20000000E+00  1.50000000E+00  1.20000000E+00
  1.20000000E+00  1.50000000E+00  1.20000000E+00  1.20000000E+00  1.50000000E+00
  1.20000000E+00  1.20000000E+00  1.50000000E+00  1.20000000E+00  1.20000000E+00
  1.50000000E+00  1.20000000E+00  1.20000000E+00  1.50000000E+00  1.20000000E+00
  1.20000000E+00  1.50000000E+00  1.20000000E+00  1.20000000E+00  1.50000000E+00
  1.20000000E+00  1.20000000E+00  1.50000000E+00  1.20000000E+00  1.20000000E+00
  1.50000000E+00  1.20000000E+00  1.20000000E+00  1.50000000E+00  1.20000000E+00
  1.20000000E+00  1.50000000E+00  1.20000000E+00  1.20000000E+00  1.50000000E+00
  1.20000000E+00  1.20000000E+00  1.50000000E+00  1.20000000E+00  1.20000000E+00
  1.50000000E+00  1.20000000E+00  1.20000000E+00  1.50000000E+00  1.20000000E+00
  1.20000000E+00  1.50000000E+00  1.20000000E+00  1.20000000E+00  1.50000000E+00
  1.20000000E+00  1.20000000E+00  1.50000000E+00  1.20000000E+00  1.20000000E+00
  1.50000000E+00  1.20000000E+00  1.20000000E+00  1.50000000E+00  1.20000000E+00
  1.20000000E+00  1.50000000E+00  1.20000000E+00  1.20000000E+00  1.50000000E+00
  1.20000000E+00  1.20000000E+00  1.50000000E+00  1.20000000E+00  1.20000000E+00
  1.50000000E+00  1.20000000E+00  1.20000000E+00  1.50000000E+00  1.20000000E+00
  1.20000000E+00  1.50000000E+00  1.20000000E+00  1.20000000E+00  1.50000000E+00
  1.20000000E+00  1.20000000E+00  1.50000000E+00  1.20000000E+00  1.20000000E+00
  1.50000000E+00  1.20000000E+00  1.20000000E+00  1.50000000E+00  1.20000000E+00
  1.20000000E+00  1.50000000E+00  1.20000000E+00  1.20000000E+00  1.50000000E+00
  1.20000000E+00  1.20000000E+00  1.50000000E+00  1.20000000E+00  1.20000000E+00
  1.50000000E+00  1.20000000E+00  1.20000000E+00  1.50000000E+00  1.20000000E+00
  1.20000000E+00  1.50000000E+00  1.20000000E+00  1.20000000E+00  1.50000000E+00
  1.20000000E+00  1.20000000E+00  1.50000000E+00  1.20000000E+00  1.20000000E+00
  1.50000000E+00  1.20000000E+00  1.20000000E+00  1.50000000E+00  1.20000000E+00
  1.20000000E+00  1.50000000E+00  1.20000000E+00  1.20000000E+00  1.50000000E+00
  1.20000000E+00  1.20000000E+00  1.50000000E+00  1.20000000E+00  1.20000000E+00
  1.50000000E+00  1.20000000E+00  1.20000000E+00  1.50000000E+00  1.20000000E+00
  1.20000000E+00  1.50000000E+00  1.20000000E+00  1.20000000E+00  1.50000000E+00
  1.20000000E+00  1.20000000E+00  1.50000000E+00  1.20000000E+00  1.20000000E+00
  1.50000000E+00  1.20000000E+00  1.20000000E+00  1.50000000E+00  1.20000000E+00
  1.20000000E+00  1.50000000E+00  1.20000000E+00  1.20000000E+00  1.50000000E+00
  1.20000000E+00  1.20000000E+00  1.50000000E+00  1.20000000E+00  1.20000000E+00
  1.50000000E+00  1.20000000E+00  1.20000000E+00  1.50000000E+00  1.20000000E+00
  1.20000000E+00  1.50000000E+00  1.20000000E+00  1.20000000E+00  1.50000000E+00
  1.20000000E+00  1.20000000E+00  1.50000000E+00  1.20000000E+00  1.20000000E+00
  1.50000000E+00  1.20000000E+00  1.20000000E+00  1.50000000E+00  1.20000000E+00
  1.20000000E+00  1.50000000E+00  1.20000000E+00  1.20000000E+00  1.50000000E+00
  1.20000000E+00  1.20000000E+00  1.50000000E+00  1.20000000E+00  1.20000000E+00
  1.50000000E+00  1.20000000E+00  1.20000000E+00  1.50000000E+00  1.20000000E+00
  1.20000000E+00  1.50000000E+00  1.20000000E+00  1.20000000E+00  1.50000000E+00
  1.20000000E+00  1.20000000E+00  1.50000000E+00  1.20000000E+00  1.20000000E+00
  1.50000000E+00  1.20000000E+00  1.20000000E+00  1.50000000E+00  1.20000000E+00
  1.20000000E+00  1.50000000E+00  1.20000000E+00  1.20000000E+00  1.50000000E+00
  1.20000000E+00  1.20000000E+00  1.50000000E+00  1.20000000E+00  1.20000000E+00
  1.50000000E+00  1.20000000E+00  1.20000000E+00  1.50000000E+00  1.20000000E+00
  1.20000000E+00  1.50000000E+00  1.20000000E+00  1.20000000E+00  1.50000000E+00
  1.20000000E+00  1.20000000E+00  1.50000000E+00  1.20000000E+00  1.20000000E+00
  1.50000000E+00  1.20000000E+00  1.20000000E+00  1.50000000E+00  1.20000000E+00
  1.20000000E+00  1.50000000E+00  1.20000000E+00  1.20000000E+00  1.50000000E+00
  1.20000000E+00  1.20000000E+00  1.50000000E+00  1.20000000E+00  1.20000000E+00
  1.50000000E+00  1.20000000E+00  1.20000000E+00  1.50000000E+00  1.20000000E+00
  1.20000000E+00  1.50000000E+00  1.20000000E+00  1.20000000E+00  1.50000000E+00
  1.20000000E+00  1.20000000E+00  1.50000000E+00  1.20000000E+00  1.20000000E+00
  1.50000000E+00  1.20000000E+00  1.20000000E+00  1.50000000E+00  1.20000000E+00
  1.20000000E+00  1.50000000E+00  1.20000000E+00  1.20000000E+00  1.50000000E+00
  1.20000000E+00  1.20000000E+00  1.50000000E+00  1.20000000E+00  1.20000000E+00
  1.50000000E+00  1.20000000E+00  1.20000000E+00  1.50000000E+00  1.20000000E+00
  1.20000000E+00  1.50000000E+00  1.20000000E+00  1.20000000E+00  1.50000000E+00
  1.20000000E+00  1.20000000E+00  1.50000000E+00  1.20000000E+00  1.20000000E+00
  1.50000000E+00  1.20000000E+00  1.20000000E+00  1.50000000E+00  1.20000000E+00
  1.20000000E+00  1.50000000E+00  1.20000000E+00  1.20000000E+00  1.50000000E+00
  1.20000000E+00  1.20000000E+00  1.50000000E+00  1.20000000E+00  1.20000000E+00
  1.50000000E+00  1.20000000E+00  1.20000000E+00  1.50000000E+00  1.20000000E+00
  1.20000000E+00  1.50000000E+00  1.20000000E+00  1.20000000E+00  1.50000000E+00
  1.20000000E+00  1.20000000E+00  1.50000000E+00  1.20000000E+00  1.20000000E+00
  1.50000000E+00  1.20000000E+00  1.20000000E+00  1.50000000E+00  1.20000000E+00
  1.20000000E+00  1.50000000E+00  1.20000000E+00  1.20000000E+00  1.50000000E+00
  1.20000000E+00  1.20000000E+00  1.50000000E+00  1.20000000E+00  1.20000000E+00
  1.50000000E+00  1.20000000E+00  1.20000000E+00  1.50000000E+00  1.20000000E+00
  1.20000000E+00  1.50000000E+00  1.20000000E+00  1.20000000E+00  1.50000000E+00
  1.20000000E+00  1.20000000E+00  1.50000000E+00  1.20000000E+00  1.20000000E+00
  1.50000000E+00  1.20000000E+00  1.20000000E+00  1.50000000E+00  1.20000000E+00
  1.20000000E+00  1.50000000E+00  1.20000000E+00  1.20000000E+00  1.50000000E+00
  1.20000000E+00  1.20000000E+00  1.50000000E+00  1.20000000E+00  1.20000000E+00
  1.50000000E+00  1.20000000E+00  1.20000000E+00  1.50000000E+00  1.20000000E+00
  1.20000000E+00  1.50000000E+00  1.20000000E+00  1.20000000E+00  1.50000000E+00
  1.20000000E+00  1.20000000E+00  1.50000000E+00  1.20000000E+00  1.20000000E+00
  1.50000000E+00  1.20000000E+00  1.20000000E+00  1.50000000E+00  1.20000000E+00
  1.20000000E+00  1.50000000E+00  1.20000000E+00  1.20000000E+00  1.50000000E+00
  1.20000000E+00  1.20000000E+00  1.50000000E+00  1.20000000E+00  1.20000000E+00
  1.50000000E+00  1.20000000E+00  1.20000000E+00  1.50000000E+00  1.20000000E+00
  1.20000000E+00  1.50000000E+00  1.20000000E+00  1.20000000E+00  1.50000000E+00
  1.20000000E+00  1.20000000E+00  1.50000000E+00  1.20000000E+00  1.20000000E+00
  1.50000000E+00  1.20000000E+00  1.20000000E+00  1.50000000E+00  1.20000000E+00
  1.20000000E+00  1.50000000E+00  1.20000000E+00  1.20000000E+00  1.50000000E+00
  1.20000000E+00  1.20000000E+00  1.50000000E+00  1.20000000E+00  1.20000000E+00
  1.50000000E+00  1.20000000E+00  1.20000000E+00  1.50000000E+00  1.20000000E+00
  1.20000000E+00  1.50000000E+00  1.20000000E+00  1.20000000E+00  1.50000000E+00
  1.20000000E+00  1.20000000E+00  1.50000000E+00  1.20000000E+00  1.20000000E+00
  1.50000000E+00  1.20000000E+00  1.20000000E+00  1.50000000E+00  1.20000000E+00
  1.20000000E+00  1.50000000E+00  1.20000000E+00  1.20000000E+00  1.50000000E+00
  1.20000000E+00  1.20000000E+00  1.50000000E+00  1.20000000E+00  1.20000000E+00
  1.50000000E+00  1.20000000E+00  1.20000000E+00  1.50000000E+00  1.20000000E+00
  1.20000000E+00  1.50000000E+00  1.20000000E+00  1.20000000E+00  1.50000000E+00
  1.20000000E+00  1.20000000E+00  1.50000000E+00  1.20000000E+00  1.20000000E+00
  1.50000000E+00  1.20000000E+00  1.20000000E+00  1.50000000E+00  1.20000000E+00
  1.20000000E+00  1.50000000E+00  1.20000000E+00  1.20000000E+00  1.50000000E+00
  1.20000000E+00  1.20000000E+00  1.50000000E+00  1.20000000E+00  1.20000000E+00
  1.50000000E+00  1.20000000E+00  1.20000000E+00  1.50000000E+00  1.20000000E+00
  1.20000000E+00  1.50000000E+00  1.20000000E+00  1.20000000E+00  1.50000000E+00
  1.20000000E+00  1.20000000E+00  1.50000000E+00  1.20000000E+00  1.20000000E+00
  1.50000000E+00  1.20000000E+00  1.20000000E+00  1.50000000E+00  1.20000000E+00
  1.20000000E+00  1.50000000E+00  1.20000000E+00  1.20000000E+00  1.50000000E+00
  1.20000000E+00  1.20000000E+00  1.50000000E+00  1.20000000E+00  1.20000000E+00
  1.50000000E+00  1.20000000E+00  1.20000000E+00  1.50000000E+00  1.20000000E+00
  1.20000000E+00  1.50000000E+00  1.20000000E+00  1.20000000E+00  1.50000000E+00
  1.20000000E+00  1.20000000E+00  1.50000000E+00  1.20000000E+00  1.20000000E+00
  1.50000000E+00  1.20000000E+00  1.20000000E+00  1.50000000E+00  1.20000000E+00
  1.20000000E+00  1.50000000E+00  1.20000000E+00  1.20000000E+00  1.50000000E+00
  1.20000000E+00  1.20000000E+00  1.50000000E+00  1.20000000E+00  1.20000000E+00
  1.50000000E+00  1.20000000E+00  1.20000000E+00  1.50000000E+00  1.20000000E+00
  1.20000000E+00  1.50000000E+00  1.20000000E+00  1.20000000E+00  1.50000000E+00
  1.20000000E+00  1.20000000E+00  1.50000000E+00  1.20000000E+00  1.20000000E+00
  1.50000000E+00  1.20000000E+00  1.20000000E+00  1.50000000E+00  1.20000000E+00
  1.20000000E+00  1.50000000E+00  1.20000000E+00  1.20000000E+00  1.50000000E+00
  1.20000000E+00  1.20000000E+00  1.50000000E+00  1.20000000E+00  1.20000000E+00
  1.50000000E+00  1.20000000E+00  1.20000000E+00  1.50000000E+00  1.20000000E+00
  1.20000000E+00  1.50000000E+00  1.20000000E+00  1.20000000E+00  1.50000000E+00
  1.20000000E+00  1.20000000E+00  1.50000000E+00  1.20000000E+00  1.20000000E+00
  1.50000000E+00  1.20000000E+00  1.20000000E+00  1.50000000E+00  1.20000000E+00
  1.20000000E+00  1.50000000E+00  1.20000000E+00  1.20000000E+00  1.50000000E+00
  1.20000000E+00  1.20000000E+00  1.50000000E+00  1.20000000E+00  1.20000000E+00
  1.50000000E+00  1.20000000E+00  1.20000000E+00  1.50000000E+00  1.20000000E+00
  1.20000000E+00  1.50000000E+00  1.20000000E+00  1.20000000E+00  1.50000000E+00
  1.20000000E+00  1.20000000E+00  1.50000000E+00  1.20000000E+00  1.20000000E+00
  1.50000000E+00  1.20000000E+00  1.20000000E+00  1.50000000E+00  1.20000000E+00
  1.20000000E+00  1.50000000E+00  1.20000000E+00  1.20000000E+00  1.50000000E+00
  1.20000000E+00  1.20000000E+00  1.50000000E+00  1.20000000E+00  1.20000000E+00
  1.50000000E+00  1.20000000E+00  1.20000000E+00  1.50000000E+00  1.20000000E+00
  1.20000000E+00  1.50000000E+00  1.20000000E+00  1.20000000E+00  1.50000000E+00
  1.20000000E+00  1.20000000E+00  1.50000000E+00  1.20000000E+00  1.20000000E+00
  1.50000000E+00  1.20000000E+00  1.20000000E+00  1.50000000E+00  1.20000000E+00
  1.20000000E+00  1.50000000E+00  1.20000000E+00  1.20000000E+00  1.50000000E+00
  1.20000000E+00  1.20000000E+00  1.50000000E+00  1.20000000E+00  1.20000000E+00
  1.50000000E+00  1.20000000E+00  1.20000000E+00  1.50000000E+00  1.20000000E+00
  1.20000000E+00  1.50000000E+00  1.20000000E+00  1.20000000E+00  1.50000000E+00
  1.20000000E+00  1.20000000E+00  1.50000000E+00  1.20000000E+00  1.20000000E+00
  1.50000000E+00  1.20000000E+00  1.20000000E+00  1.50000000E+00  1.20000000E+00
  1.20000000E+00  1.50000000E+00  1.20000000E+00  1.20000000E+00  1.50000000E+00
  1.20000000E+00  1.20000000E+00  1.50000000E+00  1.20000000E+00  1.20000000E+00
  1.50000000E+00  1.20000000E+00  1.20000000E+00  1.50000000E+00  1.20000000E+00
  1.20000000E+00  1.50000000E+00  1.20000000E+00  1.20000000E+00  1.50000000E+00
  1.20000000E+00  1.20000000E+00  1.50000000E+00  1.20000000E+00  1.20000000E+00
  1.50000000E+00  1.20000000E+00  1.20000000E+00  1.50000000E+00  1.20000000E+00
  1.20000000E+00  1.50000000E+00  1.20000000E+00  1.20000000E+00  1.50000000E+00
  1.20000000E+00  1.20000000E+00  1.50000000E+00  1.20000000E+00  1.20000000E+00
  1.50000000E+00  1.20000000E+00  1.20000000E+00  1.50000000E+00  1.20000000E+00
  1.20000000E+00  1.50000000E+00  1.20000000E+00  1.20000000E+00  1.50000000E+00
  1.20000000E+00  1.20000000E+00  1.50000000E+00  1.20000000E+00  1.20000000E+00
  1.50000000E+00  1.20000000E+00  1.20000000E+00  1.50000000E+00  1.20000000E+00
  1.20000000E+00  1.50000000E+00  1.20000000E+00  1.20000000E+00  1.50000000E+00
  1.20000000E+00  1.20000000E+00  1.50000000E+00  1.20000000E+00  1.20000000E+00
  1.50000000E+00  1.20000000E+00  1.20000000E+00  1.50000000E+00  1.20000000E+00
  1.20000000E+00  1.50000000E+00  1.20000000E+00  1.20000000E+00  1.50000000E+00
  1.20000000E+00  1.20000000E+00  1.50000000E+00  1.20000000E+00  1.20000000E+00
  1.50000000E+00  1.20000000E+00  1.20000000E+00  1.50000000E+00  1.20000000E+00
  1.20000000E+00  1.50000000E+00  1.20000000E+00  1.20000000E+00  1.50000000E+00
  1.20000000E+00  1.20000000E+00  1.50000000E+00  1.20000000E+00  1.20000000E+00
  1.50000000E+00  1.20000000E+00  1.20000000E+00  1.50000000E+00  1.20000000E+00
  1.20000000E+00  1.50000000E+00  1.20000000E+00  1.20000000E+00  1.50000000E+00
  1.20000000E+00  1.20000000E+00  1.50000000E+00  1.20000000E+00  1.20000000E+00
  1.50000000E+00  1.20000000E+00  1.20000000E+00  1.50000000E+00  1.20000000E+00
  1.20000000E+00  1.50000000E+00  1.20000000E+00  1.20000000E+00  1.50000000E+00
  1.20000000E+00  1.20000000E+00  1.50000000E+00  1.20000000E+00  1.20000000E+00
  1.50000000E+00  1.20000000E+00  1.20000000E+00  1.50000000E+00  1.20000000E+00
  1.20000000E+00  1.50000000E+00  1.20000000E+00  1.20000000E+00  1.50000000E+00
  1.20000000E+00  1.20000000E+00  1.50000000E+00  1.20000000E+00  1.20000000E+00
  1.50000000E+00  1.20000000E+00  1.20000000E+00  1.50000000E+00  1.20000000E+00
  1.20000000E+00  1.50000000E+00  1.20000000E+00  1.20000000E+00  1.50000000E+00
  1.20000000E+00  1.20000000E+00  1.50000000E+00  1.20000000E+00  1.20000000E+00
  1.50000000E+00  1.20000000E+00  1.20000000E+00  1.50000000E+00  1.20000000E+00
  1.20000000E+00  1.50000000E+00  1.20000000E+00  1.20000000E+00  1.50000000E+00
  1.20000000E+00  1.20000000E+00  1.50000000E+00  1.20000000E+00  1.20000000E+00
  1.50000000E+00  1.20000000E+00  1.20000000E+00  1.50000000E+00  1.20000000E+00
  1.20000000E+00  1.50000000E+00  1.20000000E+00  1.20000000E+00  1.50000000E+00
  1.20000000E+00  1.20000000E+00  1.50000000E+00  1.20000000E+00  1.20000000E+00
  1.50000000E+00  1.20000000E+00  1.20000000E+00  1.50000000E+00  1.20000000E+00
  1.20000000E+00  1.50000000E+00  1.20000000E+00  1.20000000E+00  1.50000000E+00
  1.20000000E+00  1.20000000E+00  1.50000000E+00  1.20000000E+00  1.20000000E+00
  1.50000000E+00  1.20000000E+00  1.20000000E+00  1.50000000E+00  1.20000000E+00
  1.20000000E+00  1.50000000E+00  1.20000000E+00  1.20000000E+00  1.50000000E+00
  1.20000000E+00  1.20000000E+00  1.50000000E+00  1.20000000E+00  1.20000000E+00
  1.50000000E+00  1.20000000E+00  1.20000000E+00  1.50000000E+00  1.20000000E+00
  1.20000000E+00  1.50000000E+00  1.20000000E+00  1.20000000E+00  1.50000000E+00
  1.20000000E+00  1.20000000E+00  1.50000000E+00  1.20000000E+00  1.20000000E+00
  1.50000000E+00  1.20000000E+00  1.20000000E+00  1.50000000E+00  1.20000000E+00
  1.20000000E+00  1.50000000E+00  1.20000000E+00  1.20000000E+00  1.50000000E+00
  1.20000000E+00  1.20000000E+00  1.50000000E+00  1.20000000E+00  1.20000000E+00
  1.50000000E+00  1.20000000E+00  1.20000000E+00  1.50000000E+00  1.20000000E+00
  1.20000000E+00  1.50000000E+00  1.20000000E+00  1.20000000E+00  1.50000000E+00
  1.20000000E+00  1.20000000E+00  1.50000000E+00  1.20000000E+00  1.20000000E+00
  1.50000000E+00  1.20000000E+00  1.20000000E+00  1.50000000E+00  1.20000000E+00
  1.20000000E+00  1.50000000E+00  1.20000000E+00  1.20000000E+00  1.50000000E+00
  1.20000000E+00  1.20000000E+00  1.50000000E+00  1.20000000E+00  1.20000000E+00
  1.50000000E+00  1.20000000E+00  1.20000000E+00  1.50000000E+00  1.20000000E+00
  1.20000000E+00  1.50000000E+00  1.20000000E+00  1.20000000E+00  1.50000000E+00
  1.20000000E+00  1.20000000E+00  1.50000000E+00  1.20000000E+00  1.20000000E+00
  1.50000000E+00  1.20000000E+00  1.20000000E+00  1.50000000E+00  1.20000000E+00
  1.20000000E+00  1.50000000E+00  1.20000000E+00  1.20000000E+00  1.50000000E+00
  1.20000000E+00  1.20000000E+00  1.50000000E+00  1.20000000E+00  1.20000000E+00
  1.50000000E+00  1.20000000E+00  1.20000000E+00  1.50000000E+00  1.20000000E+00
  1.20000000E+00  1.50000000E+00  1.20000000E+00  1.20000000E+00  1.50000000E+00
  1.20000000E+00  1.20000000E+00  1.50000000E+00  1.20000000E+00  1.20000000E+00
  1.50000000E+00  1.20000000E+00  1.20000000E+00  1.50000000E+00  1.20000000E+00
  1.20000000E+00  1.50000000E+00  1.20000000E+00  1.20000000E+00  1.50000000E+00
  1.20000000E+00  1.20000000E+00  1.50000000E+00  1.20000000E+00  1.20000000E+00
  1.50000000E+00  1.20000000E+00  1.20000000E+00  1.50000000E+00  1.20000000E+00
  1.20000000E+00  1.50000000E+00  1.20000000E+00  1.20000000E+00  1.50000000E+00
  1.20000000E+00  1.20000000E+00  1.50000000E+00  1.20000000E+00  1.20000000E+00
  1.50000000E+00  1.20000000E+00  1.20000000E+00  1.50000000E+00  1.20000000E+00
  1.20000000E+00  1.50000000E+00  1.20000000E+00  1.20000000E+00  1.50000000E+00
  1.20000000E+00  1.20000000E+00  1.50000000E+00  1.20000000E+00  1.20000000E+00
  1.50000000E+00  1.20000000E+00  1.20000000E+00  1.50000000E+00  1.20000000E+00
  1.20000000E+00  1.50000000E+00  1.20000000E+00  1.20000000E+00  1.50000000E+00
  1.20000000E+00  1.20000000E+00  1.50000000E+00  1.20000000E+00  1.20000000E+00
  1.50000000E+00  1.20000000E+00  1.20000000E+00  1.50000000E+00  1.20000000E+00
  1.20000000E+00  1.50000000E+00  1.20000000E+00  1.20000000E+00  1.50000000E+00
  1.20000000E+00  1.20000000E+00  1.50000000E+00  1.20000000E+00  1.20000000E+00
  1.50000000E+00  1.20000000E+00  1.20000000E+00  1.50000000E+00  1.20000000E+00
  1.20000000E+00  1.50000000E+00  1.20000000E+00  1.20000000E+00  1.50000000E+00
  1.20000000E+00  1.20000000E+00  1.50000000E+00  1.20000000E+00  1.20000000E+00
  1.50000000E+00  1.20000000E+00  1.20000000E+00  1.50000000E+00  1.20000000E+00
  1.20000000E+00  1.50000000E+00  1.20000000E+00  1.20000000E+00  1.50000000E+00
  1.20000000E+00  1.20000000E+00  1.50000000E+00  1.20000000E+00  1.20000000E+00
  1.50000000E+00  1.20000000E+00  1.20000000E+00  1.50000000E+00  1.20000000E+00
  1.20000000E+00  1.50000000E+00  1.20000000E+00  1.20000000E+00  1.50000000E+00
  1.20000000E+00  1.20000000E+00  1.50000000E+00  1.20000000E+00  1.20000000E+00
  1.50000000E+00  1.20000000E+00  1.20000000E+00  1.50000000E+00  1.20000000E+00
  1.20000000E+00  1.50000000E+00  1.20000000E+00  1.20000000E+00  1.50000000E+00
  1.20000000E+00  1.20000000E+00  1.50000000E+00  1.20000000E+00  1.20000000E+00
  1.50000000E+00  1.20000000E+00  1.20000000E+00  1.50000000E+00  1.20000000E+00
  1.20000000E+00  1.50000000E+00  1.20000000E+00  1.20000000E+00  1.50000000E+00
  1.20000000E+00  1.20000000E+00  1.50000000E+00  1.20000000E+00  1.20000000E+00
  1.50000000E+00  1.20000000E+00  1.20000000E+00  1.50000000E+00  1.20000000E+00
  1.20000000E+00  1.50000000E+00  1.20000000E+00  1.20000000E+00  1.50000000E+00
  1.20000000E+00  1.20000000E+00  1.50000000E+00  1.20000000E+00  1.20000000E+00
  1.50000000E+00  1.20000000E+00  1.20000000E+00  1.50000000E+00  1.20000000E+00
  1.20000000E+00  1.50000000E+00  1.20000000E+00  1.20000000E+00  1.50000000E+00
  1.20000000E+00  1.20000000E+00  1.50000000E+00  1.20000000E+00  1.20000000E+00
  1.50000000E+00  1.20000000E+00  1.20000000E+00  1.50000000E+00  1.20000000E+00
  1.20000000E+00  1.50000000E+00  1.20000000E+00  1.20000000E+00  1.50000000E+00
  1.20000000E+00  1.20000000E+00  1.50000000E+00  1.20000000E+00  1.20000000E+00
  1.50000000E+00  1.20000000E+00  1.20000000E+00  1.50000000E+00  1.20000000E+00
  1.20000000E+00  1.50000000E+00  1.20000000E+00  1.20000000E+00  1.50000000E+00
  1.20000000E+00  1.20000000E+00  1.50000000E+00  1.20000000E+00  1.20000000E+00
  1.50000000E+00  1.20000000E+00  1.20000000E+00  1.50000000E+00  1.20000000E+00
  1.20000000E+00  1.50000000E+00  1.20000000E+00  1.20000000E+00  1.50000000E+00
  1.20000000E+00  1.20000000E+00  1.50000000E+00  1.20000000E+00  1.20000000E+00
  1.50000000E+00  1.20000000E+00  1.20000000E+00  1.50000000E+00  1.20000000E+00
  1.20000000E+00  1.50000000E+00  1.20000000E+00  1.20000000E+00  1.50000000E+00
  1.20000000E+00  1.20000000E+00  1.50000000E+00  1.20000000E+00  1.20000000E+00
  1.50000000E+00  1.20000000E+00  1.20000000E+00  1.50000000E+00  1.20000000E+00
  1.20000000E+00  1.50000000E+00  1.20000000E+00  1.20000000E+00  1.50000000E+00
  1.20000000E+00  1.20000000E+00  1.50000000E+00  1.20000000E+00  1.20000000E+00
  1.50000000E+00  1.20000000E+00  1.20000000E+00  1.50000000E+00  1.20000000E+00
  1.20000000E+00  1.50000000E+00  1.20000000E+00  1.20000000E+00  1.50000000E+00
  1.20000000E+00  1.20000000E+00  1.50000000E+00  1.20000000E+00  1.20000000E+00
  1.50000000E+00  1.20000000E+00  1.20000000E+00  1.50000000E+00  1.20000000E+00
  1.20000000E+00  1.50000000E+00  1.20000000E+00  1.20000000E+00  1.50000000E+00
  1.20000000E+00  1.20000000E+00  1.50000000E+00  1.20000000E+00  1.20000000E+00
  1.50000000E+00  1.20000000E+00  1.20000000E+00  1.50000000E+00  1.20000000E+00
  1.20000000E+00  1.50000000E+00  1.20000000E+00  1.20000000E+00  1.50000000E+00
  1.20000000E+00  1.20000000E+00  1.50000000E+00  1.20000000E+00  1.20000000E+00
  1.50000000E+00  1.20000000E+00  1.20000000E+00  1.50000000E+00  1.20000000E+00
  1.20000000E+00  1.50000000E+00  1.20000000E+00  1.20000000E+00  1.50000000E+00
  1.20000000E+00  1.20000000E+00  1.50000000E+00  1.20000000E+00  1.20000000E+00
  1.50000000E+00  1.20000000E+00  1.20000000E+00  1.50000000E+00  1.20000000E+00
  1.20000000E+00  1.50000000E+00  1.20000000E+00  1.20000000E+00  1.50000000E+00
  1.20000000E+00  1.20000000E+00  1.50000000E+00  1.20000000E+00  1.20000000E+00
  1.50000000E+00  1.20000000E+00  1.20000000E+00  1.50000000E+00  1.20000000E+00
  1.20000000E+00  1.50000000E+00  1.20000000E+00  1.20000000E+00  1.50000000E+00
  1.20000000E+00  1.20000000E+00  1.50000000E+00  1.20000000E+00  1.20000000E+00
  1.50000000E+00  1.20000000E+00  1.20000000E+00  1.50000000E+00  1.20000000E+00
  1.20000000E+00  1.50000000E+00  1.20000000E+00  1.20000000E+00  1.50000000E+00
  1.20000000E+00  1.20000000E+00  1.50000000E+00  1.20000000E+00  1.20000000E+00
  1.50000000E+00  1.20000000E+00  1.20000000E+00  1.50000000E+00  1.20000000E+00
  1.20000000E+00  1.50000000E+00  1.20000000E+00  1.20000000E+00  1.50000000E+00
  1.20000000E+00  1.20000000E+00  1.50000000E+00  1.20000000E+00  1.20000000E+00
  1.50000000E+00  1.20000000E+00  1.20000000E+00  1.50000000E+00  1.20000000E+00
  1.20000000E+00  1.50000000E+00  1.20000000E+00  1.20000000E+00  1.50000000E+00
  1.20000000E+00  1.20000000E+00  1.50000000E+00  1.20000000E+00  1.20000000E+00
  1.50000000E+00  1.20000000E+00  1.20000000E+00  1.50000000E+00  1.20000000E+00
  1.20000000E+00  1.50000000E+00  1.20000000E+00  1.20000000E+00  1.50000000E+00
  1.20000000E+00  1.20000000E+00  1.50000000E+00  1.20000000E+00  1.20000000E+00
  1.50000000E+00  1.20000000E+00  1.20000000E+00  1.50000000E+00  1.20000000E+00
  1.20000000E+00  1.50000000E+00  1.20000000E+00  1.20000000E+00  1.50000000E+00
  1.20000000E+00  1.20000000E+00  1.50000000E+00  1.20000000E+00  1.20000000E+00
  1.50000000E+00  1.20000000E+00  1.20000000E+00  1.50000000E+00  1.20000000E+00
  1.20000000E+00  1.50000000E+00  1.20000000E+00  1.20000000E+00  1.50000000E+00
  1.20000000E+00  1.20000000E+00  1.50000000E+00  1.20000000E+00  1.20000000E+00
  1.50000000E+00  1.20000000E+00  1.20000000E+00  1.50000000E+00  1.20000000E+00
  1.20000000E+00  1.50000000E+00  1.20000000E+00  1.20000000E+00  1.50000000E+00
  1.20000000E+00  1.20000000E+00  1.50000000E+00  1.20000000E+00  1.20000000E+00
  1.50000000E+00  1.20000000E+00  1.20000000E+00  1.50000000E+00  1.20000000E+00
  1.20000000E+00  1.50000000E+00  1.20000000E+00  1.20000000E+00  1.50000000E+00
  1.20000000E+00  1.20000000E+00  1.50000000E+00  1.20000000E+00  1.20000000E+00
  1.50000000E+00  1.20000000E+00  1.20000000E+00  1.50000000E+00  1.20000000E+00
  1.20000000E+00  1.50000000E+00  1.20000000E+00  1.20000000E+00  1.50000000E+00
  1.20000000E+00  1.20000000E+00  1.50000000E+00  1.20000000E+00  1.20000000E+00
  1.50000000E+00  1.20000000E+00  1.20000000E+00  1.50000000E+00  1.20000000E+00
  1.20000000E+00  1.50000000E+00  1.20000000E+00  1.20000000E+00  1.50000000E+00
  1.20000000E+00  1.20000000E+00  1.50000000E+00  1.20000000E+00  1.20000000E+00
  1.50000000E+00  1.20000000E+00  1.20000000E+00  1.50000000E+00  1.20000000E+00
  1.20000000E+00  1.50000000E+00  1.20000000E+00  1.20000000E+00  1.50000000E+00
  1.20000000E+00  1.20000000E+00  1.50000000E+00  1.20000000E+00  1.20000000E+00
  1.50000000E+00  1.20000000E+00  1.20000000E+00  1.50000000E+00  1.20000000E+00
  1.20000000E+00  1.50000000E+00  1.20000000E+00  1.20000000E+00  1.50000000E+00
  1.20000000E+00  1.20000000E+00  1.50000000E+00  1.20000000E+00  1.20000000E+00
  1.50000000E+00  1.20000000E+00  1.20000000E+00  1.50000000E+00  1.20000000E+00
  1.20000000E+00  1.50000000E+00  1.20000000E+00  1.20000000E+00  1.50000000E+00
  1.20000000E+00  1.20000000E+00  1.50000000E+00  1.20000000E+00  1.20000000E+00
  1.50000000E+00  1.20000000E+00  1.20000000E+00  1.50000000E+00  1.20000000E+00
  1.20000000E+00  1.50000000E+00  1.20000000E+00  1.20000000E+00  1.50000000E+00
  1.20000000E+00  1.20000000E+00  1.50000000E+00  1.20000000E+00  1.20000000E+00
  1.50000000E+00  1.20000000E+00  1.20000000E+00  1.50000000E+00  1.20000000E+00
  1.20000000E+00  1.50000000E+00  1.20000000E+00  1.20000000E+00  1.50000000E+00
  1.20000000E+00  1.20000000E+00  1.50000000E+00  1.20000000E+00  1.20000000E+00
  1.50000000E+00  1.20000000E+00  1.20000000E+00  1.50000000E+00  1.20000000E+00
  1.20000000E+00  1.50000000E+00  1.20000000E+00  1.20000000E+00  1.50000000E+00
  1.20000000E+00  1.20000000E+00  1.50000000E+00  1.20000000E+00  1.20000000E+00
  1.50000000E+00  1.20000000E+00  1.20000000E+00  1.50000000E+00  1.20000000E+00
  1.20000000E+00  1.50000000E+00  1.20000000E+00  1.20000000E+00  1.50000000E+00
  1.20000000E+00  1.20000000E+00  1.50000000E+00  1.20000000E+00  1.20000000E+00
  1.50000000E+00  1.20000000E+00  1.20000000E+00  1.50000000E+00  1.20000000E+00
  1.20000000E+00  1.50000000E+00  1.20000000E+00  1.20000000E+00  1.50000000E+00
  1.20000000E+00  1.20000000E+00  1.50000000E+00  1.20000000E+00  1.20000000E+00
  1.50000000E+00  1.20000000E+00  1.20000000E+00  1.50000000E+00  1.20000000E+00
  1.20000000E+00  1.50000000E+00  1.20000000E+00  1.20000000E+00  1.50000000E+00
  1.20000000E+00  1.20000000E+00  1.50000000E+00  1.20000000E+00  1.20000000E+00
  1.50000000E+00  1.20000000E+00  1.20000000E+00  1.50000000E+00  1.20000000E+00
  1.20000000E+00  1.50000000E+00  1.20000000E+00  1.20000000E+00  1.50000000E+00
  1.20000000E+00  1.20000000E+00  1.50000000E+00  1.20000000E+00  1.20000000E+00
  1.50000000E+00  1.20000000E+00  1.20000000E+00  1.50000000E+00  1.20000000E+00
  1.20000000E+00  1.50000000E+00  1.20000000E+00  1.20000000E+00  1.50000000E+00
  1.20000000E+00  1.20000000E+00  1.50000000E+00  1.20000000E+00  1.20000000E+00
  1.50000000E+00  1.20000000E+00  1.20000000E+00  1.50000000E+00  1.20000000E+00
  1.20000000E+00  1.50000000E+00  1.20000000E+00  1.20000000E+00  1.50000000E+00
  1.20000000E+00  1.20000000E+00  1.50000000E+00  1.20000000E+00  1.20000000E+00
  1.50000000E+00  1.20000000E+00  1.20000000E+00  1.50000000E+00  1.20000000E+00
  1.20000000E+00  1.50000000E+00  1.20000000E+00  1.20000000E+00  1.50000000E+00
  1.20000000E+00  1.20000000E+00  1.50000000E+00  1.20000000E+00  1.20000000E+00
  1.50000000E+00  1.20000000E+00  1.20000000E+00  1.50000000E+00  1.20000000E+00
  1.20000000E+00  1.50000000E+00  1.20000000E+00  1.20000000E+00  1.50000000E+00
  1.20000000E+00  1.20000000E+00  1.50000000E+00  1.20000000E+00  1.20000000E+00
  1.50000000E+00  1.20000000E+00  1.20000000E+00  1.50000000E+00  1.20000000E+00
  1.20000000E+00  1.50000000E+00  1.20000000E+00  1.20000000E+00  1.50000000E+00
  1.20000000E+00  1.20000000E+00  1.50000000E+00  1.20000000E+00  1.20000000E+00
  1.50000000E+00  1.20000000E+00  1.20000000E+00  1.50000000E+00  1.20000000E+00
  1.20000000E+00  1.50000000E+00  1.20000000E+00  1.20000000E+00  1.50000000E+00
  1.20000000E+00  1.20000000E+00  1.50000000E+00  1.20000000E+00  1.20000000E+00
  1.50000000E+00  1.20000000E+00  1.20000000E+00  1.50000000E+00  1.20000000E+00
  1.20000000E+00  1.50000000E+00  1.20000000E+00  1.20000000E+00  1.50000000E+00
  1.20000000E+00  1.20000000E+00  1.50000000E+00  1.20000000E+00  1.20000000E+00
  1.50000000E+00  1.20000000E+00  1.20000000E+00  1.50000000E+00  1.20000000E+00
  1.20000000E+00  1.50000000E+00  1.20000000E+00  1.20000000E+00  1.50000000E+00
  1.20000000E+00  1.20000000E+00  1.50000000E+00  1.20000000E+00  1.20000000E+00
  1.50000000E+00  1.20000000E+00  1.20000000E+00  1.50000000E+00  1.20000000E+00
  1.20000000E+00  1.50000000E+00  1.20000000E+00  1.20000000E+00  1.50000000E+00
  1.20000000E+00  1.20000000E+00  1.50000000E+00  1.20000000E+00  1.20000000E+00
  1.50000000E+00  1.20000000E+00  1.20000000E+00  1.50000000E+00  1.20000000E+00
  1.20000000E+00  1.50000000E+00  1.20000000E+00  1.20000000E+00  1.50000000E+00
  1.20000000E+00  1.20000000E+00  1.50000000E+00  1.20000000E+00  1.20000000E+00
  1.50000000E+00  1.20000000E+00  1.20000000E+00  1.50000000E+00  1.20000000E+00
  1.20000000E+00  1.50000000E+00  1.20000000E+00  1.20000000E+00  1.50000000E+00
  1.20000000E+00  1.20000000E+00  1.50000000E+00  1.20000000E+00  1.20000000E+00
  1.50000000E+00  1.20000000E+00  1.20000000E+00  1.50000000E+00  1.20000000E+00
  1.20000000E+00  1.50000000E+00  1.20000000E+00  1.20000000E+00  1.50000000E+00
  1.20000000E+00  1.20000000E+00  1.50000000E+00  1.20000000E+00  1.20000000E+00
  1.50000000E+00  1.20000000E+00  1.20000000E+00  1.50000000E+00  1.20000000E+00
  1.20000000E+00  1.50000000E+00  1.20000000E+00  1.20000000E+00  1.50000000E+00
  1.20000000E+00  1.20000000E+00  1.50000000E+00  1.20000000E+00  1.20000000E+00
  1.50000000E+00  1.20000000E+00  1.20000000E+00  1.50000000E+00  1.20000000E+00
  1.20000000E+00  1.50000000E+00  1.20000000E+00  1.20000000E+00  1.50000000E+00
  1.20000000E+00  1.20000000E+00  1.50000000E+00  1.20000000E+00  1.20000000E+00
  1.50000000E+00  1.20000000E+00  1.20000000E+00  1.50000000E+00  1.20000000E+00
  1.20000000E+00  1.50000000E+00  1.20000000E+00  1.20000000E+00  1.50000000E+00
  1.20000000E+00  1.20000000E+00  1.50000000E+00  1.20000000E+00  1.20000000E+00
  1.50000000E+00  1.20000000E+00  1.20000000E+00  1.50000000E+00  1.20000000E+00
  1.20000000E+00  1.50000000E+00  1.20000000E+00  1.20000000E+00  1.50000000E+00
  1.20000000E+00  1.20000000E+00  1.50000000E+00  1.20000000E+00  1.20000000E+00
  1.50000000E+00  1.20000000E+00  1.20000000E+00  1.50000000E+00  1.20000000E+00
  1.20000000E+00  1.50000000E+00  1.20000000E+00  1.20000000E+00  1.50000000E+00
  1.20000000E+00  1.20000000E+00  1.50000000E+00  1.20000000E+00  1.20000000E+00
  1.50000000E+00  1.20000000E+00  1.20000000E+00  1.50000000E+00  1.20000000E+00
  1.20000000E+00  1.50000000E+00  1.20000000E+00  1.20000000E+00  1.50000000E+00
  1.20000000E+00  1.20000000E+00  1.50000000E+00  1.20000000E+00  1.20000000E+00
  1.50000000E+00  1.20000000E+00  1.20000000E+00  1.50000000E+00  1.20000000E+00
  1.20000000E+00  1.50000000E+00  1.20000000E+00  1.20000000E+00  1.50000000E+00
  1.20000000E+00  1.20000000E+00  1.50000000E+00  1.20000000E+00  1.20000000E+00
  1.50000000E+00  1.20000000E+00  1.20000000E+00  1.50000000E+00  1.20000000E+00
  1.20000000E+00  1.50000000E+00  1.20000000E+00  1.20000000E+00  1.50000000E+00
  1.20000000E+00  1.20000000E+00  1.50000000E+00  1.20000000E+00  1.20000000E+00
  1.50000000E+00  1.20000000E+00  1.20000000E+00  1.50000000E+00  1.20000000E+00
  1.20000000E+00  1.50000000E+00  1.20000000E+00  1.20000000E+00  1.50000000E+00
  1.20000000E+00  1.20000000E+00  1.50000000E+00  1.20000000E+00  1.20000000E+00
  1.50000000E+00  1.20000000E+00  1.20000000E+00  1.50000000E+00  1.20000000E+00
  1.20000000E+00  1.50000000E+00  1.20000000E+00  1.20000000E+00  1.50000000E+00
  1.20000000E+00  1.20000000E+00  1.50000000E+00  1.20000000E+00  1.20000000E+00
  1.50000000E+00  1.20000000E+00  1.20000000E+00  1.50000000E+00  1.20000000E+00
  1.20000000E+00  1.50000000E+00  1.20000000E+00  1.20000000E+00  1.50000000E+00
  1.20000000E+00  1.20000000E+00  1.50000000E+00  1.20000000E+00  1.20000000E+00
  1.50000000E+00  1.20000000E+00  1.20000000E+00  1.50000000E+00  1.20000000E+00
  1.20000000E+00  1.50000000E+00  1.20000000E+00  1.20000000E+00  1.50000000E+00
  1.20000000E+00  1.20000000E+00  1.50000000E+00  1.20000000E+00  1.20000000E+00
  1.50000000E+00  1.20000000E+00  1.20000000E+00  1.50000000E+00  1.20000000E+00
  1.20000000E+00  1.50000000E+00  1.20000000E+00  1.20000000E+00  1.50000000E+00
  1.20000000E+00  1.20000000E+00  1.50000000E+00  1.20000000E+00  1.20000000E+00
  1.50000000E+00  1.20000000E+00  1.20000000E+00  1.50000000E+00  1.20000000E+00
  1.20000000E+00  1.50000000E+00  1.20000000E+00  1.20000000E+00  1.50000000E+00
  1.20000000E+00  1.20000000E+00  1.50000000E+00  1.20000000E+00  1.20000000E+00
  1.50000000E+00  1.20000000E+00  1.20000000E+00  1.50000000E+00  1.20000000E+00
  1.20000000E+00  1.50000000E+00  1.20000000E+00  1.20000000E+00  1.50000000E+00
  1.20000000E+00  1.20000000E+00  1.50000000E+00  1.20000000E+00  1.20000000E+00
  1.50000000E+00  1.20000000E+00  1.20000000E+00  1.50000000E+00  1.20000000E+00
  1.20000000E+00  1.50000000E+00  1.20000000E+00  1.20000000E+00  1.50000000E+00
  1.20000000E+00  1.20000000E+00  1.50000000E+00  1.20000000E+00  1.20000000E+00
  1.50000000E+00  1.20000000E+00  1.20000000E+00  1.50000000E+00  1.20000000E+00
  1.20000000E+00  1.50000000E+00  1.20000000E+00  1.20000000E+00  1.50000000E+00
  1.20000000E+00  1.20000000E+00  1.50000000E+00  1.20000000E+00  1.20000000E+00
  1.50000000E+00  1.20000000E+00  1.20000000E+00  1.50000000E+00  1.20000000E+00
  1.20000000E+00  1.50000000E+00  1.20000000E+00  1.20000000E+00  1.50000000E+00
  1.20000000E+00  1.20000000E+00  1.50000000E+00  1.20000000E+00  1.20000000E+00
  1.50000000E+00  1.20000000E+00  1.20000000E+00  1.50000000E+00  1.20000000E+00
  1.20000000E+00  1.50000000E+00  1.20000000E+00  1.20000000E+00  1.50000000E+00
  1.20000000E+00  1.20000000E+00  1.50000000E+00  1.20000000E+00  1.20000000E+00
  1.50000000E+00  1.20000000E+00  1.20000000E+00  1.50000000E+00  1.20000000E+00
  1.20000000E+00  1.50000000E+00  1.20000000E+00  1.20000000E+00  1.50000000E+00
  1.20000000E+00  1.20000000E+00  1.50000000E+00  1.20000000E+00  1.20000000E+00
  1.50000000E+00  1.20000000E+00  1.20000000E+00  1.50000000E+00  1.20000000E+00
  1.20000000E+00  1.50000000E+00  1.20000000E+00  1.20000000E+00  1.50000000E+00
  1.20000000E+00  1.20000000E+00  1.50000000E+00  1.20000000E+00  1.20000000E+00
  1.50000000E+00  1.20000000E+00  1.20000000E+00  1.50000000E+00  1.20000000E+00
  1.20000000E+00  1.50000000E+00  1.20000000E+00  1.20000000E+00  1.50000000E+00
  1.20000000E+00  1.20000000E+00  1.50000000E+00  1.20000000E+00  1.20000000E+00
  1.50000000E+00  1.20000000E+00  1.20000000E+00  1.50000000E+00  1.20000000E+00
  1.20000000E+00  1.50000000E+00  1.20000000E+00  1.20000000E+00  1.50000000E+00
  1.20000000E+00  1.20000000E+00  1.50000000E+00  1.20000000E+00  1.20000000E+00
  1.50000000E+00  1.20000000E+00  1.20000000E+00  1.50000000E+00  1.20000000E+00
  1.20000000E+00  1.50000000E+00  1.20000000E+00  1.20000000E+00  1.50000000E+00
  1.20000000E+00  1.20000000E+00  1.50000000E+00  1.20000000E+00  1.20000000E+00
  1.50000000E+00  1.20000000E+00  1.20000000E+00  1.50000000E+00  1.20000000E+00
  1.20000000E+00  1.50000000E+00  1.20000000E+00  1.20000000E+00  1.50000000E+00
  1.20000000E+00  1.20000000E+00  1.50000000E+00  1.20000000E+00  1.20000000E+00
  1.50000000E+00  1.20000000E+00  1.20000000E+00  1.50000000E+00  1.20000000E+00
  1.20000000E+00  1.50000000E+00  1.20000000E+00  1.20000000E+00  1.50000000E+00
  1.20000000E+00  1.20000000E+00  1.50000000E+00  1.20000000E+00  1.20000000E+00
  1.50000000E+00  1.20000000E+00  1.20000000E+00  1.50000000E+00  1.20000000E+00
  1.20000000E+00  1.50000000E+00  1.20000000E+00  1.20000000E+00  1.50000000E+00
  1.20000000E+00  1.20000000E+00  1.50000000E+00  1.20000000E+00  1.20000000E+00
  1.50000000E+00  1.20000000E+00  1.20000000E+00  1.50000000E+00  1.20000000E+00
  1.20000000E+00  1.50000000E+00  1.20000000E+00  1.20000000E+00  1.50000000E+00
  1.20000000E+00  1.20000000E+00  1.50000000E+00  1.20000000E+00  1.20000000E+00
  1.50000000E+00  1.20000000E+00  1.20000000E+00  1.50000000E+00  1.20000000E+00
  1.20000000E+00  1.50000000E+00  1.20000000E+00  1.20000000E+00  1.50000000E+00
  1.20000000E+00  1.20000000E+00  1.50000000E+00  1.20000000E+00  1.20000000E+00
  1.50000000E+00  1.20000000E+00  1.20000000E+00  1.50000000E+00  1.20000000E+00
  1.20000000E+00  1.50000000E+00  1.20000000E+00  1.20000000E+00  1.50000000E+00
  1.20000000E+00  1.20000000E+00  1.50000000E+00  1.20000000E+00  1.20000000E+00
  1.50000000E+00  1.20000000E+00  1.20000000E+00  1.50000000E+00  1.20000000E+00
  1.20000000E+00  1.50000000E+00  1.20000000E+00  1.20000000E+00  1.50000000E+00
  1.20000000E+00  1.20000000E+00  1.50000000E+00  1.20000000E+00  1.20000000E+00
  1.50000000E+00  1.20000000E+00  1.20000000E+00  1.50000000E+00  1.20000000E+00
  1.20000000E+00  1.50000000E+00  1.20000000E+00  1.20000000E+00  1.50000000E+00
  1.20000000E+00  1.20000000E+00  1.50000000E+00  1.20000000E+00  1.20000000E+00
  1.50000000E+00  1.20000000E+00  1.20000000E+00  1.50000000E+00  1.20000000E+00
  1.20000000E+00  1.50000000E+00  1.20000000E+00  1.20000000E+00  1.50000000E+00
  1.20000000E+00  1.20000000E+00  1.50000000E+00  1.20000000E+00  1.20000000E+00
  1.50000000E+00  1.20000000E+00  1.20000000E+00  1.50000000E+00  1.20000000E+00
  1.20000000E+00  1.50000000E+00  1.20000000E+00  1.20000000E+00  1.50000000E+00
  1.20000000E+00  1.20000000E+00  1.50000000E+00  1.20000000E+00  1.20000000E+00
  1.50000000E+00  1.20000000E+00  1.20000000E+00  1.50000000E+00  1.20000000E+00
  1.20000000E+00  1.50000000E+00  1.20000000E+00  1.20000000E+00  1.50000000E+00
  1.20000000E+00  1.20000000E+00  1.50000000E+00  1.20000000E+00  1.20000000E+00
  1.50000000E+00  1.20000000E+00  1.20000000E+00  1.50000000E+00  1.20000000E+00
  1.20000000E+00  1.50000000E+00  1.20000000E+00  1.20000000E+00  1.50000000E+00
  1.20000000E+00  1.20000000E+00  1.50000000E+00  1.20000000E+00  1.20000000E+00
  1.50000000E+00  1.20000000E+00  1.20000000E+00  1.50000000E+00  1.20000000E+00
  1.20000000E+00  1.50000000E+00  1.20000000E+00  1.20000000E+00  1.50000000E+00
  1.20000000E+00  1.20000000E+00  1.50000000E+00  1.20000000E+00  1.20000000E+00
  1.50000000E+00  1.20000000E+00  1.20000000E+00  1.50000000E+00  1.20000000E+00
  1.20000000E+00  1.50000000E+00  1.20000000E+00  1.20000000E+00  1.50000000E+00
  1.20000000E+00  1.20000000E+00  1.50000000E+00  1.20000000E+00  1.20000000E+00
  1.50000000E+00  1.20000000E+00  1.20000000E+00  1.50000000E+00  1.20000000E+00
  1.20000000E+00  1.50000000E+00  1.20000000E+00  1.20000000E+00  1.50000000E+00
  1.20000000E+00  1.20000000E+00  1.50000000E+00  1.20000000E+00  1.20000000E+00
  1.50000000E+00  1.20000000E+00  1.20000000E+00  1.50000000E+00  1.20000000E+00
  1.20000000E+00  1.50000000E+00  1.20000000E+00  1.20000000E+00  1.50000000E+00
  1.20000000E+00  1.20000000E+00  1.50000000E+00  1.20000000E+00  1.20000000E+00
  1.50000000E+00  1.20000000E+00  1.20000000E+00  1.50000000E+00  1.20000000E+00
  1.20000000E+00  1.50000000E+00  1.20000000E+00  1.20000000E+00  1.50000000E+00
  1.20000000E+00  1.20000000E+00  1.50000000E+00  1.20000000E+00  1.20000000E+00
  1.50000000E+00  1.20000000E+00  1.20000000E+00  1.50000000E+00  1.20000000E+00
  1.20000000E+00  1.50000000E+00  1.20000000E+00  1.20000000E+00  1.50000000E+00
  1.20000000E+00  1.20000000E+00  1.50000000E+00  1.20000000E+00  1.20000000E+00
  1.50000000E+00  1.20000000E+00  1.20000000E+00  1.50000000E+00  1.20000000E+00
  1.20000000E+00  1.50000000E+00  1.20000000E+00  1.20000000E+00  1.50000000E+00
  1.20000000E+00  1.20000000E+00  1.50000000E+00  1.20000000E+00  1.20000000E+00
  1.50000000E+00  1.20000000E+00  1.20000000E+00  1.50000000E+00  1.20000000E+00
  1.20000000E+00  1.50000000E+00  1.20000000E+00  1.20000000E+00  1.50000000E+00
  1.20000000E+00  1.20000000E+00  1.50000000E+00  1.20000000E+00  1.20000000E+00
  1.50000000E+00  1.20000000E+00  1.20000000E+00  1.50000000E+00  1.20000000E+00
  1.20000000E+00  1.50000000E+00  1.20000000E+00  1.20000000E+00  1.50000000E+00
  1.20000000E+00  1.20000000E+00  1.50000000E+00  1.20000000E+00  1.20000000E+00
  1.50000000E+00  1.20000000E+00  1.20000000E+00  1.50000000E+00  1.20000000E+00
  1.20000000E+00  1.50000000E+00  1.20000000E+00  1.20000000E+00  1.50000000E+00
  1.20000000E+00  1.20000000E+00  1.50000000E+00  1.20000000E+00  1.20000000E+00
  1.50000000E+00  1.20000000E+00  1.20000000E+00  1.50000000E+00  1.20000000E+00
  1.20000000E+00  1.50000000E+00  1.20000000E+00  1.20000000E+00  1.50000000E+00
  1.20000000E+00  1.20000000E+00  1.50000000E+00  1.20000000E+00  1.20000000E+00
  1.50000000E+00  1.20000000E+00  1.20000000E+00  1.50000000E+00  1.20000000E+00
  1.20000000E+00  1.50000000E+00  1.20000000E+00  1.20000000E+00  1.50000000E+00
  1.20000000E+00  1.20000000E+00  1.50000000E+00  1.20000000E+00  1.20000000E+00
  1.50000000E+00  1.20000000E+00  1.20000000E+00  1.50000000E+00  1.20000000E+00
  1.20000000E+00  1.50000000E+00  1.20000000E+00  1.20000000E+00  1.50000000E+00
  1.20000000E+00  1.20000000E+00  1.50000000E+00  1.20000000E+00  1.20000000E+00
  1.50000000E+00  1.20000000E+00  1.20000000E+00  1.50000000E+00  1.20000000E+00
  1.20000000E+00  1.50000000E+00  1.20000000E+00  1.20000000E+00  1.50000000E+00
  1.20000000E+00  1.20000000E+00  1.50000000E+00  1.20000000E+00  1.20000000E+00
  1.50000000E+00  1.20000000E+00  1.20000000E+00  1.50000000E+00  1.20000000E+00
  1.20000000E+00  1.50000000E+00  1.20000000E+00  1.20000000E+00  1.50000000E+00
  1.20000000E+00  1.20000000E+00  1.50000000E+00  1.20000000E+00  1.20000000E+00
  1.50000000E+00  1.20000000E+00  1.20000000E+00  1.50000000E+00  1.20000000E+00
  1.20000000E+00  1.50000000E+00  1.20000000E+00  1.20000000E+00  1.50000000E+00
  1.20000000E+00  1.20000000E+00  1.50000000E+00  1.20000000E+00  1.20000000E+00
  1.50000000E+00  1.20000000E+00  1.20000000E+00  1.50000000E+00  1.20000000E+00
  1.20000000E+00  1.50000000E+00  1.20000000E+00  1.20000000E+00  1.50000000E+00
  1.20000000E+00  1.20000000E+00  1.50000000E+00  1.20000000E+00  1.20000000E+00
  1.50000000E+00  1.20000000E+00  1.20000000E+00  1.50000000E+00  1.20000000E+00
  1.20000000E+00  1.50000000E+00  1.20000000E+00  1.20000000E+00  1.50000000E+00
  1.20000000E+00  1.20000000E+00  1.50000000E+00  1.20000000E+00  1.20000000E+00
  1.50000000E+00  1.20000000E+00  1.20000000E+00  1.50000000E+00  1.20000000E+00
  1.20000000E+00  1.50000000E+00  1.20000000E+00  1.20000000E+00  1.50000000E+00
  1.20000000E+00  1.20000000E+00  1.50000000E+00  1.20000000E+00  1.20000000E+00
  1.50000000E+00  1.20000000E+00  1.20000000E+00  1.50000000E+00  1.20000000E+00
  1.20000000E+00  1.50000000E+00  1.20000000E+00  1.20000000E+00  1.50000000E+00
  1.20000000E+00  1.20000000E+00  1.50000000E+00  1.20000000E+00  1.20000000E+00
  1.50000000E+00  1.20000000E+00  1.20000000E+00  1.50000000E+00  1.20000000E+00
  1.20000000E+00  1.50000000E+00  1.20000000E+00  1.20000000E+00  1.50000000E+00
  1.20000000E+00  1.20000000E+00  1.50000000E+00  1.20000000E+00  1.20000000E+00
  1.50000000E+00  1.20000000E+00  1.20000000E+00  1.50000000E+00  1.20000000E+00
  1.20000000E+00  1.50000000E+00  1.20000000E+00  1.20000000E+00  1.50000000E+00
  1.20000000E+00  1.20000000E+00  1.50000000E+00  1.20000000E+00  1.20000000E+00
  1.50000000E+00  1.20000000E+00  1.20000000E+00  1.50000000E+00  1.20000000E+00
  1.20000000E+00  1.50000000E+00  1.20000000E+00  1.20000000E+00  1.50000000E+00
  1.20000000E+00  1.20000000E+00  1.50000000E+00  1.20000000E+00  1.20000000E+00
  1.50000000E+00  1.20000000E+00  1.20000000E+00  1.50000000E+00  1.20000000E+00
  1.20000000E+00  1.50000000E+00  1.20000000E+00  1.20000000E+00  1.50000000E+00
  1.20000000E+00  1.20000000E+00  1.50000000E+00  1.20000000E+00  1.20000000E+00
  1.50000000E+00  1.20000000E+00  1.20000000E+00  1.50000000E+00  1.20000000E+00
  1.20000000E+00  1.50000000E+00  1.20000000E+00  1.20000000E+00  1.50000000E+00
  1.20000000E+00  1.20000000E+00  1.50000000E+00  1.20000000E+00  1.20000000E+00
  1.50000000E+00  1.20000000E+00  1.20000000E+00  1.50000000E+00  1.20000000E+00
  1.20000000E+00  1.50000000E+00  1.20000000E+00  1.20000000E+00  1.50000000E+00
  1.20000000E+00  1.20000000E+00  1.50000000E+00  1.20000000E+00  1.20000000E+00
  1.50000000E+00  1.20000000E+00  1.20000000E+00  1.50000000E+00  1.20000000E+00
  1.20000000E+00  1.50000000E+00  1.20000000E+00  1.20000000E+00  1.50000000E+00
  1.20000000E+00  1.20000000E+00  1.50000000E+00  1.20000000E+00  1.20000000E+00
  1.50000000E+00  1.20000000E+00  1.20000000E+00  1.50000000E+00  1.20000000E+00
  1.20000000E+00  1.50000000E+00  1.20000000E+00  1.20000000E+00  1.50000000E+00
  1.20000000E+00  1.20000000E+00  1.50000000E+00  1.20000000E+00  1.20000000E+00
  1.50000000E+00  1.20000000E+00  1.20000000E+00  1.50000000E+00  1.20000000E+00
  1.20000000E+00  1.50000000E+00  1.20000000E+00  1.20000000E+00  1.50000000E+00
  1.20000000E+00  1.20000000E+00  1.50000000E+00  1.20000000E+00  1.20000000E+00
  1.50000000E+00  1.20000000E+00  1.20000000E+00  1.50000000E+00  1.20000000E+00
  1.20000000E+00  1.50000000E+00  1.20000000E+00  1.20000000E+00  1.50000000E+00
  1.20000000E+00  1.20000000E+00  1.50000000E+00  1.20000000E+00  1.20000000E+00
  1.50000000E+00  1.20000000E+00  1.20000000E+00  1.50000000E+00  1.20000000E+00
  1.20000000E+00  1.50000000E+00  1.20000000E+00  1.20000000E+00  1.50000000E+00
  1.20000000E+00  1.20000000E+00  1.50000000E+00  1.20000000E+00  1.20000000E+00
  1.50000000E+00  1.20000000E+00  1.20000000E+00  1.50000000E+00  1.20000000E+00
  1.20000000E+00  1.50000000E+00  1.20000000E+00  1.20000000E+00  1.50000000E+00
  1.20000000E+00  1.20000000E+00  1.50000000E+00  1.20000000E+00  1.20000000E+00
  1.50000000E+00  1.20000000E+00  1.20000000E+00  1.50000000E+00  1.20000000E+00
  1.20000000E+00  1.50000000E+00  1.20000000E+00  1.20000000E+00  1.50000000E+00
  1.20000000E+00  1.20000000E+00  1.50000000E+00  1.20000000E+00  1.20000000E+00
  1.50000000E+00  1.20000000E+00  1.20000000E+00  1.50000000E+00  1.20000000E+00
  1.20000000E+00  1.50000000E+00  1.20000000E+00  1.20000000E+00  1.50000000E+00
  1.20000000E+00  1.20000000E+00  1.50000000E+00  1.20000000E+00  1.20000000E+00
  1.50000000E+00  1.20000000E+00  1.20000000E+00  1.50000000E+00  1.20000000E+00
  1.20000000E+00  1.50000000E+00  1.20000000E+00  1.20000000E+00  1.50000000E+00
  1.20000000E+00  1.20000000E+00  1.50000000E+00  1.20000000E+00  1.20000000E+00
  1.50000000E+00  1.20000000E+00  1.20000000E+00  1.50000000E+00  1.20000000E+00
  1.20000000E+00  1.50000000E+00  1.20000000E+00  1.20000000E+00  1.50000000E+00
  1.20000000E+00  1.20000000E+00  1.50000000E+00  1.20000000E+00  1.20000000E+00
  1.50000000E+00  1.20000000E+00  1.20000000E+00  1.50000000E+00  1.20000000E+00
  1.20000000E+00  1.50000000E+00  1.20000000E+00  1.20000000E+00  1.50000000E+00
  1.20000000E+00  1.20000000E+00  1.50000000E+00  1.20000000E+00  1.20000000E+00
  1.50000000E+00  1.20000000E+00  1.20000000E+00  1.50000000E+00  1.20000000E+00
  1.20000000E+00  1.50000000E+00  1.20000000E+00  1.20000000E+00  1.50000000E+00
  1.20000000E+00  1.20000000E+00  1.50000000E+00  1.20000000E+00  1.20000000E+00
  1.50000000E+00  1.20000000E+00  1.20000000E+00  1.50000000E+00  1.20000000E+00
  1.20000000E+00  1.50000000E+00  1.20000000E+00  1.20000000E+00  1.50000000E+00
  1.20000000E+00  1.20000000E+00  1.50000000E+00  1.20000000E+00  1.20000000E+00
  1.50000000E+00  1.20000000E+00  1.20000000E+00  1.50000000E+00  1.20000000E+00
  1.20000000E+00  1.50000000E+00  1.20000000E+00  1.20000000E+00  1.50000000E+00
  1.20000000E+00  1.20000000E+00  1.50000000E+00  1.20000000E+00  1.20000000E+00
  1.50000000E+00  1.20000000E+00  1.20000000E+00  1.50000000E+00  1.20000000E+00
  1.20000000E+00  1.50000000E+00  1.20000000E+00  1.20000000E+00  1.50000000E+00
  1.20000000E+00  1.20000000E+00  1.50000000E+00  1.20000000E+00  1.20000000E+00
  1.50000000E+00  1.20000000E+00  1.20000000E+00  1.50000000E+00  1.20000000E+00
  1.20000000E+00  1.50000000E+00  1.20000000E+00  1.20000000E+00  1.50000000E+00
  1.20000000E+00  1.20000000E+00  1.50000000E+00  1.20000000E+00  1.20000000E+00
  1.50000000E+00  1.20000000E+00  1.20000000E+00  1.50000000E+00  1.20000000E+00
  1.20000000E+00  1.50000000E+00  1.20000000E+00  1.20000000E+00  1.50000000E+00
  1.20000000E+00  1.20000000E+00  1.50000000E+00  1.20000000E+00  1.20000000E+00
  1.50000000E+00  1.20000000E+00  1.20000000E+00  1.50000000E+00  1.20000000E+00
  1.20000000E+00  1.50000000E+00  1.20000000E+00  1.20000000E+00  1.50000000E+00
  1.20000000E+00  1.20000000E+00  1.50000000E+00  1.20000000E+00  1.20000000E+00
  1.50000000E+00  1.20000000E+00  1.20000000E+00  1.50000000E+00  1.20000000E+00
  1.20000000E+00  1.50000000E+00  1.20000000E+00  1.20000000E+00  1.50000000E+00
  1.20000000E+00  1.20000000E+00  1.50000000E+00  1.20000000E+00  1.20000000E+00
  1.50000000E+00  1.20000000E+00  1.20000000E+00  1.50000000E+00  1.20000000E+00
  1.20000000E+00  1.50000000E+00  1.20000000E+00  1.20000000E+00  1.50000000E+00
  1.20000000E+00  1.20000000E+00  1.50000000E+00  1.20000000E+00  1.20000000E+00
  1.50000000E+00  1.20000000E+00  1.20000000E+00  1.50000000E+00  1.20000000E+00
  1.20000000E+00  1.50000000E+00  1.20000000E+00  1.20000000E+00  1.50000000E+00
  1.20000000E+00  1.20000000E+00  1.50000000E+00  1.20000000E+00  1.20000000E+00
  1.50000000E+00  1.20000000E+00  1.20000000E+00  1.50000000E+00  1.20000000E+00
  1.20000000E+00  1.50000000E+00  1.20000000E+00  1.20000000E+00  1.50000000E+00
  1.20000000E+00  1.20000000E+00  1.50000000E+00  1.20000000E+00  1.20000000E+00
  1.50000000E+00  1.20000000E+00  1.20000000E+00  1.50000000E+00  1.20000000E+00
  1.20000000E+00  1.50000000E+00  1.20000000E+00  1.20000000E+00  1.50000000E+00
  1.20000000E+00  1.20000000E+00  1.50000000E+00  1.20000000E+00  1.20000000E+00
  1.50000000E+00  1.20000000E+00  1.20000000E+00  1.50000000E+00  1.20000000E+00
  1.20000000E+00  1.50000000E+00  1.20000000E+00  1.20000000E+00  1.50000000E+00
  1.20000000E+00  1.20000000E+00  1.50000000E+00  1.20000000E+00  1.20000000E+00
  1.50000000E+00  1.20000000E+00  1.20000000E+00  1.50000000E+00  1.20000000E+00
  1.20000000E+00  1.50000000E+00  1.20000000E+00  1.20000000E+00  1.50000000E+00
  1.20000000E+00  1.20000000E+00  1.50000000E+00  1.20000000E+00  1.20000000E+00
  1.50000000E+00  1.20000000E+00  1.20000000E+00  1.50000000E+00  1.20000000E+00
  1.20000000E+00  1.50000000E+00  1.20000000E+00  1.20000000E+00  1.50000000E+00
  1.20000000E+00  1.20000000E+00  1.50000000E+00  1.20000000E+00  1.20000000E+00
  1.50000000E+00  1.20000000E+00  1.20000000E+00  1.50000000E+00  1.20000000E+00
  1.20000000E+00  1.50000000E+00  1.20000000E+00  1.20000000E+00  1.50000000E+00
  1.20000000E+00  1.20000000E+00  1.50000000E+00  1.20000000E+00  1.20000000E+00
  1.50000000E+00  1.20000000E+00  1.20000000E+00  1.50000000E+00  1.20000000E+00
  1.20000000E+00  1.50000000E+00  1.20000000E+00  1.20000000E+00  1.50000000E+00
  1.20000000E+00  1.20000000E+00  1.50000000E+00  1.20000000E+00  1.20000000E+00
  1.50000000E+00  1.20000000E+00  1.20000000E+00  1.50000000E+00  1.20000000E+00
  1.20000000E+00  1.50000000E+00  1.20000000E+00  1.20000000E+00  1.50000000E+00
  1.20000000E+00  1.20000000E+00  1.50000000E+00  1.20000000E+00  1.20000000E+00
  1.50000000E+00  1.20000000E+00  1.20000000E+00  1.50000000E+00  1.20000000E+00
  1.20000000E+00  1.50000000E+00  1.20000000E+00  1.20000000E+00  1.50000000E+00
  1.20000000E+00  1.20000000E+00  1.50000000E+00  1.20000000E+00  1.20000000E+00
  1.50000000E+00  1.20000000E+00  1.20000000E+00  1.50000000E+00  1.20000000E+00
  1.20000000E+00  1.50000000E+00  1.20000000E+00  1.20000000E+00  1.50000000E+00
  1.20000000E+00  1.20000000E+00  1.50000000E+00  1.20000000E+00  1.20000000E+00
  1.50000000E+00  1.20000000E+00  1.20000000E+00  1.50000000E+00  1.20000000E+00
  1.20000000E+00  1.50000000E+00  1.20000000E+00  1.20000000E+00  1.50000000E+00
  1.20000000E+00  1.20000000E+00  1.50000000E+00  1.20000000E+00  1.20000000E+00
  1.50000000E+00  1.20000000E+00  1.20000000E+00  1.50000000E+00  1.20000000E+00
  1.20000000E+00  1.50000000E+00  1.20000000E+00  1.20000000E+00  1.50000000E+00
  1.20000000E+00  1.20000000E+00  1.50000000E+00  1.20000000E+00  1.20000000E+00
  1.50000000E+00  1.20000000E+00  1.20000000E+00  1.50000000E+00  1.20000000E+00
  1.20000000E+00  1.50000000E+00  1.20000000E+00  1.20000000E+00  1.50000000E+00
  1.20000000E+00  1.20000000E+00  1.50000000E+00  1.20000000E+00  1.20000000E+00
  1.50000000E+00  1.20000000E+00  1.20000000E+00  1.50000000E+00  1.20000000E+00
  1.20000000E+00  1.50000000E+00  1.20000000E+00  1.20000000E+00  1.50000000E+00
  1.20000000E+00  1.20000000E+00  1.50000000E+00  1.20000000E+00  1.20000000E+00
  1.50000000E+00  1.20000000E+00  1.20000000E+00  1.50000000E+00  1.20000000E+00
  1.20000000E+00  1.50000000E+00  1.20000000E+00  1.20000000E+00  1.50000000E+00
  1.20000000E+00  1.20000000E+00  1.50000000E+00  1.20000000E+00  1.20000000E+00
  1.50000000E+00  1.20000000E+00  1.20000000E+00  1.50000000E+00  1.20000000E+00
  1.20000000E+00  1.50000000E+00  1.20000000E+00  1.20000000E+00  1.50000000E+00
  1.20000000E+00  1.20000000E+00  1.50000000E+00  1.20000000E+00  1.20000000E+00
  1.50000000E+00  1.20000000E+00  1.20000000E+00  1.50000000E+00  1.20000000E+00
  1.20000000E+00  1.50000000E+00  1.20000000E+00  1.20000000E+00  1.50000000E+00
  1.20000000E+00  1.20000000E+00  1.50000000E+00  1.20000000E+00  1.20000000E+00
  1.50000000E+00  1.20000000E+00  1.20000000E+00  1.50000000E+00  1.20000000E+00
  1.20000000E+00  1.50000000E+00  1.20000000E+00  1.20000000E+00  1.50000000E+00
  1.20000000E+00  1.20000000E+00  1.50000000E+00  1.20000000E+00  1.20000000E+00
  1.50000000E+00  1.20000000E+00  1.20000000E+00  1.50000000E+00  1.20000000E+00
  1.20000000E+00  1.50000000E+00  1.20000000E+00  1.20000000E+00  1.50000000E+00
  1.20000000E+00  1.20000000E+00  1.50000000E+00  1.20000000E+00  1.20000000E+00
  1.50000000E+00  1.20000000E+00  1.20000000E+00  1.50000000E+00  1.20000000E+00
  1.20000000E+00  1.50000000E+00  1.20000000E+00  1.20000000E+00  1.50000000E+00
  1.20000000E+00  1.20000000E+00  1.50000000E+00  1.20000000E+00  1.20000000E+00
  1.50000000E+00  1.20000000E+00  1.20000000E+00  1.50000000E+00  1.20000000E+00
  1.20000000E+00  1.50000000E+00  1.20000000E+00  1.20000000E+00  1.50000000E+00
  1.20000000E+00  1.20000000E+00  1.50000000E+00  1.20000000E+00  1.20000000E+00
  1.50000000E+00  1.20000000E+00  1.20000000E+00  1.50000000E+00  1.20000000E+00
  1.20000000E+00  1.50000000E+00  1.20000000E+00  1.20000000E+00  1.50000000E+00
  1.20000000E+00  1.20000000E+00  1.50000000E+00  1.20000000E+00  1.20000000E+00
  1.50000000E+00  1.20000000E+00  1.20000000E+00  1.50000000E+00  1.20000000E+00
  1.20000000E+00  1.50000000E+00  1.20000000E+00  1.20000000E+00  1.50000000E+00
  1.20000000E+00  1.20000000E+00  1.50000000E+00  1.20000000E+00  1.20000000E+00
  1.50000000E+00  1.20000000E+00  1.20000000E+00  1.50000000E+00  1.20000000E+00
  1.20000000E+00  1.50000000E+00  1.20000000E+00  1.20000000E+00  1.50000000E+00
  1.20000000E+00  1.20000000E+00  1.50000000E+00  1.20000000E+00  1.20000000E+00
  1.50000000E+00  1.20000000E+00  1.20000000E+00  1.50000000E+00  1.20000000E+00
  1.20000000E+00  1.50000000E+00  1.20000000E+00  1.20000000E+00  1.50000000E+00
  1.20000000E+00  1.20000000E+00  1.50000000E+00  1.20000000E+00  1.20000000E+00
  1.50000000E+00  1.20000000E+00  1.20000000E+00  1.50000000E+00  1.20000000E+00
  1.20000000E+00  1.50000000E+00  1.20000000E+00  1.20000000E+00  1.50000000E+00
  1.20000000E+00  1.20000000E+00  1.50000000E+00  1.20000000E+00  1.20000000E+00
  1.50000000E+00  1.20000000E+00  1.20000000E+00  1.50000000E+00  1.20000000E+00
  1.20000000E+00  1.50000000E+00  1.20000000E+00  1.20000000E+00  1.50000000E+00
  1.20000000E+00  1.20000000E+00  1.50000000E+00  1.20000000E+00  1.20000000E+00
  1.50000000E+00  1.20000000E+00  1.20000000E+00  1.50000000E+00  1.20000000E+00
  1.20000000E+00  1.50000000E+00  1.20000000E+00  1.20000000E+00  1.50000000E+00
  1.20000000E+00  1.20000000E+00  1.50000000E+00  1.20000000E+00  1.20000000E+00
  1.50000000E+00  1.20000000E+00  1.20000000E+00  1.50000000E+00  1.20000000E+00
  1.20000000E+00  1.50000000E+00  1.20000000E+00  1.20000000E+00  1.50000000E+00
  1.20000000E+00  1.20000000E+00  1.50000000E+00  1.20000000E+00  1.20000000E+00
  1.50000000E+00  1.20000000E+00  1.20000000E+00  1.50000000E+00  1.20000000E+00
  1.20000000E+00  1.50000000E+00  1.20000000E+00  1.20000000E+00  1.50000000E+00
  1.20000000E+00  1.20000000E+00  1.50000000E+00  1.20000000E+00  1.20000000E+00
  1.50000000E+00  1.20000000E+00  1.20000000E+00  1.50000000E+00  1.20000000E+00
  1.20000000E+00  1.50000000E+00  1.20000000E+00  1.20000000E+00  1.50000000E+00
  1.20000000E+00  1.20000000E+00  1.50000000E+00  1.20000000E+00  1.20000000E+00
  1.50000000E+00  1.20000000E+00  1.20000000E+00  1.50000000E+00  1.20000000E+00
  1.20000000E+00  1.50000000E+00  1.20000000E+00  1.20000000E+00  1.50000000E+00
  1.20000000E+00  1.20000000E+00  1.50000000E+00  1.20000000E+00  1.20000000E+00
  1.50000000E+00  1.20000000E+00  1.20000000E+00  1.50000000E+00  1.20000000E+00
  1.20000000E+00  1.50000000E+00  1.20000000E+00  1.20000000E+00  1.50000000E+00
  1.20000000E+00  1.20000000E+00  1.50000000E+00  1.20000000E+00  1.20000000E+00
  1.50000000E+00  1.20000000E+00  1.20000000E+00  1.50000000E+00  1.20000000E+00
  1.20000000E+00  1.50000000E+00  1.20000000E+00  1.20000000E+00  1.50000000E+00
  1.20000000E+00  1.20000000E+00  1.50000000E+00  1.20000000E+00  1.20000000E+00
  1.50000000E+00  1.20000000E+00  1.20000000E+00  1.50000000E+00  1.20000000E+00
  1.20000000E+00  1.50000000E+00  1.20000000E+00  1.20000000E+00  1.50000000E+00
  1.20000000E+00  1.20000000E+00  1.50000000E+00  1.20000000E+00  1.20000000E+00
  1.50000000E+00  1.20000000E+00  1.20000000E+00  1.50000000E+00  1.20000000E+00
  1.20000000E+00  1.50000000E+00  1.20000000E+00  1.20000000E+00  1.50000000E+00
  1.20000000E+00  1.20000000E+00  1.50000000E+00  1.20000000E+00  1.20000000E+00
  1.50000000E+00  1.20000000E+00  1.20000000E+00  1.50000000E+00  1.20000000E+00
  1.20000000E+00  1.50000000E+00  1.20000000E+00  1.20000000E+00  1.50000000E+00
  1.20000000E+00  1.20000000E+00  1.50000000E+00  1.20000000E+00  1.20000000E+00
  1.50000000E+00  1.20000000E+00  1.20000000E+00  1.50000000E+00  1.20000000E+00
  1.20000000E+00  1.50000000E+00  1.20000000E+00  1.20000000E+00  1.50000000E+00
  1.20000000E+00  1.20000000E+00  1.50000000E+00  1.20000000E+00  1.20000000E+00
  1.50000000E+00  1.20000000E+00  1.20000000E+00  1.50000000E+00  1.20000000E+00
  1.20000000E+00  1.50000000E+00  1.20000000E+00  1.20000000E+00  1.50000000E+00
  1.20000000E+00  1.20000000E+00  1.50000000E+00  1.20000000E+00  1.20000000E+00
  1.50000000E+00  1.20000000E+00  1.20000000E+00  1.50000000E+00  1.20000000E+00
  1.20000000E+00  1.50000000E+00  1.20000000E+00  1.20000000E+00  1.50000000E+00
  1.20000000E+00  1.20000000E+00  1.50000000E+00  1.20000000E+00  1.20000000E+00
  1.50000000E+00  1.20000000E+00  1.20000000E+00  1.50000000E+00  1.20000000E+00
  1.20000000E+00  1.50000000E+00  1.20000000E+00  1.20000000E+00  1.50000000E+00
  1.20000000E+00  1.20000000E+00  1.50000000E+00  1.20000000E+00  1.20000000E+00
  1.50000000E+00  1.20000000E+00  1.20000000E+00  1.50000000E+00  1.20000000E+00
  1.20000000E+00  1.50000000E+00  1.20000000E+00  1.20000000E+00  1.50000000E+00
  1.20000000E+00  1.20000000E+00  1.50000000E+00  1.20000000E+00  1.20000000E+00
  1.50000000E+00  1.20000000E+00  1.20000000E+00  1.50000000E+00  1.20000000E+00
  1.20000000E+00  1.50000000E+00  1.20000000E+00  1.20000000E+00  1.50000000E+00
  1.20000000E+00  1.20000000E+00  1.50000000E+00  1.20000000E+00  1.20000000E+00
  1.50000000E+00  1.20000000E+00  1.20000000E+00  1.50000000E+00  1.20000000E+00
  1.20000000E+00  1.50000000E+00  1.20000000E+00  1.20000000E+00  1.50000000E+00
  1.20000000E+00  1.20000000E+00  1.50000000E+00  1.20000000E+00  1.20000000E+00
  1.50000000E+00  1.20000000E+00  1.20000000E+00  1.50000000E+00  1.20000000E+00
  1.20000000E+00  1.50000000E+00  1.20000000E+00  1.20000000E+00  1.50000000E+00
  1.20000000E+00  1.20000000E+00  1.50000000E+00  1.20000000E+00  1.20000000E+00
  1.50000000E+00  1.20000000E+00  1.20000000E+00  1.50000000E+00  1.20000000E+00
  1.20000000E+00  1.50000000E+00  1.20000000E+00  1.20000000E+00  1.50000000E+00
  1.20000000E+00  1.20000000E+00  1.50000000E+00  1.20000000E+00  1.20000000E+00
  1.50000000E+00  1.20000000E+00  1.20000000E+00  1.50000000E+00  1.20000000E+00
  1.20000000E+00  1.50000000E+00  1.20000000E+00  1.20000000E+00  1.50000000E+00
  1.20000000E+00  1.20000000E+00  1.50000000E+00  1.20000000E+00  1.20000000E+00
  1.50000000E+00  1.20000000E+00  1.20000000E+00  1.50000000E+00  1.20000000E+00
  1.20000000E+00  1.50000000E+00  1.20000000E+00  1.20000000E+00  1.50000000E+00
  1.20000000E+00  1.20000000E+00  1.50000000E+00  1.20000000E+00  1.20000000E+00
  1.50000000E+00  1.20000000E+00  1.20000000E+00  1.50000000E+00  1.20000000E+00
  1.20000000E+00  1.50000000E+00  1.20000000E+00  1.20000000E+00  1.50000000E+00
  1.20000000E+00  1.20000000E+00  1.50000000E+00  1.20000000E+00  1.20000000E+00
  1.50000000E+00  1.20000000E+00  1.20000000E+00  1.50000000E+00  1.20000000E+00
  1.20000000E+00  1.50000000E+00  1.20000000E+00  1.20000000E+00  1.50000000E+00
  1.20000000E+00  1.20000000E+00  1.50000000E+00  1.20000000E+00  1.20000000E+00
  1.50000000E+00  1.20000000E+00  1.20000000E+00  1.50000000E+00  1.20000000E+00
  1.20000000E+00  1.50000000E+00  1.20000000E+00  1.20000000E+00  1.50000000E+00
  1.20000000E+00  1.20000000E+00  1.50000000E+00  1.20000000E+00  1.20000000E+00
  1.50000000E+00  1.20000000E+00  1.20000000E+00  1.50000000E+00  1.20000000E+00
  1.20000000E+00  1.50000000E+00  1.20000000E+00  1.20000000E+00  1.50000000E+00
  1.20000000E+00  1.20000000E+00  1.50000000E+00  1.20000000E+00  1.20000000E+00
  1.50000000E+00  1.20000000E+00  1.20000000E+00  1.50000000E+00  1.20000000E+00
  1.20000000E+00  1.50000000E+00  1.20000000E+00  1.20000000E+00  1.50000000E+00
  1.20000000E+00  1.20000000E+00  1.50000000E+00  1.20000000E+00  1.20000000E+00
  1.50000000E+00  1.20000000E+00  1.20000000E+00  1.50000000E+00  1.20000000E+00
  1.20000000E+00  1.50000000E+00  1.20000000E+00  1.20000000E+00  1.50000000E+00
  1.20000000E+00  1.20000000E+00  1.50000000E+00  1.20000000E+00  1.20000000E+00
  1.50000000E+00  1.20000000E+00  1.20000000E+00  1.50000000E+00  1.20000000E+00
  1.20000000E+00  1.50000000E+00  1.20000000E+00  1.20000000E+00  1.50000000E+00
  1.20000000E+00  1.20000000E+00  1.50000000E+00  1.20000000E+00  1.20000000E+00
  1.50000000E+00  1.20000000E+00  1.20000000E+00  1.50000000E+00  1.20000000E+00
  1.20000000E+00  1.50000000E+00  1.20000000E+00  1.20000000E+00  1.50000000E+00
  1.20000000E+00  1.20000000E+00  1.50000000E+00  1.20000000E+00  1.20000000E+00
  1.50000000E+00  1.20000000E+00  1.20000000E+00  1.50000000E+00  1.20000000E+00
  1.20000000E+00  1.50000000E+00  1.20000000E+00  1.20000000E+00  1.50000000E+00
  1.20000000E+00  1.20000000E+00  1.50000000E+00  1.20000000E+00  1.20000000E+00
  1.50000000E+00  1.20000000E+00  1.20000000E+00  1.50000000E+00  1.20000000E+00
  1.20000000E+00  1.50000000E+00  1.20000000E+00  1.20000000E+00  1.50000000E+00
  1.20000000E+00  1.20000000E+00  1.50000000E+00  1.20000000E+00  1.20000000E+00
  1.50000000E+00  1.20000000E+00  1.20000000E+00  1.50000000E+00  1.20000000E+00
  1.20000000E+00  1.50000000E+00  1.20000000E+00  1.20000000E+00  1.50000000E+00
  1.20000000E+00  1.20000000E+00  1.50000000E+00  1.20000000E+00  1.20000000E+00
  1.50000000E+00  1.20000000E+00  1.20000000E+00  1.50000000E+00  1.20000000E+00
  1.20000000E+00  1.50000000E+00  1.20000000E+00  1.20000000E+00  1.50000000E+00
  1.20000000E+00  1.20000000E+00  1.50000000E+00  1.20000000E+00  1.20000000E+00
  1.50000000E+00  1.20000000E+00  1.20000000E+00  1.50000000E+00  1.20000000E+00
  1.20000000E+00  1.50000000E+00  1.20000000E+00  1.20000000E+00  1.50000000E+00
  1.20000000E+00  1.20000000E+00  1.50000000E+00  1.20000000E+00  1.20000000E+00
  1.50000000E+00  1.20000000E+00  1.20000000E+00  1.50000000E+00  1.20000000E+00
  1.20000000E+00  1.50000000E+00  1.20000000E+00  1.20000000E+00  1.50000000E+00
  1.20000000E+00  1.20000000E+00  1.50000000E+00  1.20000000E+00  1.20000000E+00
  1.50000000E+00  1.20000000E+00  1.20000000E+00  1.50000000E+00  1.20000000E+00
  1.20000000E+00  1.50000000E+00  1.20000000E+00  1.20000000E+00  1.50000000E+00
  1.20000000E+00  1.20000000E+00  1.50000000E+00  1.20000000E+00  1.20000000E+00
  1.50000000E+00  1.20000000E+00  1.20000000E+00  1.50000000E+00  1.20000000E+00
  1.20000000E+00  1.50000000E+00  1.20000000E+00  1.20000000E+00  1.50000000E+00
  1.20000000E+00  1.20000000E+00  1.50000000E+00  1.20000000E+00  1.20000000E+00
  1.50000000E+00  1.20000000E+00  1.20000000E+00  1.50000000E+00  1.20000000E+00
  1.20000000E+00  1.50000000E+00  1.20000000E+00  1.20000000E+00  1.50000000E+00
  1.20000000E+00  1.20000000E+00  1.50000000E+00  1.20000000E+00  1.20000000E+00
  1.50000000E+00  1.20000000E+00  1.20000000E+00  1.50000000E+00  1.20000000E+00
  1.20000000E+00  1.50000000E+00  1.20000000E+00  1.20000000E+00  1.50000000E+00
  1.20000000E+00  1.20000000E+00  1.50000000E+00  1.20000000E+00  1.20000000E+00
  1.50000000E+00  1.20000000E+00  1.20000000E+00  1.50000000E+00  1.20000000E+00
  1.20000000E+00  1.50000000E+00  1.20000000E+00  1.20000000E+00  1.50000000E+00
  1.20000000E+00  1.20000000E+00  1.50000000E+00  1.20000000E+00  1.20000000E+00
  1.50000000E+00  1.20000000E+00  1.20000000E+00  1.50000000E+00  1.20000000E+00
  1.20000000E+00  1.50000000E+00  1.20000000E+00  1.20000000E+00  1.50000000E+00
  1.20000000E+00  1.20000000E+00  1.50000000E+00  1.20000000E+00  1.20000000E+00
  1.50000000E+00  1.20000000E+00  1.20000000E+00  1.50000000E+00  1.20000000E+00
  1.20000000E+00  1.50000000E+00  1.20000000E+00  1.20000000E+00  1.50000000E+00
  1.20000000E+00  1.20000000E+00  1.50000000E+00  1.20000000E+00  1.20000000E+00
  1.50000000E+00  1.20000000E+00  1.20000000E+00  1.50000000E+00  1.20000000E+00
  1.20000000E+00  1.50000000E+00  1.20000000E+00  1.20000000E+00  1.50000000E+00
  1.20000000E+00  1.20000000E+00  1.50000000E+00  1.20000000E+00  1.20000000E+00
  1.50000000E+00  1.20000000E+00  1.20000000E+00  1.50000000E+00  1.20000000E+00
  1.20000000E+00  1.50000000E+00  1.20000000E+00  1.20000000E+00  1.50000000E+00
  1.20000000E+00  1.20000000E+00  1.50000000E+00  1.20000000E+00  1.20000000E+00
  1.50000000E+00  1.20000000E+00  1.20000000E+00  1.50000000E+00  1.20000000E+00
  1.20000000E+00  1.50000000E+00  1.20000000E+00  1.20000000E+00  1.50000000E+00
  1.20000000E+00  1.20000000E+00  1.50000000E+00  1.20000000E+00  1.20000000E+00
  1.50000000E+00  1.20000000E+00  1.20000000E+00  1.50000000E+00  1.20000000E+00
  1.20000000E+00  1.50000000E+00  1.20000000E+00  1.20000000E+00  1.50000000E+00
  1.20000000E+00  1.20000000E+00  1.50000000E+00  1.20000000E+00  1.20000000E+00
  1.50000000E+00  1.20000000E+00  1.20000000E+00  1.50000000E+00  1.20000000E+00
  1.20000000E+00  1.50000000E+00  1.20000000E+00  1.20000000E+00  1.50000000E+00
  1.20000000E+00  1.20000000E+00  1.50000000E+00  1.20000000E+00  1.20000000E+00
  1.50000000E+00  1.20000000E+00  1.20000000E+00  1.50000000E+00  1.20000000E+00
  1.20000000E+00  1.50000000E+00  1.20000000E+00  1.20000000E+00  1.50000000E+00
  1.20000000E+00  1.20000000E+00  1.50000000E+00  1.20000000E+00  1.20000000E+00
  1.50000000E+00  1.20000000E+00  1.20000000E+00  1.50000000E+00  1.20000000E+00
  1.20000000E+00  1.50000000E+00  1.20000000E+00  1.20000000E+00  1.50000000E+00
  1.20000000E+00  1.20000000E+00  1.50000000E+00  1.20000000E+00  1.20000000E+00
  1.50000000E+00  1.20000000E+00  1.20000000E+00  1.50000000E+00  1.20000000E+00
  1.20000000E+00  1.50000000E+00  1.20000000E+00  1.20000000E+00  1.50000000E+00
  1.20000000E+00  1.20000000E+00  1.50000000E+00  1.20000000E+00  1.20000000E+00
  1.50000000E+00  1.20000000E+00  1.20000000E+00  1.50000000E+00  1.20000000E+00
  1.20000000E+00  1.50000000E+00  1.20000000E+00  1.20000000E+00  1.50000000E+00
  1.20000000E+00  1.20000000E+00  1.50000000E+00  1.20000000E+00  1.20000000E+00
  1.50000000E+00  1.20000000E+00  1.20000000E+00  1.50000000E+00  1.20000000E+00
  1.20000000E+00  1.50000000E+00  1.20000000E+00  1.20000000E+00  1.50000000E+00
  1.20000000E+00  1.20000000E+00  1.50000000E+00  1.20000000E+00  1.20000000E+00
  1.50000000E+00  1.20000000E+00  1.20000000E+00  1.50000000E+00  1.20000000E+00
  1.20000000E+00  1.50000000E+00  1.20000000E+00  1.20000000E+00  1.50000000E+00
  1.20000000E+00  1.20000000E+00  1.50000000E+00  1.20000000E+00  1.20000000E+00
  1.50000000E+00  1.20000000E+00  1.20000000E+00  1.50000000E+00  1.20000000E+00
  1.20000000E+00  1.50000000E+00  1.20000000E+00  1.20000000E+00  1.50000000E+00
  1.20000000E+00  1.20000000E+00  1.50000000E+00  1.20000000E+00  1.20000000E+00
  1.50000000E+00  1.20000000E+00  1.20000000E+00  1.50000000E+00  1.20000000E+00
  1.20000000E+00  1.50000000E+00  1.20000000E+00  1.20000000E+00  1.50000000E+00
  1.20000000E+00  1.20000000E+00  1.50000000E+00  1.20000000E+00  1.20000000E+00
  1.50000000E+00  1.20000000E+00  1.20000000E+00  1.50000000E+00  1.20000000E+00
  1.20000000E+00  1.50000000E+00  1.20000000E+00  1.20000000E+00  1.50000000E+00
  1.20000000E+00  1.20000000E+00  1.50000000E+00  1.20000000E+00  1.20000000E+00
  1.50000000E+00  1.20000000E+00  1.20000000E+00  1.50000000E+00  1.20000000E+00
  1.20000000E+00  1.50000000E+00  1.20000000E+00  1.20000000E+00  1.50000000E+00
  1.20000000E+00  1.20000000E+00  1.50000000E+00  1.20000000E+00  1.20000000E+00
  1.50000000E+00  1.20000000E+00  1.20000000E+00  1.50000000E+00  1.20000000E+00
  1.20000000E+00  1.50000000E+00  1.20000000E+00  1.20000000E+00  1.50000000E+00
  1.20000000E+00  1.20000000E+00  1.50000000E+00  1.20000000E+00  1.20000000E+00
  1.50000000E+00  1.20000000E+00  1.20000000E+00  1.50000000E+00  1.20000000E+00
  1.20000000E+00  1.50000000E+00  1.20000000E+00  1.20000000E+00  1.50000000E+00
  1.20000000E+00  1.20000000E+00  1.50000000E+00  1.20000000E+00  1.20000000E+00
  1.50000000E+00  1.20000000E+00  1.20000000E+00  1.50000000E+00  1.20000000E+00
  1.20000000E+00  1.50000000E+00  1.20000000E+00  1.20000000E+00  1.50000000E+00
  1.20000000E+00  1.20000000E+00  1.50000000E+00  1.20000000E+00  1.20000000E+00
  1.50000000E+00  1.20000000E+00  1.20000000E+00  1.50000000E+00  1.20000000E+00
  1.20000000E+00  1.50000000E+00  1.20000000E+00  1.20000000E+00  1.50000000E+00
  1.20000000E+00  1.20000000E+00  1.50000000E+00  1.20000000E+00  1.20000000E+00
  1.50000000E+00  1.20000000E+00  1.20000000E+00  1.50000000E+00  1.20000000E+00
  1.20000000E+00  1.50000000E+00  1.20000000E+00  1.20000000E+00  1.50000000E+00
  1.20000000E+00  1.20000000E+00  1.50000000E+00  1.20000000E+00  1.20000000E+00
  1.50000000E+00  1.20000000E+00  1.20000000E+00  1.50000000E+00  1.20000000E+00
  1.20000000E+00  1.50000000E+00  1.20000000E+00  1.20000000E+00  1.50000000E+00
  1.20000000E+00  1.20000000E+00  1.50000000E+00  1.20000000E+00  1.20000000E+00
  1.50000000E+00  1.20000000E+00  1.20000000E+00  1.50000000E+00  1.20000000E+00
  1.20000000E+00  1.50000000E+00  1.20000000E+00  1.20000000E+00  1.50000000E+00
  1.20000000E+00  1.20000000E+00  1.50000000E+00  1.20000000E+00  1.20000000E+00
  1.50000000E+00  1.20000000E+00  1.20000000E+00  1.50000000E+00  1.20000000E+00
  1.20000000E+00  1.50000000E+00  1.20000000E+00  1.20000000E+00  1.50000000E+00
  1.20000000E+00  1.20000000E+00  1.50000000E+00  1.20000000E+00  1.20000000E+00
  1.50000000E+00  1.20000000E+00  1.20000000E+00  1.50000000E+00  1.20000000E+00
  1.20000000E+00  1.50000000E+00  1.20000000E+00  1.20000000E+00  1.50000000E+00
  1.20000000E+00  1.20000000E+00  1.50000000E+00  1.20000000E+00  1.20000000E+00
  1.50000000E+00  1.20000000E+00  1.20000000E+00  1.50000000E+00  1.20000000E+00
  1.20000000E+00  1.50000000E+00  1.20000000E+00  1.20000000E+00  1.50000000E+00
  1.20000000E+00  1.20000000E+00  1.50000000E+00  1.20000000E+00  1.20000000E+00
  1.50000000E+00  1.20000000E+00  1.20000000E+00  1.50000000E+00  1.20000000E+00
  1.20000000E+00  1.50000000E+00  1.20000000E+00  1.20000000E+00  1.50000000E+00
  1.20000000E+00  1.20000000E+00  1.50000000E+00  1.20000000E+00  1.20000000E+00
  1.50000000E+00  1.20000000E+00  1.20000000E+00  1.50000000E+00  1.20000000E+00
  1.20000000E+00  1.50000000E+00  1.20000000E+00  1.20000000E+00  1.50000000E+00
  1.20000000E+00  1.20000000E+00  1.50000000E+00  1.20000000E+00  1.20000000E+00
  1.50000000E+00  1.20000000E+00  1.20000000E+00  1.50000000E+00  1.20000000E+00
  1.20000000E+00  1.50000000E+00  1.20000000E+00  1.20000000E+00  1.50000000E+00
  1.20000000E+00  1.20000000E+00  1.50000000E+00  1.20000000E+00  1.20000000E+00
  1.50000000E+00  1.20000000E+00  1.20000000E+00  1.50000000E+00  1.20000000E+00
  1.20000000E+00  1.50000000E+00  1.20000000E+00  1.20000000E+00  1.50000000E+00
  1.20000000E+00  1.20000000E+00  1.50000000E+00  1.20000000E+00  1.20000000E+00
  1.50000000E+00  1.20000000E+00  1.20000000E+00  1.50000000E+00  1.20000000E+00
  1.20000000E+00  1.50000000E+00  1.20000000E+00  1.20000000E+00  1.50000000E+00
  1.20000000E+00  1.20000000E+00  1.50000000E+00  1.20000000E+00  1.20000000E+00
  1.50000000E+00  1.20000000E+00  1.20000000E+00  1.50000000E+00  1.20000000E+00
  1.20000000E+00  1.50000000E+00  1.20000000E+00  1.20000000E+00  1.50000000E+00
  1.20000000E+00  1.20000000E+00  1.50000000E+00  1.20000000E+00  1.20000000E+00
  1.50000000E+00  1.20000000E+00  1.20000000E+00  1.50000000E+00  1.20000000E+00
  1.20000000E+00  1.50000000E+00  1.20000000E+00  1.20000000E+00  1.50000000E+00
  1.20000000E+00  1.20000000E+00  1.50000000E+00  1.20000000E+00  1.20000000E+00
  1.50000000E+00  1.20000000E+00  1.20000000E+00  1.50000000E+00  1.20000000E+00
  1.20000000E+00  1.50000000E+00  1.20000000E+00  1.20000000E+00  1.50000000E+00
  1.20000000E+00  1.20000000E+00  1.50000000E+00  1.20000000E+00  1.20000000E+00
  1.50000000E+00  1.20000000E+00  1.20000000E+00  1.50000000E+00  1.20000000E+00
  1.20000000E+00  1.50000000E+00  1.20000000E+00  1.20000000E+00  1.50000000E+00
  1.20000000E+00  1.20000000E+00  1.50000000E+00  1.20000000E+00  1.20000000E+00
  1.50000000E+00  1.20000000E+00  1.20000000E+00  1.50000000E+00  1.20000000E+00
  1.20000000E+00  1.50000000E+00  1.20000000E+00  1.20000000E+00  1.50000000E+00
  1.20000000E+00  1.20000000E+00  1.50000000E+00  1.20000000E+00  1.20000000E+00
  1.50000000E+00  1.20000000E+00  1.20000000E+00  1.50000000E+00  1.20000000E+00
  1.20000000E+00  1.50000000E+00  1.20000000E+00  1.20000000E+00  1.50000000E+00
  1.20000000E+00  1.20000000E+00  1.50000000E+00  1.20000000E+00  1.20000000E+00
  1.50000000E+00  1.20000000E+00  1.20000000E+00  1.50000000E+00  1.20000000E+00
  1.20000000E+00  1.50000000E+00  1.20000000E+00  1.20000000E+00  1.50000000E+00
  1.20000000E+00  1.20000000E+00  1.50000000E+00  1.20000000E+00  1.20000000E+00
  1.50000000E+00  1.20000000E+00  1.20000000E+00  1.50000000E+00  1.20000000E+00
  1.20000000E+00  1.50000000E+00  1.20000000E+00  1.20000000E+00  1.50000000E+00
  1.20000000E+00  1.20000000E+00  1.50000000E+00  1.20000000E+00  1.20000000E+00
  1.50000000E+00  1.20000000E+00  1.20000000E+00  1.50000000E+00  1.20000000E+00
  1.20000000E+00  1.50000000E+00  1.20000000E+00  1.20000000E+00  1.50000000E+00
  1.20000000E+00  1.20000000E+00  1.50000000E+00  1.20000000E+00  1.20000000E+00
  1.50000000E+00  1.20000000E+00  1.20000000E+00  1.50000000E+00  1.20000000E+00
  1.20000000E+00  1.50000000E+00  1.20000000E+00  1.20000000E+00  1.50000000E+00
  1.20000000E+00  1.20000000E+00  1.50000000E+00  1.20000000E+00  1.20000000E+00
  1.50000000E+00  1.20000000E+00  1.20000000E+00  1.50000000E+00  1.20000000E+00
  1.20000000E+00  1.50000000E+00  1.20000000E+00  1.20000000E+00  1.50000000E+00
  1.20000000E+00  1.20000000E+00  1.50000000E+00  1.20000000E+00  1.20000000E+00
  1.50000000E+00  1.20000000E+00  1.20000000E+00  1.50000000E+00  1.20000000E+00
  1.20000000E+00  1.50000000E+00  1.20000000E+00  1.20000000E+00  1.50000000E+00
  1.20000000E+00  1.20000000E+00  1.50000000E+00  1.20000000E+00  1.20000000E+00
  1.50000000E+00  1.20000000E+00  1.20000000E+00  1.50000000E+00  1.20000000E+00
  1.20000000E+00  1.50000000E+00  1.20000000E+00  1.20000000E+00  1.50000000E+00
  1.20000000E+00  1.20000000E+00  1.50000000E+00  1.20000000E+00  1.20000000E+00
  1.50000000E+00  1.20000000E+00  1.20000000E+00  1.50000000E+00  1.20000000E+00
  1.20000000E+00  1.50000000E+00  1.20000000E+00  1.20000000E+00  1.50000000E+00
  1.20000000E+00  1.20000000E+00  1.50000000E+00  1.20000000E+00  1.20000000E+00
  1.50000000E+00  1.20000000E+00  1.20000000E+00  1.50000000E+00  1.20000000E+00
  1.20000000E+00  1.50000000E+00  1.20000000E+00  1.20000000E+00  1.50000000E+00
  1.20000000E+00  1.20000000E+00  1.50000000E+00  1.20000000E+00  1.20000000E+00
  1.50000000E+00  1.20000000E+00  1.20000000E+00  1.50000000E+00  1.20000000E+00
  1.20000000E+00  1.50000000E+00  1.20000000E+00  1.20000000E+00  1.50000000E+00
  1.20000000E+00  1.20000000E+00  1.50000000E+00  1.20000000E+00  1.20000000E+00
  1.50000000E+00  1.20000000E+00  1.20000000E+00  1.50000000E+00  1.20000000E+00
  1.20000000E+00  1.50000000E+00  1.20000000E+00  1.20000000E+00  1.50000000E+00
  1.20000000E+00  1.20000000E+00  1.50000000E+00  1.20000000E+00  1.20000000E+00
  1.50000000E+00  1.20000000E+00  1.20000000E+00  1.50000000E+00  1.20000000E+00
  1.20000000E+00  1.50000000E+00  1.20000000E+00  1.20000000E+00  1.50000000E+00
  1.20000000E+00  1.20000000E+00  1.50000000E+00  1.20000000E+00  1.20000000E+00
  1.50000000E+00  1.20000000E+00  1.20000000E+00  1.50000000E+00  1.20000000E+00
  1.20000000E+00  1.50000000E+00  1.20000000E+00  1.20000000E+00  1.50000000E+00
  1.20000000E+00  1.20000000E+00  1.50000000E+00  1.20000000E+00  1.20000000E+00
  1.50000000E+00  1.20000000E+00  1.20000000E+00  1.50000000E+00  1.20000000E+00
  1.20000000E+00  1.50000000E+00  1.20000000E+00  1.20000000E+00  1.50000000E+00
  1.20000000E+00  1.20000000E+00  1.50000000E+00  1.20000000E+00  1.20000000E+00
  1.50000000E+00  1.20000000E+00  1.20000000E+00  1.50000000E+00  1.20000000E+00
  1.20000000E+00  1.50000000E+00  1.20000000E+00  1.20000000E+00  1.50000000E+00
  1.20000000E+00  1.20000000E+00  1.50000000E+00  1.20000000E+00  1.20000000E+00
  1.50000000E+00  1.20000000E+00  1.20000000E+00  1.50000000E+00  1.20000000E+00
  1.20000000E+00  1.50000000E+00  1.20000000E+00  1.20000000E+00  1.50000000E+00
  1.20000000E+00  1.20000000E+00  1.50000000E+00  1.20000000E+00  1.20000000E+00
  1.50000000E+00  1.20000000E+00  1.20000000E+00  1.50000000E+00  1.20000000E+00
  1.20000000E+00  1.50000000E+00  1.20000000E+00  1.20000000E+00  1.50000000E+00
  1.20000000E+00  1.20000000E+00  1.50000000E+00  1.20000000E+00  1.20000000E+00
  1.50000000E+00  1.20000000E+00  1.20000000E+00  1.50000000E+00  1.20000000E+00
  1.20000000E+00  1.50000000E+00  1.20000000E+00  1.20000000E+00  1.50000000E+00
  1.20000000E+00  1.20000000E+00  1.50000000E+00  1.20000000E+00  1.20000000E+00
  1.50000000E+00  1.20000000E+00  1.20000000E+00  1.50000000E+00  1.20000000E+00
  1.20000000E+00  1.50000000E+00  1.20000000E+00  1.20000000E+00  1.50000000E+00
  1.20000000E+00  1.20000000E+00  1.50000000E+00  1.20000000E+00  1.20000000E+00
  1.50000000E+00  1.20000000E+00  1.20000000E+00  1.50000000E+00  1.20000000E+00
  1.20000000E+00  1.50000000E+00  1.20000000E+00  1.20000000E+00  1.50000000E+00
  1.20000000E+00  1.20000000E+00  1.50000000E+00  1.20000000E+00  1.20000000E+00
  1.50000000E+00  1.20000000E+00  1.20000000E+00  1.50000000E+00  1.20000000E+00
  1.20000000E+00  1.50000000E+00  1.20000000E+00  1.20000000E+00  1.50000000E+00
  1.20000000E+00  1.20000000E+00  1.50000000E+00  1.20000000E+00  1.20000000E+00
  1.50000000E+00  1.20000000E+00  1.20000000E+00  1.50000000E+00  1.20000000E+00
  1.20000000E+00  1.50000000E+00  1.20000000E+00  1.20000000E+00  1.50000000E+00
  1.20000000E+00  1.20000000E+00  1.50000000E+00  1.20000000E+00  1.20000000E+00
  1.50000000E+00  1.20000000E+00  1.20000000E+00  1.50000000E+00  1.20000000E+00
  1.20000000E+00  1.50000000E+00  1.20000000E+00  1.20000000E+00  1.50000000E+00
  1.20000000E+00  1.20000000E+00  1.50000000E+00  1.20000000E+00  1.20000000E+00
  1.50000000E+00  1.20000000E+00  1.20000000E+00  1.50000000E+00  1.20000000E+00
  1.20000000E+00  1.50000000E+00  1.20000000E+00  1.20000000E+00  1.50000000E+00
  1.20000000E+00  1.20000000E+00  1.50000000E+00  1.20000000E+00  1.20000000E+00
  1.50000000E+00  1.20000000E+00  1.20000000E+00  1.50000000E+00  1.20000000E+00
  1.20000000E+00  1.50000000E+00  1.20000000E+00  1.20000000E+00  1.50000000E+00
  1.20000000E+00  1.20000000E+00  1.50000000E+00  1.20000000E+00  1.20000000E+00
  1.50000000E+00  1.20000000E+00  1.20000000E+00  1.50000000E+00  1.20000000E+00
  1.20000000E+00  1.50000000E+00  1.20000000E+00  1.20000000E+00  1.50000000E+00
  1.20000000E+00  1.20000000E+00  1.50000000E+00  1.20000000E+00  1.20000000E+00
  1.50000000E+00  1.20000000E+00  1.20000000E+00  1.50000000E+00  1.20000000E+00
  1.20000000E+00  1.50000000E+00  1.20000000E+00  1.20000000E+00  1.50000000E+00
  1.20000000E+00  1.20000000E+00  1.50000000E+00  1.20000000E+00  1.20000000E+00
  1.50000000E+00  1.20000000E+00  1.20000000E+00  1.50000000E+00  1.20000000E+00
  1.20000000E+00  1.50000000E+00  1.20000000E+00  1.20000000E+00  1.50000000E+00
  1.20000000E+00  1.20000000E+00  1.50000000E+00  1.20000000E+00  1.20000000E+00
  1.50000000E+00  1.20000000E+00  1.20000000E+00  1.50000000E+00  1.20000000E+00
  1.20000000E+00  1.50000000E+00  1.20000000E+00  1.20000000E+00  1.50000000E+00
  1.20000000E+00  1.20000000E+00  1.50000000E+00  1.20000000E+00  1.20000000E+00
  1.50000000E+00  1.20000000E+00  1.20000000E+00  1.50000000E+00  1.20000000E+00
  1.20000000E+00  1.50000000E+00  1.20000000E+00  1.20000000E+00  1.50000000E+00
  1.20000000E+00  1.20000000E+00  1.50000000E+00  1.20000000E+00  1.20000000E+00
  1.50000000E+00  1.20000000E+00  1.20000000E+00  1.50000000E+00  1.20000000E+00
  1.20000000E+00  1.50000000E+00  1.20000000E+00  1.20000000E+00  1.50000000E+00
  1.20000000E+00  1.20000000E+00  1.50000000E+00  1.20000000E+00  1.20000000E+00
  1.50000000E+00  1.20000000E+00  1.20000000E+00  1.50000000E+00  1.20000000E+00
  1.20000000E+00  1.50000000E+00  1.20000000E+00  1.20000000E+00  1.50000000E+00
  1.20000000E+00  1.20000000E+00  1.50000000E+00  1.20000000E+00  1.20000000E+00
  1.50000000E+00  1.20000000E+00  1.20000000E+00  1.50000000E+00  1.20000000E+00
  1.20000000E+00  1.50000000E+00  1.20000000E+00  1.20000000E+00  1.50000000E+00
  1.20000000E+00  1.20000000E+00  1.50000000E+00  1.20000000E+00  1.20000000E+00
  1.50000000E+00  1.20000000E+00  1.20000000E+00  1.50000000E+00  1.20000000E+00
  1.20000000E+00  1.50000000E+00  1.20000000E+00  1.20000000E+00  1.50000000E+00
  1.20000000E+00  1.20000000E+00  1.50000000E+00  1.20000000E+00  1.20000000E+00
  1.50000000E+00  1.20000000E+00  1.20000000E+00  1.50000000E+00  1.20000000E+00
  1.20000000E+00  1.50000000E+00  1.20000000E+00  1.20000000E+00  1.50000000E+00
  1.20000000E+00  1.20000000E+00  1.50000000E+00  1.20000000E+00  1.20000000E+00
  1.50000000E+00  1.20000000E+00  1.20000000E+00  1.50000000E+00  1.20000000E+00
  1.20000000E+00  1.50000000E+00  1.20000000E+00  1.20000000E+00  1.50000000E+00
  1.20000000E+00  1.20000000E+00  1.50000000E+00  1.20000000E+00  1.20000000E+00
  1.50000000E+00  1.20000000E+00  1.20000000E+00  1.50000000E+00  1.20000000E+00
  1.20000000E+00  1.50000000E+00  1.20000000E+00  1.20000000E+00  1.50000000E+00
  1.20000000E+00  1.20000000E+00  1.50000000E+00  1.20000000E+00  1.20000000E+00
  1.50000000E+00  1.20000000E+00  1.20000000E+00  1.50000000E+00  1.20000000E+00
  1.20000000E+00  1.50000000E+00  1.20000000E+00  1.20000000E+00  1.50000000E+00
  1.20000000E+00  1.20000000E+00  1.50000000E+00  1.20000000E+00  1.20000000E+00
  1.50000000E+00  1.20000000E+00  1.20000000E+00  1.50000000E+00  1.20000000E+00
  1.20000000E+00  1.50000000E+00  1.20000000E+00  1.20000000E+00  1.50000000E+00
  1.20000000E+00  1.20000000E+00  1.50000000E+00  1.20000000E+00  1.20000000E+00
  1.50000000E+00  1.20000000E+00  1.20000000E+00  1.50000000E+00  1.20000000E+00
  1.20000000E+00  1.50000000E+00  1.20000000E+00  1.20000000E+00  1.50000000E+00
  1.20000000E+00  1.20000000E+00  1.50000000E+00  1.20000000E+00  1.20000000E+00
  1.50000000E+00  1.20000000E+00  1.20000000E+00  1.50000000E+00  1.20000000E+00
  1.20000000E+00  1.50000000E+00  1.20000000E+00  1.20000000E+00  1.50000000E+00
  1.20000000E+00  1.20000000E+00  1.50000000E+00  1.20000000E+00  1.20000000E+00
  1.50000000E+00  1.20000000E+00  1.20000000E+00  1.50000000E+00  1.20000000E+00
  1.20000000E+00  1.50000000E+00  1.20000000E+00  1.20000000E+00  1.50000000E+00
  1.20000000E+00  1.20000000E+00  1.50000000E+00  1.20000000E+00  1.20000000E+00
  1.50000000E+00  1.20000000E+00  1.20000000E+00  1.50000000E+00  1.20000000E+00
  1.20000000E+00  1.50000000E+00  1.20000000E+00  1.20000000E+00  1.50000000E+00
  1.20000000E+00  1.20000000E+00  1.50000000E+00  1.20000000E+00  1.20000000E+00
  1.50000000E+00  1.20000000E+00  1.20000000E+00  1.50000000E+00  1.20000000E+00
  1.20000000E+00  1.50000000E+00  1.20000000E+00  1.20000000E+00  1.50000000E+00
  1.20000000E+00  1.20000000E+00  1.50000000E+00  1.20000000E+00  1.20000000E+00
  1.50000000E+00  1.20000000E+00  1.20000000E+00  1.50000000E+00  1.20000000E+00
  1.20000000E+00  1.50000000E+00  1.20000000E+00  1.20000000E+00  1.50000000E+00
  1.20000000E+00  1.20000000E+00  1.50000000E+00  1.20000000E+00  1.20000000E+00
  1.50000000E+00  1.20000000E+00  1.20000000E+00  1.50000000E+00  1.20000000E+00
  1.20000000E+00  1.50000000E+00  1.20000000E+00  1.20000000E+00  1.50000000E+00
  1.20000000E+00  1.20000000E+00  1.50000000E+00  1.20000000E+00  1.20000000E+00
  1.50000000E+00  1.20000000E+00  1.20000000E+00  1.50000000E+00  1.20000000E+00
  1.20000000E+00  1.50000000E+00  1.20000000E+00  1.20000000E+00  1.50000000E+00
  1.20000000E+00  1.20000000E+00  1.50000000E+00  1.20000000E+00  1.20000000E+00
  1.50000000E+00  1.20000000E+00  1.20000000E+00  1.50000000E+00  1.20000000E+00
  1.20000000E+00  1.50000000E+00  1.20000000E+00  1.20000000E+00  1.50000000E+00
  1.20000000E+00  1.20000000E+00  1.50000000E+00  1.20000000E+00  1.20000000E+00
  1.50000000E+00  1.20000000E+00  1.20000000E+00  1.50000000E+00  1.20000000E+00
  1.20000000E+00  1.50000000E+00  1.20000000E+00  1.20000000E+00  1.50000000E+00
  1.20000000E+00  1.20000000E+00  1.50000000E+00  1.20000000E+00  1.20000000E+00
  1.50000000E+00  1.20000000E+00  1.20000000E+00  1.50000000E+00  1.20000000E+00
  1.20000000E+00  1.50000000E+00  1.20000000E+00  1.20000000E+00  1.50000000E+00
  1.20000000E+00  1.20000000E+00  1.50000000E+00  1.20000000E+00  1.20000000E+00
  1.50000000E+00  1.20000000E+00  1.20000000E+00  1.50000000E+00  1.20000000E+00
  1.20000000E+00  1.50000000E+00  1.20000000E+00  1.20000000E+00  1.50000000E+00
  1.20000000E+00  1.20000000E+00  1.50000000E+00  1.20000000E+00  1.20000000E+00
  1.50000000E+00  1.20000000E+00  1.20000000E+00  1.50000000E+00  1.20000000E+00
  1.20000000E+00  1.50000000E+00  1.20000000E+00  1.20000000E+00  1.50000000E+00
  1.20000000E+00  1.20000000E+00  1.50000000E+00  1.20000000E+00  1.20000000E+00
  1.50000000E+00  1.20000000E+00  1.20000000E+00  1.50000000E+00  1.20000000E+00
  1.20000000E+00  1.50000000E+00  1.20000000E+00  1.20000000E+00  1.50000000E+00
  1.20000000E+00  1.20000000E+00  1.50000000E+00  1.20000000E+00  1.20000000E+00
  1.50000000E+00  1.20000000E+00  1.20000000E+00  1.50000000E+00  1.20000000E+00
  1.20000000E+00  1.50000000E+00  1.20000000E+00  1.20000000E+00  1.50000000E+00
  1.20000000E+00  1.20000000E+00  1.50000000E+00  1.20000000E+00  1.20000000E+00
  1.50000000E+00  1.20000000E+00  1.20000000E+00  1.50000000E+00  1.20000000E+00
  1.20000000E+00  1.50000000E+00  1.20000000E+00  1.20000000E+00  1.50000000E+00
  1.20000000E+00  1.20000000E+00  1.50000000E+00  1.20000000E+00  1.20000000E+00
  1.50000000E+00  1.20000000E+00  1.20000000E+00  1.50000000E+00  1.20000000E+00
  1.20000000E+00  1.50000000E+00  1.20000000E+00  1.20000000E+00  1.50000000E+00
  1.20000000E+00  1.20000000E+00  1.50000000E+00  1.20000000E+00  1.20000000E+00
  1.50000000E+00  1.20000000E+00  1.20000000E+00  1.50000000E+00  1.20000000E+00
  1.20000000E+00  1.50000000E+00  1.20000000E+00  1.20000000E+00  1.50000000E+00
  1.20000000E+00  1.20000000E+00  1.50000000E+00  1.20000000E+00  1.20000000E+00
  1.50000000E+00  1.20000000E+00  1.20000000E+00  1.50000000E+00  1.20000000E+00
  1.20000000E+00  1.50000000E+00  1.20000000E+00  1.20000000E+00  1.50000000E+00
  1.20000000E+00  1.20000000E+00  1.50000000E+00  1.20000000E+00  1.20000000E+00
  1.50000000E+00  1.20000000E+00  1.20000000E+00  1.50000000E+00  1.20000000E+00
  1.20000000E+00  1.50000000E+00  1.20000000E+00  1.20000000E+00  1.50000000E+00
  1.20000000E+00  1.20000000E+00  1.50000000E+00  1.20000000E+00  1.20000000E+00
  1.50000000E+00  1.20000000E+00  1.20000000E+00  1.50000000E+00  1.20000000E+00
  1.20000000E+00  1.50000000E+00  1.20000000E+00  1.20000000E+00  1.50000000E+00
  1.20000000E+00  1.20000000E+00  1.50000000E+00  1.20000000E+00  1.20000000E+00
  1.50000000E+00  1.20000000E+00  1.20000000E+00  1.50000000E+00  1.20000000E+00
  1.20000000E+00  1.50000000E+00  1.20000000E+00  1.20000000E+00  1.50000000E+00
  1.20000000E+00  1.20000000E+00  1.50000000E+00  1.20000000E+00  1.20000000E+00
  1.50000000E+00  1.20000000E+00  1.20000000E+00  1.50000000E+00  1.20000000E+00
  1.20000000E+00  1.50000000E+00  1.20000000E+00  1.20000000E+00  1.50000000E+00
  1.20000000E+00  1.20000000E+00  1.50000000E+00  1.20000000E+00  1.20000000E+00
  1.50000000E+00  1.20000000E+00  1.20000000E+00  1.50000000E+00  1.20000000E+00
  1.20000000E+00  1.50000000E+00  1.20000000E+00  1.20000000E+00  1.50000000E+00
  1.20000000E+00  1.20000000E+00  1.50000000E+00  1.20000000E+00  1.20000000E+00
  1.50000000E+00  1.20000000E+00  1.20000000E+00  1.50000000E+00  1.20000000E+00
  1.20000000E+00  1.50000000E+00  1.20000000E+00  1.20000000E+00  1.50000000E+00
  1.20000000E+00  1.20000000E+00  1.50000000E+00  1.20000000E+00  1.20000000E+00
  1.50000000E+00  1.20000000E+00  1.20000000E+00  1.50000000E+00  1.20000000E+00
  1.20000000E+00  1.50000000E+00  1.20000000E+00  1.20000000E+00  1.50000000E+00
  1.20000000E+00  1.20000000E+00  1.50000000E+00  1.20000000E+00  1.20000000E+00
  1.50000000E+00  1.20000000E+00  1.20000000E+00  1.50000000E+00  1.20000000E+00
  1.20000000E+00  1.50000000E+00  1.20000000E+00  1.20000000E+00  1.50000000E+00
  1.20000000E+00  1.20000000E+00  1.50000000E+00  1.20000000E+00  1.20000000E+00
  1.50000000E+00  1.20000000E+00  1.20000000E+00  1.50000000E+00  1.20000000E+00
  1.20000000E+00  1.50000000E+00  1.20000000E+00  1.20000000E+00  1.50000000E+00
  1.20000000E+00  1.20000000E+00  1.50000000E+00  1.20000000E+00  1.20000000E+00
  1.50000000E+00  1.20000000E+00  1.20000000E+00  1.50000000E+00  1.20000000E+00
  1.20000000E+00  1.50000000E+00  1.20000000E+00  1.20000000E+00  1.50000000E+00
  1.20000000E+00  1.20000000E+00  1.50000000E+00  1.20000000E+00  1.20000000E+00
  1.50000000E+00  1.20000000E+00  1.20000000E+00  1.50000000E+00  1.20000000E+00
  1.20000000E+00  1.50000000E+00  1.20000000E+00  1.20000000E+00  1.50000000E+00
  1.20000000E+00  1.20000000E+00  1.50000000E+00  1.20000000E+00  1.20000000E+00
  1.50000000E+00  1.20000000E+00  1.20000000E+00  1.50000000E+00  1.20000000E+00
  1.20000000E+00  1.50000000E+00  1.20000000E+00  1.20000000E+00  1.50000000E+00
  1.20000000E+00  1.20000000E+00  1.50000000E+00  1.20000000E+00  1.20000000E+00
  1.50000000E+00  1.20000000E+00  1.20000000E+00  1.50000000E+00  1.20000000E+00
  1.20000000E+00  1.50000000E+00  1.20000000E+00  1.20000000E+00  1.50000000E+00
  1.20000000E+00  1.20000000E+00  1.50000000E+00  1.20000000E+00  1.20000000E+00
  1.50000000E+00  1.20000000E+00  1.20000000E+00  1.50000000E+00  1.20000000E+00
  1.20000000E+00  1.50000000E+00  1.20000000E+00  1.20000000E+00  1.50000000E+00
  1.20000000E+00  1.20000000E+00  1.50000000E+00  1.20000000E+00  1.20000000E+00
  1.50000000E+00  1.20000000E+00  1.20000000E+00  1.50000000E+00  1.20000000E+00
  1.20000000E+00  1.50000000E+00  1.20000000E+00  1.20000000E+00  1.50000000E+00
  1.20000000E+00  1.20000000E+00  1.50000000E+00  1.20000000E+00  1.20000000E+00
  1.50000000E+00  1.20000000E+00  1.20000000E+00  1.50000000E+00  1.20000000E+00
  1.20000000E+00  1.50000000E+00  1.20000000E+00  1.20000000E+00  1.50000000E+00
  1.20000000E+00  1.20000000E+00  1.50000000E+00  1.20000000E+00  1.20000000E+00
  1.50000000E+00  1.20000000E+00  1.20000000E+00  1.50000000E+00  1.20000000E+00
  1.20000000E+00  1.50000000E+00  1.20000000E+00  1.20000000E+00  1.50000000E+00
  1.20000000E+00  1.20000000E+00  1.50000000E+00  1.20000000E+00  1.20000000E+00
  1.50000000E+00  1.20000000E+00  1.20000000E+00  1.50000000E+00  1.20000000E+00
  1.20000000E+00  1.50000000E+00  1.20000000E+00  1.20000000E+00  1.50000000E+00
  1.20000000E+00  1.20000000E+00  1.50000000E+00  1.20000000E+00  1.20000000E+00
  1.50000000E+00  1.20000000E+00  1.20000000E+00  1.50000000E+00  1.20000000E+00
  1.20000000E+00  1.50000000E+00  1.20000000E+00  1.20000000E+00  1.50000000E+00
  1.20000000E+00  1.20000000E+00  1.50000000E+00  1.20000000E+00  1.20000000E+00
  1.50000000E+00  1.20000000E+00  1.20000000E+00  1.50000000E+00  1.20000000E+00
  1.20000000E+00  1.50000000E+00  1.20000000E+00  1.20000000E+00  1.50000000E+00
  1.20000000E+00  1.20000000E+00  1.50000000E+00  1.20000000E+00  1.20000000E+00
  1.50000000E+00  1.20000000E+00  1.20000000E+00  1.50000000E+00  1.20000000E+00
  1.20000000E+00  1.50000000E+00  1.20000000E+00  1.20000000E+00  1.50000000E+00
  1.20000000E+00  1.20000000E+00  1.50000000E+00  1.20000000E+00  1.20000000E+00
  1.50000000E+00  1.20000000E+00  1.20000000E+00  1.50000000E+00  1.20000000E+00
  1.20000000E+00  1.50000000E+00  1.20000000E+00  1.20000000E+00  1.50000000E+00
  1.20000000E+00  1.20000000E+00  1.50000000E+00  1.20000000E+00  1.20000000E+00
  1.50000000E+00  1.20000000E+00  1.20000000E+00  1.50000000E+00  1.20000000E+00
  1.20000000E+00  1.50000000E+00  1.20000000E+00  1.20000000E+00  1.50000000E+00
  1.20000000E+00  1.20000000E+00  1.50000000E+00  1.20000000E+00  1.20000000E+00
  1.50000000E+00  1.20000000E+00  1.20000000E+00  1.50000000E+00  1.20000000E+00
  1.20000000E+00  1.50000000E+00  1.20000000E+00  1.20000000E+00  1.50000000E+00
  1.20000000E+00  1.20000000E+00  1.50000000E+00  1.20000000E+00  1.20000000E+00
  1.50000000E+00  1.20000000E+00  1.20000000E+00  1.50000000E+00  1.20000000E+00
  1.20000000E+00  1.50000000E+00  1.20000000E+00  1.20000000E+00  1.50000000E+00
  1.20000000E+00  1.20000000E+00  1.50000000E+00  1.20000000E+00  1.20000000E+00
  1.50000000E+00  1.20000000E+00  1.20000000E+00  1.50000000E+00  1.20000000E+00
  1.20000000E+00  1.50000000E+00  1.20000000E+00  1.20000000E+00  1.50000000E+00
  1.20000000E+00  1.20000000E+00  1.50000000E+00  1.20000000E+00  1.20000000E+00
  1.50000000E+00  1.20000000E+00  1.20000000E+00  1.50000000E+00  1.20000000E+00
  1.20000000E+00  1.50000000E+00  1.20000000E+00  1.20000000E+00  1.50000000E+00
  1.20000000E+00  1.20000000E+00  1.50000000E+00  1.20000000E+00  1.20000000E+00
  1.50000000E+00  1.20000000E+00  1.20000000E+00  1.50000000E+00  1.20000000E+00
  1.20000000E+00  1.50000000E+00  1.20000000E+00  1.20000000E+00  1.50000000E+00
  1.20000000E+00  1.20000000E+00  1.50000000E+00  1.20000000E+00  1.20000000E+00
  1.50000000E+00  1.20000000E+00  1.20000000E+00  1.50000000E+00  1.20000000E+00
  1.20000000E+00  1.50000000E+00  1.20000000E+00  1.20000000E+00  1.50000000E+00
  1.20000000E+00  1.20000000E+00  1.50000000E+00  1.20000000E+00  1.20000000E+00
  1.50000000E+00  1.20000000E+00  1.20000000E+00  1.50000000E+00  1.20000000E+00
  1.20000000E+00  1.50000000E+00  1.20000000E+00  1.20000000E+00  1.50000000E+00
  1.20000000E+00  1.20000000E+00  1.50000000E+00  1.20000000E+00  1.20000000E+00
  1.50000000E+00  1.20000000E+00  1.20000000E+00  1.50000000E+00  1.20000000E+00
  1.20000000E+00  1.50000000E+00  1.20000000E+00  1.20000000E+00  1.50000000E+00
  1.20000000E+00  1.20000000E+00  1.50000000E+00  1.20000000E+00  1.20000000E+00
  1.50000000E+00  1.20000000E+00  1.20000000E+00  1.50000000E+00  1.20000000E+00
  1.20000000E+00  1.50000000E+00  1.20000000E+00  1.20000000E+00  1.50000000E+00
  1.20000000E+00  1.20000000E+00  1.50000000E+00  1.20000000E+00  1.20000000E+00
  1.50000000E+00  1.20000000E+00  1.20000000E+00  1.50000000E+00  1.20000000E+00
  1.20000000E+00  1.50000000E+00  1.20000000E+00  1.20000000E+00  1.50000000E+00
  1.20000000E+00  1.20000000E+00  1.50000000E+00  1.20000000E+00  1.20000000E+00
  1.50000000E+00  1.20000000E+00  1.20000000E+00  1.50000000E+00  1.20000000E+00
  1.20000000E+00  1.50000000E+00  1.20000000E+00  1.20000000E+00  1.50000000E+00
  1.20000000E+00  1.20000000E+00  1.50000000E+00  1.20000000E+00  1.20000000E+00
  1.50000000E+00  1.20000000E+00  1.20000000E+00  1.50000000E+00  1.20000000E+00
  1.20000000E+00  1.50000000E+00  1.20000000E+00  1.20000000E+00  1.50000000E+00
  1.20000000E+00  1.20000000E+00  1.50000000E+00  1.20000000E+00  1.20000000E+00
  1.50000000E+00  1.20000000E+00  1.20000000E+00  1.50000000E+00  1.20000000E+00
  1.20000000E+00  1.50000000E+00  1.20000000E+00  1.20000000E+00  1.50000000E+00
  1.20000000E+00  1.20000000E+00  1.50000000E+00  1.20000000E+00  1.20000000E+00
  1.50000000E+00  1.20000000E+00  1.20000000E+00  1.50000000E+00  1.20000000E+00
  1.20000000E+00  1.50000000E+00  1.20000000E+00  1.20000000E+00  1.50000000E+00
  1.20000000E+00  1.20000000E+00  1.50000000E+00  1.20000000E+00  1.20000000E+00
  1.50000000E+00  1.20000000E+00  1.20000000E+00  1.50000000E+00  1.20000000E+00
  1.20000000E+00  1.50000000E+00  1.20000000E+00  1.20000000E+00  1.50000000E+00
  1.20000000E+00  1.20000000E+00  1.50000000E+00  1.20000000E+00  1.20000000E+00
  1.50000000E+00  1.20000000E+00  1.20000000E+00  1.50000000E+00  1.20000000E+00
  1.20000000E+00  1.50000000E+00  1.20000000E+00  1.20000000E+00  1.50000000E+00
  1.20000000E+00  1.20000000E+00  1.50000000E+00  1.20000000E+00  1.20000000E+00
  1.50000000E+00  1.20000000E+00  1.20000000E+00  1.50000000E+00  1.20000000E+00
  1.20000000E+00  1.50000000E+00  1.20000000E+00  1.20000000E+00  1.50000000E+00
  1.20000000E+00  1.20000000E+00  1.50000000E+00  1.20000000E+00  1.20000000E+00
  1.50000000E+00  1.20000000E+00  1.20000000E+00  1.50000000E+00  1.20000000E+00
  1.20000000E+00  1.50000000E+00  1.20000000E+00  1.20000000E+00  1.50000000E+00
  1.20000000E+00  1.20000000E+00  1.50000000E+00  1.20000000E+00  1.20000000E+00
  1.50000000E+00  1.20000000E+00  1.20000000E+00  1.50000000E+00  1.20000000E+00
  1.20000000E+00  1.50000000E+00  1.20000000E+00  1.20000000E+00  1.50000000E+00
  1.20000000E+00  1.20000000E+00  1.50000000E+00  1.20000000E+00  1.20000000E+00
  1.50000000E+00  1.20000000E+00  1.20000000E+00  1.50000000E+00  1.20000000E+00
  1.20000000E+00  1.50000000E+00  1.20000000E+00  1.20000000E+00  1.50000000E+00
  1.20000000E+00  1.20000000E+00  1.50000000E+00  1.20000000E+00  1.20000000E+00
  1.50000000E+00  1.20000000E+00  1.20000000E+00  1.50000000E+00  1.20000000E+00
  1.20000000E+00  1.50000000E+00  1.20000000E+00  1.20000000E+00  1.50000000E+00
  1.20000000E+00  1.20000000E+00  1.50000000E+00  1.20000000E+00  1.20000000E+00
  1.50000000E+00  1.20000000E+00  1.20000000E+00  1.50000000E+00  1.20000000E+00
  1.20000000E+00  1.50000000E+00  1.20000000E+00  1.20000000E+00  1.50000000E+00
  1.20000000E+00  1.20000000E+00  1.50000000E+00  1.20000000E+00  1.20000000E+00
  1.50000000E+00  1.20000000E+00  1.20000000E+00  1.50000000E+00  1.20000000E+00
  1.20000000E+00  1.50000000E+00  1.20000000E+00  1.20000000E+00  1.50000000E+00
  1.20000000E+00  1.20000000E+00  1.50000000E+00  1.20000000E+00  1.20000000E+00
  1.50000000E+00  1.20000000E+00  1.20000000E+00  1.50000000E+00  1.20000000E+00
  1.20000000E+00  1.50000000E+00  1.20000000E+00  1.20000000E+00  1.50000000E+00
  1.20000000E+00  1.20000000E+00  1.50000000E+00  1.20000000E+00  1.20000000E+00
  1.50000000E+00  1.20000000E+00  1.20000000E+00  1.50000000E+00  1.20000000E+00
  1.20000000E+00  1.50000000E+00  1.20000000E+00  1.20000000E+00  1.50000000E+00
  1.20000000E+00  1.20000000E+00  1.50000000E+00  1.20000000E+00  1.20000000E+00
  1.50000000E+00  1.20000000E+00  1.20000000E+00  1.50000000E+00  1.20000000E+00
  1.20000000E+00  1.50000000E+00  1.20000000E+00  1.20000000E+00  1.50000000E+00
  1.20000000E+00  1.20000000E+00  1.50000000E+00  1.20000000E+00  1.20000000E+00
  1.50000000E+00  1.20000000E+00  1.20000000E+00  1.50000000E+00  1.20000000E+00
  1.20000000E+00  1.50000000E+00  1.20000000E+00  1.20000000E+00  1.50000000E+00
  1.20000000E+00  1.20000000E+00  1.50000000E+00  1.20000000E+00  1.20000000E+00
  1.50000000E+00  1.20000000E+00  1.20000000E+00  1.50000000E+00  1.20000000E+00
  1.20000000E+00  1.50000000E+00  1.20000000E+00  1.20000000E+00  1.50000000E+00
  1.20000000E+00  1.20000000E+00  1.50000000E+00  1.20000000E+00  1.20000000E+00
  1.50000000E+00  1.20000000E+00  1.20000000E+00  1.50000000E+00  1.20000000E+00
  1.20000000E+00  1.50000000E+00  1.20000000E+00  1.20000000E+00  1.50000000E+00
  1.20000000E+00  1.20000000E+00  1.50000000E+00  1.20000000E+00  1.20000000E+00
  1.50000000E+00  1.20000000E+00  1.20000000E+00  1.50000000E+00  1.20000000E+00
  1.20000000E+00  1.50000000E+00  1.20000000E+00  1.20000000E+00  1.50000000E+00
  1.20000000E+00  1.20000000E+00  1.50000000E+00  1.20000000E+00  1.20000000E+00
  1.50000000E+00  1.20000000E+00  1.20000000E+00  1.50000000E+00  1.20000000E+00
  1.20000000E+00  1.50000000E+00  1.20000000E+00  1.20000000E+00  1.50000000E+00
  1.20000000E+00  1.20000000E+00  1.50000000E+00  1.20000000E+00  1.20000000E+00
  1.50000000E+00  1.20000000E+00  1.20000000E+00  1.50000000E+00  1.20000000E+00
  1.20000000E+00  1.50000000E+00  1.20000000E+00  1.20000000E+00  1.50000000E+00
  1.20000000E+00  1.20000000E+00  1.50000000E+00  1.20000000E+00  1.20000000E+00
  1.50000000E+00  1.20000000E+00  1.20000000E+00  1.50000000E+00  1.20000000E+00
  1.20000000E+00  1.50000000E+00  1.20000000E+00  1.20000000E+00  1.50000000E+00
  1.20000000E+00  1.20000000E+00  1.50000000E+00  1.20000000E+00  1.20000000E+00
  1.50000000E+00  1.20000000E+00  1.20000000E+00  1.50000000E+00  1.20000000E+00
  1.20000000E+00  1.50000000E+00  1.20000000E+00  1.20000000E+00  1.50000000E+00
  1.20000000E+00  1.20000000E+00  1.50000000E+00  1.20000000E+00  1.20000000E+00
  1.50000000E+00  1.20000000E+00  1.20000000E+00  1.50000000E+00  1.20000000E+00
  1.20000000E+00  1.50000000E+00  1.20000000E+00  1.20000000E+00  1.50000000E+00
  1.20000000E+00  1.20000000E+00  1.50000000E+00  1.20000000E+00  1.20000000E+00
  1.50000000E+00  1.20000000E+00  1.20000000E+00  1.50000000E+00  1.20000000E+00
  1.20000000E+00  1.50000000E+00  1.20000000E+00  1.20000000E+00  1.50000000E+00
  1.20000000E+00  1.20000000E+00  1.50000000E+00  1.20000000E+00  1.20000000E+00
  1.50000000E+00  1.20000000E+00  1.20000000E+00  1.50000000E+00  1.20000000E+00
  1.20000000E+00  1.50000000E+00  1.20000000E+00  1.20000000E+00  1.50000000E+00
  1.20000000E+00  1.20000000E+00  1.50000000E+00  1.20000000E+00  1.20000000E+00
  1.50000000E+00  1.20000000E+00  1.20000000E+00  1.50000000E+00  1.20000000E+00
  1.20000000E+00  1.50000000E+00  1.20000000E+00  1.20000000E+00  1.50000000E+00
  1.20000000E+00  1.20000000E+00  1.50000000E+00  1.20000000E+00  1.20000000E+00
  1.50000000E+00  1.20000000E+00  1.20000000E+00  1.50000000E+00  1.20000000E+00
  1.20000000E+00  1.50000000E+00  1.20000000E+00  1.20000000E+00  1.50000000E+00
  1.20000000E+00  1.20000000E+00  1.50000000E+00  1.20000000E+00  1.20000000E+00
  1.50000000E+00  1.20000000E+00  1.20000000E+00  1.50000000E+00  1.20000000E+00
  1.20000000E+00  1.50000000E+00  1.20000000E+00  1.20000000E+00  1.50000000E+00
  1.20000000E+00  1.20000000E+00  1.50000000E+00  1.20000000E+00  1.20000000E+00
  1.50000000E+00  1.20000000E+00  1.20000000E+00  1.50000000E+00  1.20000000E+00
  1.20000000E+00  1.50000000E+00  1.20000000E+00  1.20000000E+00  1.50000000E+00
  1.20000000E+00  1.20000000E+00  1.50000000E+00  1.20000000E+00  1.20000000E+00
  1.50000000E+00  1.20000000E+00  1.20000000E+00  1.50000000E+00  1.20000000E+00
  1.20000000E+00  1.50000000E+00  1.20000000E+00  1.20000000E+00  1.50000000E+00
  1.20000000E+00  1.20000000E+00  1.50000000E+00  1.20000000E+00  1.20000000E+00
  1.50000000E+00  1.20000000E+00  1.20000000E+00  1.50000000E+00  1.20000000E+00
  1.20000000E+00  1.50000000E+00  1.20000000E+00  1.20000000E+00  1.50000000E+00
  1.20000000E+00  1.20000000E+00  1.50000000E+00  1.20000000E+00  1.20000000E+00
  1.50000000E+00  1.20000000E+00  1.20000000E+00  1.50000000E+00  1.20000000E+00
  1.20000000E+00  1.50000000E+00  1.20000000E+00  1.20000000E+00  1.50000000E+00
  1.20000000E+00  1.20000000E+00  1.50000000E+00  1.20000000E+00  1.20000000E+00
  1.50000000E+00  1.20000000E+00  1.20000000E+00  1.50000000E+00  1.20000000E+00
  1.20000000E+00  1.50000000E+00  1.20000000E+00  1.20000000E+00  1.50000000E+00
  1.20000000E+00  1.20000000E+00  1.50000000E+00  1.20000000E+00  1.20000000E+00
  1.50000000E+00  1.20000000E+00  1.20000000E+00  1.50000000E+00  1.20000000E+00
  1.20000000E+00  1.50000000E+00  1.20000000E+00  1.20000000E+00  1.50000000E+00
  1.20000000E+00  1.20000000E+00  1.50000000E+00  1.20000000E+00  1.20000000E+00
  1.50000000E+00  1.20000000E+00  1.20000000E+00  1.50000000E+00  1.20000000E+00
  1.20000000E+00  1.50000000E+00  1.20000000E+00  1.20000000E+00  1.50000000E+00
  1.20000000E+00  1.20000000E+00  1.50000000E+00  1.20000000E+00  1.20000000E+00
  1.50000000E+00  1.20000000E+00  1.20000000E+00  1.50000000E+00  1.20000000E+00
  1.20000000E+00  1.50000000E+00  1.20000000E+00  1.20000000E+00  1.50000000E+00
  1.20000000E+00  1.20000000E+00  1.50000000E+00  1.20000000E+00  1.20000000E+00
  1.50000000E+00  1.20000000E+00  1.20000000E+00  1.50000000E+00  1.20000000E+00
  1.20000000E+00  1.50000000E+00  1.20000000E+00  1.20000000E+00  1.50000000E+00
  1.20000000E+00  1.20000000E+00  1.50000000E+00  1.20000000E+00  1.20000000E+00
  1.50000000E+00  1.20000000E+00  1.20000000E+00  1.50000000E+00  1.20000000E+00
  1.20000000E+00  1.50000000E+00  1.20000000E+00  1.20000000E+00  1.50000000E+00
  1.20000000E+00  1.20000000E+00  1.50000000E+00  1.20000000E+00  1.20000000E+00
  1.50000000E+00  1.20000000E+00  1.20000000E+00  1.50000000E+00  1.20000000E+00
  1.20000000E+00  1.50000000E+00  1.20000000E+00  1.20000000E+00  1.50000000E+00
  1.20000000E+00  1.20000000E+00  1.50000000E+00  1.20000000E+00  1.20000000E+00
  1.50000000E+00  1.20000000E+00  1.20000000E+00  1.50000000E+00  1.20000000E+00
  1.20000000E+00  1.50000000E+00  1.20000000E+00  1.20000000E+00  1.50000000E+00
  1.20000000E+00  1.20000000E+00  1.50000000E+00  1.20000000E+00  1.20000000E+00
  1.50000000E+00  1.20000000E+00  1.20000000E+00  1.50000000E+00  1.20000000E+00
  1.20000000E+00  1.50000000E+00  1.20000000E+00  1.20000000E+00  1.50000000E+00
  1.20000000E+00  1.20000000E+00  1.50000000E+00  1.20000000E+00  1.20000000E+00
  1.50000000E+00  1.20000000E+00  1.20000000E+00  1.50000000E+00  1.20000000E+00
  1.20000000E+00  1.50000000E+00  1.20000000E+00  1.20000000E+00  1.50000000E+00
  1.20000000E+00  1.20000000E+00  1.50000000E+00  1.20000000E+00  1.20000000E+00
  1.50000000E+00  1.20000000E+00  1.20000000E+00  1.50000000E+00  1.20000000E+00
  1.20000000E+00  1.50000000E+00  1.20000000E+00  1.20000000E+00  1.50000000E+00
  1.20000000E+00  1.20000000E+00  1.50000000E+00  1.20000000E+00  1.20000000E+00
  1.50000000E+00  1.20000000E+00  1.20000000E+00  1.50000000E+00  1.20000000E+00
  1.20000000E+00  1.50000000E+00  1.20000000E+00  1.20000000E+00  1.50000000E+00
  1.20000000E+00  1.20000000E+00  1.50000000E+00  1.20000000E+00  1.20000000E+00
  1.50000000E+00  1.20000000E+00  1.20000000E+00  1.50000000E+00  1.20000000E+00
  1.20000000E+00  1.50000000E+00  1.20000000E+00  1.20000000E+00  1.50000000E+00
  1.20000000E+00  1.20000000E+00  1.50000000E+00  1.20000000E+00  1.20000000E+00
  1.50000000E+00  1.20000000E+00  1.20000000E+00  1.50000000E+00  1.20000000E+00
  1.20000000E+00  1.50000000E+00  1.20000000E+00  1.20000000E+00  1.50000000E+00
  1.20000000E+00  1.20000000E+00  1.50000000E+00  1.20000000E+00  1.20000000E+00
  1.50000000E+00  1.20000000E+00  1.20000000E+00  1.50000000E+00  1.20000000E+00
  1.20000000E+00  1.50000000E+00  1.20000000E+00  1.20000000E+00  1.50000000E+00
  1.20000000E+00  1.20000000E+00  1.50000000E+00  1.20000000E+00  1.20000000E+00
  1.50000000E+00  1.20000000E+00  1.20000000E+00  1.50000000E+00  1.20000000E+00
  1.20000000E+00  1.50000000E+00  1.20000000E+00  1.20000000E+00  1.50000000E+00
  1.20000000E+00  1.20000000E+00  1.50000000E+00  1.20000000E+00  1.20000000E+00
  1.50000000E+00  1.20000000E+00  1.20000000E+00  1.50000000E+00  1.20000000E+00
  1.20000000E+00  1.50000000E+00  1.20000000E+00  1.20000000E+00  1.50000000E+00
  1.20000000E+00  1.20000000E+00  1.50000000E+00  1.20000000E+00  1.20000000E+00
  1.50000000E+00  1.20000000E+00  1.20000000E+00  1.50000000E+00  1.20000000E+00
  1.20000000E+00  1.50000000E+00  1.20000000E+00  1.20000000E+00  1.50000000E+00
  1.20000000E+00  1.20000000E+00  1.50000000E+00  1.20000000E+00  1.20000000E+00
  1.50000000E+00  1.20000000E+00  1.20000000E+00  1.50000000E+00  1.20000000E+00
  1.20000000E+00  1.50000000E+00  1.20000000E+00  1.20000000E+00  1.50000000E+00
  1.20000000E+00  1.20000000E+00  1.50000000E+00  1.20000000E+00  1.20000000E+00
  1.50000000E+00  1.20000000E+00  1.20000000E+00  1.50000000E+00  1.20000000E+00
  1.20000000E+00  1.50000000E+00  1.20000000E+00  1.20000000E+00  1.50000000E+00
  1.20000000E+00  1.20000000E+00  1.50000000E+00  1.20000000E+00  1.20000000E+00
  1.50000000E+00  1.20000000E+00  1.20000000E+00  1.50000000E+00  1.20000000E+00
  1.20000000E+00  1.50000000E+00  1.20000000E+00  1.20000000E+00  1.50000000E+00
  1.20000000E+00  1.20000000E+00  1.50000000E+00  1.20000000E+00  1.20000000E+00
  1.50000000E+00  1.20000000E+00  1.20000000E+00  1.50000000E+00  1.20000000E+00
  1.20000000E+00  1.50000000E+00  1.20000000E+00  1.20000000E+00  1.50000000E+00
  1.20000000E+00  1.20000000E+00  1.50000000E+00  1.20000000E+00  1.20000000E+00
  1.50000000E+00  1.20000000E+00  1.20000000E+00  1.50000000E+00  1.20000000E+00
  1.20000000E+00  1.50000000E+00  1.20000000E+00  1.20000000E+00  1.50000000E+00
  1.20000000E+00  1.20000000E+00  1.50000000E+00  1.20000000E+00  1.20000000E+00
  1.50000000E+00  1.20000000E+00  1.20000000E+00  1.50000000E+00  1.20000000E+00
  1.20000000E+00  1.50000000E+00  1.20000000E+00  1.20000000E+00  1.50000000E+00
  1.20000000E+00  1.20000000E+00  1.50000000E+00  1.20000000E+00  1.20000000E+00
  1.50000000E+00  1.20000000E+00  1.20000000E+00  1.50000000E+00  1.20000000E+00
  1.20000000E+00  1.50000000E+00  1.20000000E+00  1.20000000E+00  1.50000000E+00
  1.20000000E+00  1.20000000E+00  1.50000000E+00  1.20000000E+00  1.20000000E+00
  1.50000000E+00  1.20000000E+00  1.20000000E+00  1.50000000E+00  1.20000000E+00
  1.20000000E+00  1.50000000E+00  1.20000000E+00  1.20000000E+00  1.50000000E+00
  1.20000000E+00  1.20000000E+00  1.50000000E+00  1.20000000E+00  1.20000000E+00
  1.50000000E+00  1.20000000E+00  1.20000000E+00  1.50000000E+00  1.20000000E+00
  1.20000000E+00  1.50000000E+00  1.20000000E+00  1.20000000E+00  1.50000000E+00
  1.20000000E+00  1.20000000E+00  1.50000000E+00  1.20000000E+00  1.20000000E+00
  1.50000000E+00  1.20000000E+00  1.20000000E+00  1.50000000E+00  1.20000000E+00
  1.20000000E+00  1.50000000E+00  1.20000000E+00  1.20000000E+00  1.50000000E+00
  1.20000000E+00  1.20000000E+00  1.50000000E+00  1.20000000E+00  1.20000000E+00
  1.50000000E+00  1.20000000E+00  1.20000000E+00  1.50000000E+00  1.20000000E+00
  1.20000000E+00  1.50000000E+00  1.20000000E+00  1.20000000E+00  1.50000000E+00
  1.20000000E+00  1.20000000E+00  1.50000000E+00  1.20000000E+00  1.20000000E+00
  1.50000000E+00  1.20000000E+00  1.20000000E+00  1.50000000E+00  1.20000000E+00
  1.20000000E+00  1.50000000E+00  1.20000000E+00  1.20000000E+00  1.50000000E+00
  1.20000000E+00  1.20000000E+00  1.50000000E+00  1.20000000E+00  1.20000000E+00
  1.50000000E+00  1.20000000E+00  1.20000000E+00  1.50000000E+00  1.20000000E+00
  1.20000000E+00  1.50000000E+00  1.20000000E+00  1.20000000E+00  1.50000000E+00
  1.20000000E+00  1.20000000E+00  1.50000000E+00  1.20000000E+00  1.20000000E+00
  1.50000000E+00  1.20000000E+00  1.20000000E+00  1.50000000E+00  1.20000000E+00
  1.20000000E+00  1.50000000E+00  1.20000000E+00  1.20000000E+00  1.50000000E+00
  1.20000000E+00  1.20000000E+00  1.50000000E+00  1.20000000E+00  1.20000000E+00
  1.50000000E+00  1.20000000E+00  1.20000000E+00  1.50000000E+00  1.20000000E+00
  1.20000000E+00  1.50000000E+00  1.20000000E+00  1.20000000E+00  1.50000000E+00
  1.20000000E+00  1.20000000E+00  1.50000000E+00  1.20000000E+00  1.20000000E+00
  1.50000000E+00  1.20000000E+00  1.20000000E+00  1.50000000E+00  1.20000000E+00
  1.20000000E+00  1.50000000E+00  1.20000000E+00  1.20000000E+00  1.50000000E+00
  1.20000000E+00  1.20000000E+00  1.50000000E+00  1.20000000E+00  1.20000000E+00
  1.50000000E+00  1.20000000E+00  1.20000000E+00  1.50000000E+00  1.20000000E+00
  1.20000000E+00  1.50000000E+00  1.20000000E+00  1.20000000E+00  1.50000000E+00
  1.20000000E+00  1.20000000E+00  1.50000000E+00  1.20000000E+00  1.20000000E+00
  1.50000000E+00  1.20000000E+00  1.20000000E+00  1.50000000E+00  1.20000000E+00
  1.20000000E+00  1.50000000E+00  1.20000000E+00  1.20000000E+00  1.50000000E+00
  1.20000000E+00  1.20000000E+00  1.50000000E+00  1.20000000E+00  1.20000000E+00
  1.50000000E+00  1.20000000E+00  1.20000000E+00  1.50000000E+00  1.20000000E+00
  1.20000000E+00  1.50000000E+00  1.20000000E+00  1.20000000E+00  1.50000000E+00
  1.20000000E+00  1.20000000E+00  1.50000000E+00  1.20000000E+00  1.20000000E+00
  1.50000000E+00  1.20000000E+00  1.20000000E+00  1.50000000E+00  1.20000000E+00
  1.20000000E+00  1.50000000E+00  1.20000000E+00  1.20000000E+00  1.50000000E+00
  1.20000000E+00  1.20000000E+00  1.50000000E+00  1.20000000E+00  1.20000000E+00
  1.50000000E+00  1.20000000E+00  1.20000000E+00  1.50000000E+00  1.20000000E+00
  1.20000000E+00  1.50000000E+00  1.20000000E+00  1.20000000E+00  1.50000000E+00
  1.20000000E+00  1.20000000E+00  1.50000000E+00  1.20000000E+00  1.20000000E+00
  1.50000000E+00  1.20000000E+00  1.20000000E+00  1.50000000E+00  1.20000000E+00
  1.20000000E+00  1.50000000E+00  1.20000000E+00  1.20000000E+00  1.50000000E+00
  1.20000000E+00  1.20000000E+00  1.50000000E+00  1.20000000E+00  1.20000000E+00
  1.50000000E+00  1.20000000E+00  1.20000000E+00  1.50000000E+00  1.20000000E+00
  1.20000000E+00  1.50000000E+00  1.20000000E+00  1.20000000E+00  1.50000000E+00
  1.20000000E+00  1.20000000E+00  1.50000000E+00  1.20000000E+00  1.20000000E+00
  1.50000000E+00  1.20000000E+00  1.20000000E+00  1.50000000E+00  1.20000000E+00
  1.20000000E+00  1.50000000E+00  1.20000000E+00  1.20000000E+00  1.50000000E+00
  1.20000000E+00  1.20000000E+00  1.50000000E+00  1.20000000E+00  1.20000000E+00
  1.50000000E+00  1.20000000E+00  1.20000000E+00  1.50000000E+00  1.20000000E+00
  1.20000000E+00  1.50000000E+00  1.20000000E+00  1.20000000E+00  1.50000000E+00
  1.20000000E+00  1.20000000E+00  1.50000000E+00  1.20000000E+00  1.20000000E+00
  1.50000000E+00  1.20000000E+00  1.20000000E+00  1.50000000E+00  1.20000000E+00
  1.20000000E+00  1.50000000E+00  1.20000000E+00  1.20000000E+00  1.50000000E+00
  1.20000000E+00  1.20000000E+00  1.50000000E+00  1.20000000E+00  1.20000000E+00
  1.50000000E+00  1.20000000E+00  1.20000000E+00  1.50000000E+00  1.20000000E+00
  1.20000000E+00  1.50000000E+00  1.20000000E+00  1.20000000E+00  1.50000000E+00
  1.20000000E+00  1.20000000E+00  1.50000000E+00  1.20000000E+00  1.20000000E+00
  1.50000000E+00  1.20000000E+00  1.20000000E+00  1.50000000E+00  1.20000000E+00
  1.20000000E+00  1.50000000E+00  1.20000000E+00  1.20000000E+00  1.50000000E+00
  1.20000000E+00  1.20000000E+00  1.50000000E+00  1.20000000E+00  1.20000000E+00
  1.50000000E+00  1.20000000E+00  1.20000000E+00  1.50000000E+00  1.20000000E+00
  1.20000000E+00  1.50000000E+00  1.20000000E+00  1.20000000E+00  1.50000000E+00
  1.20000000E+00  1.20000000E+00  1.50000000E+00  1.20000000E+00  1.20000000E+00
  1.50000000E+00  1.20000000E+00  1.20000000E+00  1.50000000E+00  1.20000000E+00
  1.20000000E+00  1.50000000E+00  1.20000000E+00  1.20000000E+00  1.50000000E+00
  1.20000000E+00  1.20000000E+00  1.50000000E+00  1.20000000E+00  1.20000000E+00
  1.50000000E+00  1.20000000E+00  1.20000000E+00  1.50000000E+00  1.20000000E+00
  1.20000000E+00  1.50000000E+00  1.20000000E+00  1.20000000E+00  1.50000000E+00
  1.20000000E+00  1.20000000E+00  1.50000000E+00  1.20000000E+00  1.20000000E+00
  1.50000000E+00  1.20000000E+00  1.20000000E+00  1.50000000E+00  1.20000000E+00
  1.20000000E+00  1.50000000E+00  1.20000000E+00  1.20000000E+00  1.50000000E+00
  1.20000000E+00  1.20000000E+00  1.50000000E+00  1.20000000E+00  1.20000000E+00
  1.50000000E+00  1.20000000E+00  1.20000000E+00  1.50000000E+00  1.20000000E+00
  1.20000000E+00  1.50000000E+00  1.20000000E+00  1.20000000E+00  1.50000000E+00
  1.20000000E+00  1.20000000E+00  1.50000000E+00  1.20000000E+00  1.20000000E+00
  1.50000000E+00  1.20000000E+00  1.20000000E+00  1.50000000E+00  1.20000000E+00
  1.20000000E+00  1.50000000E+00  1.20000000E+00  1.20000000E+00  1.50000000E+00
  1.20000000E+00  1.20000000E+00  1.50000000E+00  1.20000000E+00  1.20000000E+00
  1.50000000E+00  1.20000000E+00  1.20000000E+00  1.50000000E+00  1.20000000E+00
  1.20000000E+00  1.50000000E+00  1.20000000E+00  1.20000000E+00  1.50000000E+00
  1.20000000E+00  1.20000000E+00  1.50000000E+00  1.20000000E+00  1.20000000E+00
  1.50000000E+00  1.20000000E+00  1.20000000E+00  1.50000000E+00  1.20000000E+00
  1.20000000E+00  1.50000000E+00  1.20000000E+00  1.20000000E+00  1.50000000E+00
  1.20000000E+00  1.20000000E+00  1.50000000E+00  1.20000000E+00  1.20000000E+00
  1.50000000E+00  1.20000000E+00  1.20000000E+00  1.50000000E+00  1.20000000E+00
  1.20000000E+00  1.50000000E+00  1.20000000E+00  1.20000000E+00  1.50000000E+00
  1.20000000E+00  1.20000000E+00  1.50000000E+00  1.20000000E+00  1.20000000E+00
  1.50000000E+00  1.20000000E+00  1.20000000E+00  1.50000000E+00  1.20000000E+00
  1.20000000E+00  1.50000000E+00  1.20000000E+00  1.20000000E+00  1.50000000E+00
  1.20000000E+00  1.20000000E+00  1.50000000E+00  1.20000000E+00  1.20000000E+00
  1.50000000E+00  1.20000000E+00  1.20000000E+00  1.50000000E+00  1.20000000E+00
  1.20000000E+00  1.50000000E+00  1.20000000E+00  1.20000000E+00  1.50000000E+00
  1.20000000E+00  1.20000000E+00  1.50000000E+00  1.20000000E+00  1.20000000E+00
  1.50000000E+00  1.20000000E+00  1.20000000E+00  1.50000000E+00  1.20000000E+00
  1.20000000E+00  1.50000000E+00  1.20000000E+00  1.20000000E+00  1.50000000E+00
  1.20000000E+00  1.20000000E+00  1.50000000E+00  1.20000000E+00  1.20000000E+00
  1.50000000E+00  1.20000000E+00  1.20000000E+00  1.50000000E+00  1.20000000E+00
  1.20000000E+00  1.50000000E+00  1.20000000E+00  1.20000000E+00  1.50000000E+00
  1.20000000E+00  1.20000000E+00  1.50000000E+00  1.20000000E+00  1.20000000E+00
  1.50000000E+00  1.20000000E+00  1.20000000E+00  1.50000000E+00  1.20000000E+00
  1.20000000E+00  1.50000000E+00  1.20000000E+00  1.20000000E+00  1.50000000E+00
  1.20000000E+00  1.20000000E+00  1.50000000E+00  1.20000000E+00  1.20000000E+00
  1.50000000E+00  1.20000000E+00  1.20000000E+00  1.50000000E+00  1.20000000E+00
  1.20000000E+00  1.50000000E+00  1.20000000E+00  1.20000000E+00  1.50000000E+00
  1.20000000E+00  1.20000000E+00  1.50000000E+00  1.20000000E+00  1.20000000E+00
  1.50000000E+00  1.20000000E+00  1.20000000E+00  1.50000000E+00  1.20000000E+00
  1.20000000E+00  1.50000000E+00  1.20000000E+00  1.20000000E+00  1.50000000E+00
  1.20000000E+00  1.20000000E+00  1.50000000E+00  1.20000000E+00  1.20000000E+00
  1.50000000E+00  1.20000000E+00  1.20000000E+00  1.50000000E+00  1.20000000E+00
  1.20000000E+00  1.50000000E+00  1.20000000E+00  1.20000000E+00  1.50000000E+00
  1.20000000E+00  1.20000000E+00  1.50000000E+00  1.20000000E+00  1.20000000E+00
  1.50000000E+00  1.20000000E+00  1.20000000E+00  1.50000000E+00  1.20000000E+00
  1.20000000E+00  1.50000000E+00  1.20000000E+00  1.20000000E+00  1.50000000E+00
  1.20000000E+00  1.20000000E+00  1.50000000E+00  1.20000000E+00  1.20000000E+00
  1.50000000E+00  1.20000000E+00  1.20000000E+00  1.50000000E+00  1.20000000E+00
  1.20000000E+00  1.50000000E+00  1.20000000E+00  1.20000000E+00  1.50000000E+00
  1.20000000E+00  1.20000000E+00  1.50000000E+00  1.20000000E+00  1.20000000E+00
  1.50000000E+00  1.20000000E+00  1.20000000E+00  1.50000000E+00  1.20000000E+00
  1.20000000E+00  1.50000000E+00  1.20000000E+00  1.20000000E+00  1.50000000E+00
  1.20000000E+00  1.20000000E+00  1.50000000E+00  1.20000000E+00  1.20000000E+00
  1.50000000E+00  1.20000000E+00  1.20000000E+00  1.50000000E+00  1.20000000E+00
  1.20000000E+00  1.50000000E+00  1.20000000E+00  1.20000000E+00  1.50000000E+00
  1.20000000E+00  1.20000000E+00  1.50000000E+00  1.20000000E+00  1.20000000E+00
  1.50000000E+00  1.20000000E+00  1.20000000E+00  1.50000000E+00  1.20000000E+00
  1.20000000E+00  1.50000000E+00  1.20000000E+00  1.20000000E+00  1.50000000E+00
  1.20000000E+00  1.20000000E+00  1.50000000E+00  1.20000000E+00  1.20000000E+00
  1.50000000E+00  1.20000000E+00  1.20000000E+00  1.50000000E+00  1.20000000E+00
  1.20000000E+00  1.50000000E+00  1.20000000E+00  1.20000000E+00  1.50000000E+00
  1.20000000E+00  1.20000000E+00  1.50000000E+00  1.20000000E+00  1.20000000E+00
  1.50000000E+00  1.20000000E+00  1.20000000E+00  1.50000000E+00  1.20000000E+00
  1.20000000E+00  1.50000000E+00  1.20000000E+00  1.20000000E+00  1.50000000E+00
  1.20000000E+00  1.20000000E+00  1.50000000E+00  1.20000000E+00  1.20000000E+00
  1.50000000E+00  1.20000000E+00  1.20000000E+00  1.50000000E+00  1.20000000E+00
  1.20000000E+00  1.50000000E+00  1.20000000E+00  1.20000000E+00  1.50000000E+00
  1.20000000E+00  1.20000000E+00  1.50000000E+00  1.20000000E+00  1.20000000E+00
  1.50000000E+00  1.20000000E+00  1.20000000E+00  1.50000000E+00  1.20000000E+00
  1.20000000E+00  1.50000000E+00  1.20000000E+00  1.20000000E+00  1.50000000E+00
  1.20000000E+00  1.20000000E+00  1.50000000E+00  1.20000000E+00  1.20000000E+00
  1.50000000E+00  1.20000000E+00  1.20000000E+00  1.50000000E+00  1.20000000E+00
  1.20000000E+00  1.50000000E+00  1.20000000E+00  1.20000000E+00  1.50000000E+00
  1.20000000E+00  1.20000000E+00  1.50000000E+00  1.20000000E+00  1.20000000E+00
  1.50000000E+00  1.20000000E+00  1.20000000E+00  1.50000000E+00  1.20000000E+00
  1.20000000E+00  1.50000000E+00  1.20000000E+00  1.20000000E+00  1.50000000E+00
  1.20000000E+00  1.20000000E+00  1.50000000E+00  1.20000000E+00  1.20000000E+00
  1.50000000E+00  1.20000000E+00  1.20000000E+00  1.50000000E+00  1.20000000E+00
  1.20000000E+00  1.50000000E+00  1.20000000E+00  1.20000000E+00  1.50000000E+00
  1.20000000E+00  1.20000000E+00  1.50000000E+00  1.20000000E+00  1.20000000E+00
  1.50000000E+00  1.20000000E+00  1.20000000E+00  1.50000000E+00  1.20000000E+00
  1.20000000E+00  1.50000000E+00  1.20000000E+00  1.20000000E+00  1.50000000E+00
  1.20000000E+00  1.20000000E+00  1.50000000E+00  1.20000000E+00  1.20000000E+00
  1.50000000E+00  1.20000000E+00  1.20000000E+00  1.50000000E+00  1.20000000E+00
  1.20000000E+00  1.50000000E+00  1.20000000E+00  1.20000000E+00  1.50000000E+00
  1.20000000E+00  1.20000000E+00  1.50000000E+00  1.20000000E+00  1.20000000E+00
  1.50000000E+00  1.20000000E+00  1.20000000E+00  1.50000000E+00  1.20000000E+00
  1.20000000E+00  1.50000000E+00  1.20000000E+00  1.20000000E+00  1.50000000E+00
  1.20000000E+00  1.20000000E+00  1.50000000E+00  1.20000000E+00  1.20000000E+00
  1.50000000E+00  1.20000000E+00  1.20000000E+00  1.50000000E+00  1.20000000E+00
  1.20000000E+00  1.50000000E+00  1.20000000E+00  1.20000000E+00  1.50000000E+00
  1.20000000E+00  1.20000000E+00  1.50000000E+00  1.20000000E+00  1.20000000E+00
  1.50000000E+00  1.20000000E+00  1.20000000E+00  1.50000000E+00  1.20000000E+00
  1.20000000E+00  1.50000000E+00  1.20000000E+00  1.20000000E+00  1.50000000E+00
  1.20000000E+00  1.20000000E+00  1.50000000E+00  1.20000000E+00  1.20000000E+00
  1.50000000E+00  1.20000000E+00  1.20000000E+00  1.50000000E+00  1.20000000E+00
  1.20000000E+00  1.50000000E+00  1.20000000E+00  1.20000000E+00  1.50000000E+00
  1.20000000E+00  1.20000000E+00  1.50000000E+00  1.20000000E+00  1.20000000E+00
  1.50000000E+00  1.20000000E+00  1.20000000E+00  1.50000000E+00  1.20000000E+00
  1.20000000E+00  1.50000000E+00  1.20000000E+00  1.20000000E+00  1.50000000E+00
  1.20000000E+00  1.20000000E+00  1.50000000E+00  1.20000000E+00  1.20000000E+00
  1.50000000E+00  1.20000000E+00  1.20000000E+00  1.50000000E+00  1.20000000E+00
  1.20000000E+00  1.50000000E+00  1.20000000E+00  1.20000000E+00  1.50000000E+00
  1.20000000E+00  1.20000000E+00  1.50000000E+00  1.20000000E+00  1.20000000E+00
  1.50000000E+00  1.20000000E+00  1.20000000E+00  1.50000000E+00  1.20000000E+00
  1.20000000E+00  1.50000000E+00  1.20000000E+00  1.20000000E+00  1.50000000E+00
  1.20000000E+00  1.20000000E+00  1.50000000E+00  1.20000000E+00  1.20000000E+00
  1.50000000E+00  1.20000000E+00  1.20000000E+00  1.50000000E+00  1.20000000E+00
  1.20000000E+00  1.50000000E+00  1.20000000E+00  1.20000000E+00  1.50000000E+00
  1.20000000E+00  1.20000000E+00  1.50000000E+00  1.20000000E+00  1.20000000E+00
  1.50000000E+00  1.20000000E+00  1.20000000E+00  1.50000000E+00  1.20000000E+00
  1.20000000E+00  1.50000000E+00  1.20000000E+00  1.20000000E+00  1.50000000E+00
  1.20000000E+00  1.20000000E+00  1.50000000E+00  1.20000000E+00  1.20000000E+00
  1.50000000E+00  1.20000000E+00  1.20000000E+00  1.50000000E+00  1.20000000E+00
  1.20000000E+00  1.50000000E+00  1.20000000E+00  1.20000000E+00  1.50000000E+00
  1.20000000E+00  1.20000000E+00  1.50000000E+00  1.20000000E+00  1.20000000E+00
  1.50000000E+00  1.20000000E+00  1.20000000E+00  1.50000000E+00  1.20000000E+00
  1.20000000E+00  1.50000000E+00  1.20000000E+00  1.20000000E+00  1.50000000E+00
  1.20000000E+00  1.20000000E+00  1.50000000E+00  1.20000000E+00  1.20000000E+00
  1.50000000E+00  1.20000000E+00  1.20000000E+00  1.50000000E+00  1.20000000E+00
  1.20000000E+00  1.50000000E+00  1.20000000E+00  1.20000000E+00  1.50000000E+00
  1.20000000E+00  1.20000000E+00  1.50000000E+00  1.20000000E+00  1.20000000E+00
  1.50000000E+00  1.20000000E+00  1.20000000E+00  1.50000000E+00  1.20000000E+00
  1.20000000E+00  1.50000000E+00  1.20000000E+00  1.20000000E+00  1.50000000E+00
  1.20000000E+00  1.20000000E+00  1.50000000E+00  1.20000000E+00  1.20000000E+00
  1.50000000E+00  1.20000000E+00  1.20000000E+00  1.50000000E+00  1.20000000E+00
  1.20000000E+00  1.50000000E+00  1.20000000E+00  1.20000000E+00  1.50000000E+00
  1.20000000E+00  1.20000000E+00  1.50000000E+00  1.20000000E+00  1.20000000E+00
  1.50000000E+00  1.20000000E+00  1.20000000E+00  1.50000000E+00  1.20000000E+00
  1.20000000E+00  1.50000000E+00  1.20000000E+00  1.20000000E+00  1.50000000E+00
  1.20000000E+00  1.20000000E+00  1.50000000E+00  1.20000000E+00  1.20000000E+00
  1.50000000E+00  1.20000000E+00  1.20000000E+00  1.50000000E+00  1.20000000E+00
  1.20000000E+00  1.50000000E+00  1.20000000E+00  1.20000000E+00  1.50000000E+00
  1.20000000E+00  1.20000000E+00  1.50000000E+00  1.20000000E+00  1.20000000E+00
  1.50000000E+00  1.20000000E+00  1.20000000E+00  1.50000000E+00  1.20000000E+00
  1.20000000E+00  1.50000000E+00  1.20000000E+00  1.20000000E+00  1.50000000E+00
  1.20000000E+00  1.20000000E+00  1.50000000E+00  1.20000000E+00  1.20000000E+00
  1.50000000E+00  1.20000000E+00  1.20000000E+00  1.50000000E+00  1.20000000E+00
  1.20000000E+00  1.50000000E+00  1.20000000E+00  1.20000000E+00  1.50000000E+00
  1.20000000E+00  1.20000000E+00  1.50000000E+00  1.20000000E+00  1.20000000E+00
  1.50000000E+00  1.20000000E+00  1.20000000E+00  1.50000000E+00  1.20000000E+00
  1.20000000E+00  1.50000000E+00  1.20000000E+00  1.20000000E+00  1.50000000E+00
  1.20000000E+00  1.20000000E+00  1.50000000E+00  1.20000000E+00  1.20000000E+00
  1.50000000E+00  1.20000000E+00  1.20000000E+00  1.50000000E+00  1.20000000E+00
  1.20000000E+00  1.50000000E+00  1.20000000E+00  1.20000000E+00  1.50000000E+00
  1.20000000E+00  1.20000000E+00  1.50000000E+00  1.20000000E+00  1.20000000E+00
  1.50000000E+00  1.20000000E+00  1.20000000E+00  1.50000000E+00  1.20000000E+00
  1.20000000E+00  1.50000000E+00  1.20000000E+00  1.20000000E+00  1.50000000E+00
  1.20000000E+00  1.20000000E+00  1.50000000E+00  1.20000000E+00  1.20000000E+00
  1.50000000E+00  1.20000000E+00  1.20000000E+00  1.50000000E+00  1.20000000E+00
  1.20000000E+00  1.50000000E+00  1.20000000E+00  1.20000000E+00  1.50000000E+00
  1.20000000E+00  1.20000000E+00  1.50000000E+00  1.20000000E+00  1.20000000E+00
  1.50000000E+00  1.20000000E+00  1.20000000E+00  1.50000000E+00  1.20000000E+00
  1.20000000E+00  1.50000000E+00  1.20000000E+00  1.20000000E+00  1.50000000E+00
  1.20000000E+00  1.20000000E+00  1.50000000E+00  1.20000000E+00  1.20000000E+00
  1.50000000E+00  1.20000000E+00  1.20000000E+00  1.50000000E+00  1.20000000E+00
  1.20000000E+00  1.50000000E+00  1.20000000E+00  1.20000000E+00  1.50000000E+00
  1.20000000E+00  1.20000000E+00  1.50000000E+00  1.20000000E+00  1.20000000E+00
  1.50000000E+00  1.20000000E+00  1.20000000E+00  1.50000000E+00  1.20000000E+00
  1.20000000E+00  1.50000000E+00  1.20000000E+00  1.20000000E+00  1.50000000E+00
  1.20000000E+00  1.20000000E+00  1.50000000E+00  1.20000000E+00  1.20000000E+00
  1.50000000E+00  1.20000000E+00  1.20000000E+00  1.50000000E+00  1.20000000E+00
  1.20000000E+00  1.50000000E+00  1.20000000E+00  1.20000000E+00  1.50000000E+00
  1.20000000E+00  1.20000000E+00  1.50000000E+00  1.20000000E+00  1.20000000E+00
  1.50000000E+00  1.20000000E+00  1.20000000E+00  1.50000000E+00  1.20000000E+00
  1.20000000E+00  1.50000000E+00  1.20000000E+00  1.20000000E+00  1.50000000E+00
  1.20000000E+00  1.20000000E+00  1.50000000E+00  1.20000000E+00  1.20000000E+00
  1.50000000E+00  1.20000000E+00  1.20000000E+00  1.50000000E+00  1.20000000E+00
  1.20000000E+00  1.50000000E+00  1.20000000E+00  1.20000000E+00  1.50000000E+00
  1.20000000E+00  1.20000000E+00  1.50000000E+00  1.20000000E+00  1.20000000E+00
  1.50000000E+00  1.20000000E+00  1.20000000E+00  1.50000000E+00  1.20000000E+00
  1.20000000E+00  1.50000000E+00  1.20000000E+00  1.20000000E+00  1.50000000E+00
  1.20000000E+00  1.20000000E+00  1.50000000E+00  1.20000000E+00  1.20000000E+00
  1.50000000E+00  1.20000000E+00  1.20000000E+00  1.50000000E+00  1.20000000E+00
  1.20000000E+00  1.50000000E+00  1.20000000E+00  1.20000000E+00  1.50000000E+00
  1.20000000E+00  1.20000000E+00  1.50000000E+00  1.20000000E+00  1.20000000E+00
  1.50000000E+00  1.20000000E+00  1.20000000E+00  1.50000000E+00  1.20000000E+00
  1.20000000E+00  1.50000000E+00  1.20000000E+00  1.20000000E+00  1.50000000E+00
  1.20000000E+00  1.20000000E+00  1.50000000E+00  1.20000000E+00  1.20000000E+00
  1.50000000E+00  1.20000000E+00  1.20000000E+00  1.50000000E+00  1.20000000E+00
  1.20000000E+00  1.50000000E+00  1.20000000E+00  1.20000000E+00  1.50000000E+00
  1.20000000E+00  1.20000000E+00  1.50000000E+00  1.20000000E+00  1.20000000E+00
  1.50000000E+00  1.20000000E+00  1.20000000E+00  1.50000000E+00  1.20000000E+00
  1.20000000E+00  1.50000000E+00  1.20000000E+00  1.20000000E+00  1.50000000E+00
  1.20000000E+00  1.20000000E+00  1.50000000E+00  1.20000000E+00  1.20000000E+00
  1.50000000E+00  1.20000000E+00  1.20000000E+00  1.50000000E+00  1.20000000E+00
  1.20000000E+00  1.50000000E+00  1.20000000E+00  1.20000000E+00  1.50000000E+00
  1.20000000E+00  1.20000000E+00  1.50000000E+00  1.20000000E+00  1.20000000E+00
  1.50000000E+00  1.20000000E+00  1.20000000E+00  1.50000000E+00  1.20000000E+00
  1.20000000E+00  1.50000000E+00  1.20000000E+00  1.20000000E+00  1.50000000E+00
  1.20000000E+00  1.20000000E+00  1.50000000E+00  1.20000000E+00  1.20000000E+00
  1.50000000E+00  1.20000000E+00  1.20000000E+00  1.50000000E+00  1.20000000E+00
  1.20000000E+00  1.50000000E+00  1.20000000E+00  1.20000000E+00  1.50000000E+00
  1.20000000E+00  1.20000000E+00  1.50000000E+00  1.20000000E+00  1.20000000E+00
  1.50000000E+00  1.20000000E+00  1.20000000E+00  1.50000000E+00  1.20000000E+00
  1.20000000E+00  1.50000000E+00  1.20000000E+00  1.20000000E+00  1.50000000E+00
  1.20000000E+00  1.20000000E+00  1.50000000E+00  1.20000000E+00  1.20000000E+00
  1.50000000E+00  1.20000000E+00  1.20000000E+00  1.50000000E+00  1.20000000E+00
  1.20000000E+00  1.50000000E+00  1.20000000E+00  1.20000000E+00  1.50000000E+00
  1.20000000E+00  1.20000000E+00  1.50000000E+00  1.20000000E+00  1.20000000E+00
  1.50000000E+00  1.20000000E+00  1.20000000E+00  1.50000000E+00  1.20000000E+00
  1.20000000E+00  1.50000000E+00  1.20000000E+00  1.20000000E+00  1.50000000E+00
  1.20000000E+00  1.20000000E+00  1.50000000E+00  1.20000000E+00  1.20000000E+00
  1.50000000E+00  1.20000000E+00  1.20000000E+00  1.50000000E+00  1.20000000E+00
  1.20000000E+00  1.50000000E+00  1.20000000E+00  1.20000000E+00  1.50000000E+00
  1.20000000E+00  1.20000000E+00  1.50000000E+00  1.20000000E+00  1.20000000E+00
  1.50000000E+00  1.20000000E+00  1.20000000E+00  1.50000000E+00  1.20000000E+00
  1.20000000E+00  1.50000000E+00  1.20000000E+00  1.20000000E+00  1.50000000E+00
  1.20000000E+00  1.20000000E+00  1.50000000E+00  1.20000000E+00  1.20000000E+00
  1.50000000E+00  1.20000000E+00  1.20000000E+00  1.50000000E+00  1.20000000E+00
  1.20000000E+00  1.50000000E+00  1.20000000E+00  1.20000000E+00  1.50000000E+00
  1.20000000E+00  1.20000000E+00  1.50000000E+00  1.20000000E+00  1.20000000E+00
  1.50000000E+00  1.20000000E+00  1.20000000E+00  1.50000000E+00  1.20000000E+00
  1.20000000E+00  1.50000000E+00  1.20000000E+00  1.20000000E+00  1.50000000E+00
  1.20000000E+00  1.20000000E+00  1.50000000E+00  1.20000000E+00  1.20000000E+00
  1.50000000E+00  1.20000000E+00  1.20000000E+00  1.50000000E+00  1.20000000E+00
  1.20000000E+00  1.50000000E+00  1.20000000E+00  1.20000000E+00  1.50000000E+00
  1.20000000E+00  1.20000000E+00  1.50000000E+00  1.20000000E+00  1.20000000E+00
  1.50000000E+00  1.20000000E+00  1.20000000E+00  1.50000000E+00  1.20000000E+00
  1.20000000E+00  1.50000000E+00  1.20000000E+00  1.20000000E+00  1.50000000E+00
  1.20000000E+00  1.20000000E+00  1.50000000E+00  1.20000000E+00  1.20000000E+00
  1.50000000E+00  1.20000000E+00  1.20000000E+00  1.50000000E+00  1.20000000E+00
  1.20000000E+00  1.50000000E+00  1.20000000E+00  1.20000000E+00  1.50000000E+00
  1.20000000E+00  1.20000000E+00  1.50000000E+00  1.20000000E+00  1.20000000E+00
  1.50000000E+00  1.20000000E+00  1.20000000E+00  1.50000000E+00  1.20000000E+00
  1.20000000E+00  1.50000000E+00  1.20000000E+00  1.20000000E+00  1.50000000E+00
  1.20000000E+00  1.20000000E+00  1.50000000E+00  1.20000000E+00  1.20000000E+00
  1.50000000E+00  1.20000000E+00  1.20000000E+00  1.50000000E+00  1.20000000E+00
  1.20000000E+00  1.50000000E+00  1.20000000E+00  1.20000000E+00  1.50000000E+00
  1.20000000E+00  1.20000000E+00  1.50000000E+00  1.20000000E+00  1.20000000E+00
  1.50000000E+00  1.20000000E+00  1.20000000E+00  1.50000000E+00  1.20000000E+00
  1.20000000E+00  1.50000000E+00  1.20000000E+00  1.20000000E+00  1.50000000E+00
  1.20000000E+00  1.20000000E+00  1.50000000E+00  1.20000000E+00  1.20000000E+00
  1.50000000E+00  1.20000000E+00  1.20000000E+00  1.50000000E+00  1.20000000E+00
  1.20000000E+00  1.50000000E+00  1.20000000E+00  1.20000000E+00  1.50000000E+00
  1.20000000E+00  1.20000000E+00  1.50000000E+00  1.20000000E+00  1.20000000E+00
  1.50000000E+00  1.20000000E+00  1.20000000E+00  1.50000000E+00  1.20000000E+00
  1.20000000E+00  1.50000000E+00  1.20000000E+00  1.20000000E+00  1.50000000E+00
  1.20000000E+00  1.20000000E+00  1.50000000E+00  1.20000000E+00  1.20000000E+00
  1.50000000E+00  1.20000000E+00  1.20000000E+00  1.50000000E+00  1.20000000E+00
  1.20000000E+00  1.50000000E+00  1.20000000E+00  1.20000000E+00  1.50000000E+00
  1.20000000E+00  1.20000000E+00  1.50000000E+00  1.20000000E+00  1.20000000E+00
  1.50000000E+00  1.20000000E+00  1.20000000E+00  1.50000000E+00  1.20000000E+00
  1.20000000E+00  1.50000000E+00  1.20000000E+00  1.20000000E+00  1.50000000E+00
  1.20000000E+00  1.20000000E+00  1.50000000E+00  1.20000000E+00  1.20000000E+00
  1.50000000E+00  1.20000000E+00  1.20000000E+00  1.50000000E+00  1.20000000E+00
  1.20000000E+00  1.50000000E+00  1.20000000E+00  1.20000000E+00  1.50000000E+00
  1.20000000E+00  1.20000000E+00  1.50000000E+00  1.20000000E+00  1.20000000E+00
  1.50000000E+00  1.20000000E+00  1.20000000E+00  1.50000000E+00  1.20000000E+00
  1.20000000E+00  1.50000000E+00  1.20000000E+00  1.20000000E+00  1.50000000E+00
  1.20000000E+00  1.20000000E+00  1.50000000E+00  1.20000000E+00  1.20000000E+00
  1.50000000E+00  1.20000000E+00  1.20000000E+00  1.50000000E+00  1.20000000E+00
  1.20000000E+00  1.50000000E+00  1.20000000E+00  1.20000000E+00  1.50000000E+00
  1.20000000E+00  1.20000000E+00  1.50000000E+00  1.20000000E+00  1.20000000E+00
  1.50000000E+00  1.20000000E+00  1.20000000E+00  1.50000000E+00  1.20000000E+00
  1.20000000E+00  1.50000000E+00  1.20000000E+00  1.20000000E+00  1.50000000E+00
  1.20000000E+00  1.20000000E+00  1.50000000E+00  1.20000000E+00  1.20000000E+00
  1.50000000E+00  1.20000000E+00  1.20000000E+00  1.50000000E+00  1.20000000E+00
  1.20000000E+00  1.50000000E+00  1.20000000E+00  1.20000000E+00  1.50000000E+00
  1.20000000E+00  1.20000000E+00  1.50000000E+00  1.20000000E+00  1.20000000E+00
  1.50000000E+00  1.20000000E+00  1.20000000E+00  1.50000000E+00  1.20000000E+00
  1.20000000E+00  1.50000000E+00  1.20000000E+00  1.20000000E+00  1.50000000E+00
  1.20000000E+00  1.20000000E+00  1.50000000E+00  1.20000000E+00  1.20000000E+00
  1.50000000E+00  1.20000000E+00  1.20000000E+00  1.50000000E+00  1.20000000E+00
  1.20000000E+00  1.50000000E+00  1.20000000E+00  1.20000000E+00  1.50000000E+00
  1.20000000E+00  1.20000000E+00  1.50000000E+00  1.20000000E+00  1.20000000E+00
  1.50000000E+00  1.20000000E+00  1.20000000E+00  1.50000000E+00  1.20000000E+00
  1.20000000E+00  1.50000000E+00  1.20000000E+00  1.20000000E+00  1.50000000E+00
  1.20000000E+00  1.20000000E+00  1.50000000E+00  1.20000000E+00  1.20000000E+00
  1.50000000E+00  1.20000000E+00  1.20000000E+00  1.50000000E+00  1.20000000E+00
  1.20000000E+00  1.50000000E+00  1.20000000E+00  1.20000000E+00  1.50000000E+00
  1.20000000E+00  1.20000000E+00  1.50000000E+00  1.20000000E+00  1.20000000E+00
  1.50000000E+00  1.20000000E+00  1.20000000E+00  1.50000000E+00  1.20000000E+00
  1.20000000E+00  1.50000000E+00  1.20000000E+00  1.20000000E+00  1.50000000E+00
  1.20000000E+00  1.20000000E+00  1.50000000E+00  1.20000000E+00  1.20000000E+00
  1.50000000E+00  1.20000000E+00  1.20000000E+00  1.50000000E+00  1.20000000E+00
  1.20000000E+00  1.50000000E+00  1.20000000E+00  1.20000000E+00  1.50000000E+00
  1.20000000E+00  1.20000000E+00  1.50000000E+00  1.20000000E+00  1.20000000E+00
  1.50000000E+00  1.20000000E+00  1.20000000E+00  1.50000000E+00  1.20000000E+00
  1.20000000E+00  1.50000000E+00  1.20000000E+00  1.20000000E+00  1.50000000E+00
  1.20000000E+00  1.20000000E+00  1.50000000E+00  1.20000000E+00  1.20000000E+00
  1.50000000E+00  1.20000000E+00  1.20000000E+00  1.50000000E+00  1.20000000E+00
  1.20000000E+00  1.50000000E+00  1.20000000E+00  1.20000000E+00  1.50000000E+00
  1.20000000E+00  1.20000000E+00  1.50000000E+00  1.20000000E+00  1.20000000E+00
  1.50000000E+00  1.20000000E+00  1.20000000E+00  1.50000000E+00  1.20000000E+00
  1.20000000E+00  1.50000000E+00  1.20000000E+00  1.20000000E+00  1.50000000E+00
  1.20000000E+00  1.20000000E+00  1.50000000E+00  1.20000000E+00  1.20000000E+00
  1.50000000E+00  1.20000000E+00  1.20000000E+00  1.50000000E+00  1.20000000E+00
  1.20000000E+00  1.50000000E+00  1.20000000E+00  1.20000000E+00  1.50000000E+00
  1.20000000E+00  1.20000000E+00  1.50000000E+00  1.20000000E+00  1.20000000E+00
  1.50000000E+00  1.20000000E+00  1.20000000E+00  1.50000000E+00  1.20000000E+00
  1.20000000E+00  1.50000000E+00  1.20000000E+00  1.20000000E+00  1.50000000E+00
  1.20000000E+00  1.20000000E+00  1.50000000E+00  1.20000000E+00  1.20000000E+00
  1.50000000E+00  1.20000000E+00  1.20000000E+00  1.50000000E+00  1.20000000E+00
  1.20000000E+00  1.50000000E+00  1.20000000E+00  1.20000000E+00  1.50000000E+00
  1.20000000E+00  1.20000000E+00  1.50000000E+00  1.20000000E+00  1.20000000E+00
  1.50000000E+00  1.20000000E+00  1.20000000E+00  1.50000000E+00  1.20000000E+00
  1.20000000E+00  1.50000000E+00  1.20000000E+00  1.20000000E+00  1.50000000E+00
  1.20000000E+00  1.20000000E+00  1.50000000E+00  1.20000000E+00  1.20000000E+00
  1.50000000E+00  1.20000000E+00  1.20000000E+00  1.50000000E+00  1.20000000E+00
  1.20000000E+00  1.50000000E+00  1.20000000E+00  1.20000000E+00  1.50000000E+00
  1.20000000E+00  1.20000000E+00  1.50000000E+00  1.20000000E+00  1.20000000E+00
  1.50000000E+00  1.20000000E+00  1.20000000E+00  1.50000000E+00  1.20000000E+00
  1.20000000E+00  1.50000000E+00  1.20000000E+00  1.20000000E+00  1.50000000E+00
  1.20000000E+00  1.20000000E+00  1.50000000E+00  1.20000000E+00  1.20000000E+00
  1.50000000E+00  1.20000000E+00  1.20000000E+00  1.50000000E+00  1.20000000E+00
  1.20000000E+00  1.50000000E+00  1.20000000E+00  1.20000000E+00  1.50000000E+00
  1.20000000E+00  1.20000000E+00  1.50000000E+00  1.20000000E+00  1.20000000E+00
  1.50000000E+00  1.20000000E+00  1.20000000E+00  1.50000000E+00  1.20000000E+00
  1.20000000E+00  1.50000000E+00  1.20000000E+00  1.20000000E+00  1.50000000E+00
  1.20000000E+00  1.20000000E+00  1.50000000E+00  1.20000000E+00  1.20000000E+00
  1.50000000E+00  1.20000000E+00  1.20000000E+00  1.50000000E+00  1.20000000E+00
  1.20000000E+00  1.50000000E+00  1.20000000E+00  1.20000000E+00  1.50000000E+00
  1.20000000E+00  1.20000000E+00  1.50000000E+00  1.20000000E+00  1.20000000E+00
  1.50000000E+00  1.20000000E+00  1.20000000E+00  1.50000000E+00  1.20000000E+00
  1.20000000E+00  1.50000000E+00  1.20000000E+00  1.20000000E+00  1.50000000E+00
  1.20000000E+00  1.20000000E+00  1.50000000E+00  1.20000000E+00  1.20000000E+00
  1.50000000E+00  1.20000000E+00  1.20000000E+00  1.50000000E+00  1.20000000E+00
  1.20000000E+00  1.50000000E+00  1.20000000E+00  1.20000000E+00  1.50000000E+00
  1.20000000E+00  1.20000000E+00  1.50000000E+00  1.20000000E+00  1.20000000E+00
  1.50000000E+00  1.20000000E+00  1.20000000E+00  1.50000000E+00  1.20000000E+00
  1.20000000E+00  1.50000000E+00  1.20000000E+00  1.20000000E+00  1.50000000E+00
  1.20000000E+00  1.20000000E+00  1.50000000E+00  1.20000000E+00  1.20000000E+00
  1.50000000E+00  1.20000000E+00  1.20000000E+00  1.50000000E+00  1.20000000E+00
  1.20000000E+00  1.50000000E+00  1.20000000E+00  1.20000000E+00  1.50000000E+00
  1.20000000E+00  1.20000000E+00  1.50000000E+00  1.20000000E+00  1.20000000E+00
  1.50000000E+00  1.20000000E+00  1.20000000E+00  1.50000000E+00  1.20000000E+00
  1.20000000E+00  1.50000000E+00  1.20000000E+00  1.20000000E+00  1.50000000E+00
  1.20000000E+00  1.20000000E+00  1.50000000E+00  1.20000000E+00  1.20000000E+00
  1.50000000E+00  1.20000000E+00  1.20000000E+00  1.50000000E+00  1.20000000E+00
  1.20000000E+00  1.50000000E+00  1.20000000E+00  1.20000000E+00  1.50000000E+00
  1.20000000E+00  1.20000000E+00  1.50000000E+00  1.20000000E+00  1.20000000E+00
  1.50000000E+00  1.20000000E+00  1.20000000E+00  1.50000000E+00  1.20000000E+00
  1.20000000E+00  1.50000000E+00  1.20000000E+00  1.20000000E+00  1.50000000E+00
  1.20000000E+00  1.20000000E+00  1.50000000E+00  1.20000000E+00  1.20000000E+00
  1.50000000E+00  1.20000000E+00  1.20000000E+00  1.50000000E+00  1.20000000E+00
  1.20000000E+00  1.50000000E+00  1.20000000E+00  1.20000000E+00  1.50000000E+00
  1.20000000E+00  1.20000000E+00  1.50000000E+00  1.20000000E+00  1.20000000E+00
  1.50000000E+00  1.20000000E+00  1.20000000E+00  1.50000000E+00  1.20000000E+00
  1.20000000E+00  1.50000000E+00  1.20000000E+00  1.20000000E+00  1.50000000E+00
  1.20000000E+00  1.20000000E+00  1.50000000E+00  1.20000000E+00  1.20000000E+00
  1.50000000E+00  1.20000000E+00  1.20000000E+00  1.50000000E+00  1.20000000E+00
  1.20000000E+00  1.50000000E+00  1.20000000E+00  1.20000000E+00  1.50000000E+00
  1.20000000E+00  1.20000000E+00  1.50000000E+00  1.20000000E+00  1.20000000E+00
  1.50000000E+00  1.20000000E+00  1.20000000E+00  1.50000000E+00  1.20000000E+00
  1.20000000E+00  1.50000000E+00  1.20000000E+00  1.20000000E+00  1.50000000E+00
  1.20000000E+00  1.20000000E+00  1.50000000E+00  1.20000000E+00  1.20000000E+00
  1.50000000E+00  1.20000000E+00  1.20000000E+00  1.50000000E+00  1.20000000E+00
  1.20000000E+00  1.50000000E+00  1.20000000E+00  1.20000000E+00  1.50000000E+00
  1.20000000E+00  1.20000000E+00  1.50000000E+00  1.20000000E+00  1.20000000E+00
  1.50000000E+00  1.20000000E+00  1.20000000E+00  1.50000000E+00  1.20000000E+00
  1.20000000E+00  1.50000000E+00  1.20000000E+00  1.20000000E+00  1.50000000E+00
  1.20000000E+00  1.20000000E+00  1.50000000E+00  1.20000000E+00  1.20000000E+00
  1.50000000E+00  1.20000000E+00  1.20000000E+00  1.50000000E+00  1.20000000E+00
  1.20000000E+00  1.50000000E+00  1.20000000E+00  1.20000000E+00  1.50000000E+00
  1.20000000E+00  1.20000000E+00  1.50000000E+00  1.20000000E+00  1.20000000E+00
  1.50000000E+00  1.20000000E+00  1.20000000E+00  1.50000000E+00  1.20000000E+00
  1.20000000E+00  1.50000000E+00  1.20000000E+00  1.20000000E+00  1.50000000E+00
  1.20000000E+00  1.20000000E+00  1.50000000E+00  1.20000000E+00  1.20000000E+00
  1.50000000E+00  1.20000000E+00  1.20000000E+00  1.50000000E+00  1.20000000E+00
  1.20000000E+00  1.50000000E+00  1.20000000E+00  1.20000000E+00  1.50000000E+00
  1.20000000E+00  1.20000000E+00  1.50000000E+00  1.20000000E+00  1.20000000E+00
  1.50000000E+00  1.20000000E+00  1.20000000E+00  1.50000000E+00  1.20000000E+00
  1.20000000E+00  1.50000000E+00  1.20000000E+00  1.20000000E+00  1.50000000E+00
  1.20000000E+00  1.20000000E+00  1.50000000E+00  1.20000000E+00  1.20000000E+00
  1.50000000E+00  1.20000000E+00  1.20000000E+00  1.50000000E+00  1.20000000E+00
  1.20000000E+00  1.50000000E+00  1.20000000E+00  1.20000000E+00  1.50000000E+00
  1.20000000E+00  1.20000000E+00  1.50000000E+00  1.20000000E+00  1.20000000E+00
  1.50000000E+00  1.20000000E+00  1.20000000E+00  1.50000000E+00  1.20000000E+00
  1.20000000E+00  1.50000000E+00  1.20000000E+00  1.20000000E+00  1.50000000E+00
  1.20000000E+00  1.20000000E+00  1.50000000E+00  1.20000000E+00  1.20000000E+00
  1.50000000E+00  1.20000000E+00  1.20000000E+00  1.50000000E+00  1.20000000E+00
  1.20000000E+00  1.50000000E+00  1.20000000E+00  1.20000000E+00  1.50000000E+00
  1.20000000E+00  1.20000000E+00  1.50000000E+00  1.20000000E+00  1.20000000E+00
  1.50000000E+00  1.20000000E+00  1.20000000E+00  1.50000000E+00  1.20000000E+00
  1.20000000E+00  1.50000000E+00  1.20000000E+00  1.20000000E+00  1.50000000E+00
  1.20000000E+00  1.20000000E+00  1.50000000E+00  1.20000000E+00  1.20000000E+00
  1.50000000E+00  1.20000000E+00  1.20000000E+00  1.50000000E+00  1.20000000E+00
  1.20000000E+00  1.50000000E+00  1.20000000E+00  1.20000000E+00  1.50000000E+00
  1.20000000E+00  1.20000000E+00  1.50000000E+00  1.20000000E+00  1.20000000E+00
  1.50000000E+00  1.20000000E+00  1.20000000E+00  1.50000000E+00  1.20000000E+00
  1.20000000E+00  1.50000000E+00  1.20000000E+00  1.20000000E+00  1.50000000E+00
  1.20000000E+00  1.20000000E+00  1.50000000E+00  1.20000000E+00  1.20000000E+00
  1.50000000E+00  1.20000000E+00  1.20000000E+00  1.50000000E+00  1.20000000E+00
  1.20000000E+00  1.50000000E+00  1.20000000E+00  1.20000000E+00  1.50000000E+00
  1.20000000E+00  1.20000000E+00  1.50000000E+00  1.20000000E+00  1.20000000E+00
  1.50000000E+00  1.20000000E+00  1.20000000E+00  1.50000000E+00  1.20000000E+00
  1.20000000E+00  1.50000000E+00  1.20000000E+00  1.20000000E+00  1.50000000E+00
  1.20000000E+00  1.20000000E+00  1.50000000E+00  1.20000000E+00  1.20000000E+00
  1.50000000E+00  1.20000000E+00  1.20000000E+00  1.50000000E+00  1.20000000E+00
  1.20000000E+00  1.50000000E+00  1.20000000E+00  1.20000000E+00  1.50000000E+00
  1.20000000E+00  1.20000000E+00  1.50000000E+00  1.20000000E+00  1.20000000E+00
  1.50000000E+00  1.20000000E+00  1.20000000E+00  1.50000000E+00  1.20000000E+00
  1.20000000E+00  1.50000000E+00  1.20000000E+00  1.20000000E+00  1.50000000E+00
  1.20000000E+00  1.20000000E+00  1.50000000E+00  1.20000000E+00  1.20000000E+00
  1.50000000E+00  1.20000000E+00  1.20000000E+00  1.50000000E+00  1.20000000E+00
  1.20000000E+00  1.50000000E+00  1.20000000E+00  1.20000000E+00  1.50000000E+00
  1.20000000E+00  1.20000000E+00  1.50000000E+00  1.20000000E+00  1.20000000E+00
  1.50000000E+00  1.20000000E+00  1.20000000E+00  1.50000000E+00  1.20000000E+00
  1.20000000E+00  1.50000000E+00  1.20000000E+00  1.20000000E+00  1.50000000E+00
  1.20000000E+00  1.20000000E+00  1.50000000E+00  1.20000000E+00  1.20000000E+00
  1.50000000E+00  1.20000000E+00  1.20000000E+00  1.50000000E+00  1.20000000E+00
  1.20000000E+00  1.50000000E+00  1.20000000E+00  1.20000000E+00  1.50000000E+00
  1.20000000E+00  1.20000000E+00  1.50000000E+00  1.20000000E+00  1.20000000E+00
  1.50000000E+00  1.20000000E+00  1.20000000E+00  1.50000000E+00  1.20000000E+00
  1.20000000E+00  1.50000000E+00  1.20000000E+00  1.20000000E+00  1.50000000E+00
  1.20000000E+00  1.20000000E+00  1.50000000E+00  1.20000000E+00  1.20000000E+00
  1.50000000E+00  1.20000000E+00  1.20000000E+00  1.50000000E+00  1.20000000E+00
  1.20000000E+00  1.50000000E+00  1.20000000E+00  1.20000000E+00  1.50000000E+00
  1.20000000E+00  1.20000000E+00  1.50000000E+00  1.20000000E+00  1.20000000E+00
  1.50000000E+00  1.20000000E+00  1.20000000E+00  1.50000000E+00  1.20000000E+00
  1.20000000E+00  1.50000000E+00  1.20000000E+00  1.20000000E+00  1.50000000E+00
  1.20000000E+00  1.20000000E+00  1.50000000E+00  1.20000000E+00  1.20000000E+00
  1.50000000E+00  1.20000000E+00  1.20000000E+00  1.50000000E+00  1.20000000E+00
  1.20000000E+00  1.50000000E+00  1.20000000E+00  1.20000000E+00  1.50000000E+00
  1.20000000E+00  1.20000000E+00  1.50000000E+00  1.20000000E+00  1.20000000E+00
  1.50000000E+00  1.20000000E+00  1.20000000E+00  1.50000000E+00  1.20000000E+00
  1.20000000E+00  1.50000000E+00  1.20000000E+00  1.20000000E+00  1.50000000E+00
  1.20000000E+00  1.20000000E+00  1.50000000E+00  1.20000000E+00  1.20000000E+00
  1.50000000E+00  1.20000000E+00  1.20000000E+00  1.50000000E+00  1.20000000E+00
  1.20000000E+00  1.50000000E+00  1.20000000E+00  1.20000000E+00  1.50000000E+00
  1.20000000E+00  1.20000000E+00  1.50000000E+00  1.20000000E+00  1.20000000E+00
  1.50000000E+00  1.20000000E+00  1.20000000E+00  1.50000000E+00  1.20000000E+00
  1.20000000E+00  1.50000000E+00  1.20000000E+00  1.20000000E+00  1.50000000E+00
  1.20000000E+00  1.20000000E+00  1.50000000E+00  1.20000000E+00  1.20000000E+00
  1.50000000E+00  1.20000000E+00  1.20000000E+00  1.50000000E+00  1.20000000E+00
  1.20000000E+00  1.50000000E+00  1.20000000E+00  1.20000000E+00  1.50000000E+00
  1.20000000E+00  1.20000000E+00  1.50000000E+00  1.20000000E+00  1.20000000E+00
  1.50000000E+00  1.20000000E+00  1.20000000E+00  1.50000000E+00  1.20000000E+00
  1.20000000E+00  1.50000000E+00  1.20000000E+00  1.20000000E+00  1.50000000E+00
  1.20000000E+00  1.20000000E+00  1.50000000E+00  1.20000000E+00  1.20000000E+00
  1.50000000E+00  1.20000000E+00  1.20000000E+00  1.50000000E+00  1.20000000E+00
  1.20000000E+00  1.50000000E+00  1.20000000E+00  1.20000000E+00  1.50000000E+00
  1.20000000E+00  1.20000000E+00  1.50000000E+00  1.20000000E+00  1.20000000E+00
  1.50000000E+00  1.20000000E+00  1.20000000E+00  1.50000000E+00  1.20000000E+00
  1.20000000E+00  1.50000000E+00  1.20000000E+00  1.20000000E+00  1.50000000E+00
  1.20000000E+00  1.20000000E+00  1.50000000E+00  1.20000000E+00  1.20000000E+00
  1.50000000E+00  1.20000000E+00  1.20000000E+00  1.50000000E+00  1.20000000E+00
  1.20000000E+00  1.50000000E+00  1.20000000E+00  1.20000000E+00  1.50000000E+00
  1.20000000E+00  1.20000000E+00  1.50000000E+00  1.20000000E+00  1.20000000E+00
  1.50000000E+00  1.20000000E+00  1.20000000E+00  1.50000000E+00  1.20000000E+00
  1.20000000E+00  1.50000000E+00  1.20000000E+00  1.20000000E+00  1.50000000E+00
  1.20000000E+00  1.20000000E+00  1.50000000E+00  1.20000000E+00  1.20000000E+00
  1.50000000E+00  1.20000000E+00  1.20000000E+00  1.50000000E+00  1.20000000E+00
  1.20000000E+00  1.50000000E+00  1.20000000E+00  1.20000000E+00  1.50000000E+00
  1.20000000E+00  1.20000000E+00  1.50000000E+00  1.20000000E+00  1.20000000E+00
  1.50000000E+00  1.20000000E+00  1.20000000E+00  1.50000000E+00  1.20000000E+00
  1.20000000E+00  1.50000000E+00  1.20000000E+00  1.20000000E+00  1.50000000E+00
  1.20000000E+00  1.20000000E+00  1.50000000E+00  1.20000000E+00  1.20000000E+00
  1.50000000E+00  1.20000000E+00  1.20000000E+00  1.50000000E+00  1.20000000E+00
  1.20000000E+00  1.50000000E+00  1.20000000E+00  1.20000000E+00  1.50000000E+00
  1.20000000E+00  1.20000000E+00  1.50000000E+00  1.20000000E+00  1.20000000E+00
  1.50000000E+00  1.20000000E+00  1.20000000E+00  1.50000000E+00  1.20000000E+00
  1.20000000E+00  1.50000000E+00  1.20000000E+00  1.20000000E+00  1.50000000E+00
  1.20000000E+00  1.20000000E+00  1.50000000E+00  1.20000000E+00  1.20000000E+00
  1.50000000E+00  1.20000000E+00  1.20000000E+00  1.50000000E+00  1.20000000E+00
  1.20000000E+00  1.50000000E+00  1.20000000E+00  1.20000000E+00  1.50000000E+00
  1.20000000E+00  1.20000000E+00  1.50000000E+00  1.20000000E+00  1.20000000E+00
  1.50000000E+00  1.20000000E+00  1.20000000E+00  1.50000000E+00  1.20000000E+00
  1.20000000E+00  1.50000000E+00  1.20000000E+00  1.20000000E+00  1.50000000E+00
  1.20000000E+00  1.20000000E+00  1.50000000E+00  1.20000000E+00  1.20000000E+00
  1.50000000E+00  1.20000000E+00  1.20000000E+00  1.50000000E+00  1.20000000E+00
  1.20000000E+00  1.50000000E+00  1.20000000E+00  1.20000000E+00  1.50000000E+00
  1.20000000E+00  1.20000000E+00  1.50000000E+00  1.20000000E+00  1.20000000E+00
  1.50000000E+00  1.20000000E+00  1.20000000E+00  1.50000000E+00  1.20000000E+00
  1.20000000E+00  1.50000000E+00  1.20000000E+00  1.20000000E+00  1.50000000E+00
  1.20000000E+00  1.20000000E+00  1.50000000E+00  1.20000000E+00  1.20000000E+00
  1.50000000E+00  1.20000000E+00  1.20000000E+00  1.50000000E+00  1.20000000E+00
  1.20000000E+00  1.50000000E+00  1.20000000E+00  1.20000000E+00  1.50000000E+00
  1.20000000E+00  1.20000000E+00  1.50000000E+00  1.20000000E+00  1.20000000E+00
  1.50000000E+00  1.20000000E+00  1.20000000E+00  1.50000000E+00  1.20000000E+00
  1.20000000E+00  1.50000000E+00  1.20000000E+00  1.20000000E+00  1.50000000E+00
  1.20000000E+00  1.20000000E+00  1.50000000E+00  1.20000000E+00  1.20000000E+00
  1.50000000E+00  1.20000000E+00  1.20000000E+00  1.50000000E+00  1.20000000E+00
  1.20000000E+00  1.50000000E+00  1.20000000E+00  1.20000000E+00  1.50000000E+00
  1.20000000E+00  1.20000000E+00  1.50000000E+00  1.20000000E+00  1.20000000E+00
  1.50000000E+00  1.20000000E+00  1.20000000E+00  1.50000000E+00  1.20000000E+00
  1.20000000E+00  1.50000000E+00  1.20000000E+00  1.20000000E+00  1.50000000E+00
  1.20000000E+00  1.20000000E+00  1.50000000E+00  1.20000000E+00  1.20000000E+00
  1.50000000E+00  1.20000000E+00  1.20000000E+00  1.50000000E+00  1.20000000E+00
  1.20000000E+00  1.50000000E+00  1.20000000E+00  1.20000000E+00  1.50000000E+00
  1.20000000E+00  1.20000000E+00  1.50000000E+00  1.20000000E+00  1.20000000E+00
  1.50000000E+00  1.20000000E+00  1.20000000E+00  1.50000000E+00  1.20000000E+00
  1.20000000E+00  1.50000000E+00  1.20000000E+00  1.20000000E+00  1.50000000E+00
  1.20000000E+00  1.20000000E+00  1.50000000E+00  1.20000000E+00  1.20000000E+00
  1.50000000E+00  1.20000000E+00  1.20000000E+00  1.50000000E+00  1.20000000E+00
  1.20000000E+00  1.50000000E+00  1.20000000E+00  1.20000000E+00  1.50000000E+00
  1.20000000E+00  1.20000000E+00  1.50000000E+00  1.20000000E+00  1.20000000E+00
  1.50000000E+00  1.20000000E+00  1.20000000E+00  1.50000000E+00  1.20000000E+00
  1.20000000E+00  1.50000000E+00  1.20000000E+00  1.20000000E+00  1.50000000E+00
  1.20000000E+00  1.20000000E+00  1.50000000E+00  1.20000000E+00  1.20000000E+00
  1.50000000E+00  1.20000000E+00  1.20000000E+00  1.50000000E+00  1.20000000E+00
  1.20000000E+00  1.50000000E+00  1.20000000E+00  1.20000000E+00  1.50000000E+00
  1.20000000E+00  1.20000000E+00  1.50000000E+00  1.20000000E+00  1.20000000E+00
  1.50000000E+00  1.20000000E+00  1.20000000E+00  1.50000000E+00  1.20000000E+00
  1.20000000E+00  1.50000000E+00  1.20000000E+00  1.20000000E+00  1.50000000E+00
  1.20000000E+00  1.20000000E+00  1.50000000E+00  1.20000000E+00  1.20000000E+00
  1.50000000E+00  1.20000000E+00  1.20000000E+00  1.50000000E+00  1.20000000E+00
  1.20000000E+00  1.50000000E+00  1.20000000E+00  1.20000000E+00  1.50000000E+00
  1.20000000E+00  1.20000000E+00  1.50000000E+00  1.20000000E+00  1.20000000E+00
  1.50000000E+00  1.20000000E+00  1.20000000E+00  1.50000000E+00  1.20000000E+00
  1.20000000E+00  1.50000000E+00  1.20000000E+00  1.20000000E+00  1.50000000E+00
  1.20000000E+00  1.20000000E+00  1.50000000E+00  1.20000000E+00  1.20000000E+00
  1.50000000E+00  1.20000000E+00  1.20000000E+00  1.50000000E+00  1.20000000E+00
  1.20000000E+00  1.50000000E+00  1.20000000E+00  1.20000000E+00  1.50000000E+00
  1.20000000E+00  1.20000000E+00  1.50000000E+00  1.20000000E+00  1.20000000E+00
  1.50000000E+00  1.20000000E+00  1.20000000E+00  1.50000000E+00  1.20000000E+00
  1.20000000E+00  1.50000000E+00  1.20000000E+00  1.20000000E+00  1.50000000E+00
  1.20000000E+00  1.20000000E+00  1.50000000E+00  1.20000000E+00  1.20000000E+00
  1.50000000E+00  1.20000000E+00  1.20000000E+00  1.50000000E+00  1.20000000E+00
  1.20000000E+00  1.50000000E+00  1.20000000E+00  1.20000000E+00  1.50000000E+00
  1.20000000E+00  1.20000000E+00  1.50000000E+00  1.20000000E+00  1.20000000E+00
  1.50000000E+00  1.20000000E+00  1.20000000E+00  1.50000000E+00  1.20000000E+00
  1.20000000E+00  1.50000000E+00  1.20000000E+00  1.20000000E+00  1.50000000E+00
  1.20000000E+00  1.20000000E+00  1.50000000E+00  1.20000000E+00  1.20000000E+00
  1.50000000E+00  1.20000000E+00  1.20000000E+00  1.50000000E+00  1.20000000E+00
  1.20000000E+00  1.50000000E+00  1.20000000E+00  1.20000000E+00  1.50000000E+00
  1.20000000E+00  1.20000000E+00  1.50000000E+00  1.20000000E+00  1.20000000E+00
  1.50000000E+00  1.20000000E+00  1.20000000E+00  1.50000000E+00  1.20000000E+00
  1.20000000E+00  1.50000000E+00  1.20000000E+00  1.20000000E+00  1.50000000E+00
  1.20000000E+00  1.20000000E+00  1.50000000E+00  1.20000000E+00  1.20000000E+00
  1.50000000E+00  1.20000000E+00  1.20000000E+00  1.50000000E+00  1.20000000E+00
  1.20000000E+00  1.50000000E+00  1.20000000E+00  1.20000000E+00  1.50000000E+00
  1.20000000E+00  1.20000000E+00  1.50000000E+00  1.20000000E+00  1.20000000E+00
  1.50000000E+00  1.20000000E+00  1.20000000E+00  1.50000000E+00  1.20000000E+00
  1.20000000E+00  1.50000000E+00  1.20000000E+00  1.20000000E+00  1.50000000E+00
  1.20000000E+00  1.20000000E+00  1.50000000E+00  1.20000000E+00  1.20000000E+00
  1.50000000E+00  1.20000000E+00  1.20000000E+00  1.50000000E+00  1.20000000E+00
  1.20000000E+00  1.50000000E+00  1.20000000E+00  1.20000000E+00  1.50000000E+00
  1.20000000E+00  1.20000000E+00  1.50000000E+00  1.20000000E+00  1.20000000E+00
  1.50000000E+00  1.20000000E+00  1.20000000E+00  1.50000000E+00  1.20000000E+00
  1.20000000E+00  1.50000000E+00  1.20000000E+00  1.20000000E+00  1.50000000E+00
  1.20000000E+00  1.20000000E+00  1.50000000E+00  1.20000000E+00  1.20000000E+00
  1.50000000E+00  1.20000000E+00  1.20000000E+00  1.50000000E+00  1.20000000E+00
  1.20000000E+00  1.50000000E+00  1.20000000E+00  1.20000000E+00  1.50000000E+00
  1.20000000E+00  1.20000000E+00  1.50000000E+00  1.20000000E+00  1.20000000E+00
  1.50000000E+00  1.20000000E+00  1.20000000E+00  1.50000000E+00  1.20000000E+00
  1.20000000E+00  1.50000000E+00  1.20000000E+00  1.20000000E+00  1.50000000E+00
  1.20000000E+00  1.20000000E+00  1.50000000E+00  1.20000000E+00  1.20000000E+00
  1.50000000E+00  1.20000000E+00  1.20000000E+00  1.50000000E+00  1.20000000E+00
  1.20000000E+00  1.50000000E+00  1.20000000E+00  1.20000000E+00  1.50000000E+00
  1.20000000E+00  1.20000000E+00  1.50000000E+00  1.20000000E+00  1.20000000E+00
  1.50000000E+00  1.20000000E+00  1.20000000E+00  1.50000000E+00  1.20000000E+00
  1.20000000E+00  1.50000000E+00  1.20000000E+00  1.20000000E+00  1.50000000E+00
  1.20000000E+00  1.20000000E+00  1.50000000E+00  1.20000000E+00  1.20000000E+00
  1.50000000E+00  1.20000000E+00  1.20000000E+00  1.50000000E+00  1.20000000E+00
  1.20000000E+00  1.50000000E+00  1.20000000E+00  1.20000000E+00  1.50000000E+00
  1.20000000E+00  1.20000000E+00  1.50000000E+00  1.20000000E+00  1.20000000E+00
  1.50000000E+00  1.20000000E+00  1.20000000E+00  1.50000000E+00  1.20000000E+00
  1.20000000E+00  1.50000000E+00  1.20000000E+00  1.20000000E+00  1.50000000E+00
  1.20000000E+00  1.20000000E+00  1.50000000E+00  1.20000000E+00  1.20000000E+00
  1.50000000E+00  1.20000000E+00  1.20000000E+00  1.50000000E+00  1.20000000E+00
  1.20000000E+00  1.50000000E+00  1.20000000E+00  1.20000000E+00  1.50000000E+00
  1.20000000E+00  1.20000000E+00  1.50000000E+00  1.20000000E+00  1.20000000E+00
  1.50000000E+00  1.20000000E+00  1.20000000E+00  1.50000000E+00  1.20000000E+00
  1.20000000E+00  1.50000000E+00  1.20000000E+00  1.20000000E+00  1.50000000E+00
  1.20000000E+00  1.20000000E+00  1.50000000E+00  1.20000000E+00  1.20000000E+00
  1.50000000E+00  1.20000000E+00  1.20000000E+00  1.50000000E+00  1.20000000E+00
  1.20000000E+00  1.50000000E+00  1.20000000E+00  1.20000000E+00  1.50000000E+00
  1.20000000E+00  1.20000000E+00  1.50000000E+00  1.20000000E+00  1.20000000E+00
  1.50000000E+00  1.20000000E+00  1.20000000E+00  1.50000000E+00  1.20000000E+00
  1.20000000E+00  1.50000000E+00  1.20000000E+00  1.20000000E+00  1.50000000E+00
  1.20000000E+00  1.20000000E+00  1.50000000E+00  1.20000000E+00  1.20000000E+00
  1.50000000E+00  1.20000000E+00  1.20000000E+00  1.50000000E+00  1.20000000E+00
  1.20000000E+00  1.50000000E+00  1.20000000E+00  1.20000000E+00  1.50000000E+00
  1.20000000E+00  1.20000000E+00  1.50000000E+00  1.20000000E+00  1.20000000E+00
  1.50000000E+00  1.20000000E+00  1.20000000E+00  1.50000000E+00  1.20000000E+00
  1.20000000E+00  1.50000000E+00  1.20000000E+00  1.20000000E+00  1.50000000E+00
  1.20000000E+00  1.20000000E+00  1.50000000E+00  1.20000000E+00  1.20000000E+00
  1.50000000E+00  1.20000000E+00  1.20000000E+00  1.50000000E+00  1.20000000E+00
  1.20000000E+00  1.50000000E+00  1.20000000E+00  1.20000000E+00  1.50000000E+00
  1.20000000E+00  1.20000000E+00  1.50000000E+00  1.20000000E+00  1.20000000E+00
  1.50000000E+00  1.20000000E+00  1.20000000E+00  1.50000000E+00  1.20000000E+00
  1.20000000E+00  1.50000000E+00  1.20000000E+00  1.20000000E+00  1.50000000E+00
  1.20000000E+00  1.20000000E+00  1.50000000E+00  1.20000000E+00  1.20000000E+00
  1.50000000E+00  1.20000000E+00  1.20000000E+00  1.50000000E+00  1.20000000E+00
  1.20000000E+00  1.50000000E+00  1.20000000E+00  1.20000000E+00  1.50000000E+00
  1.20000000E+00  1.20000000E+00  1.50000000E+00  1.20000000E+00  1.20000000E+00
  1.50000000E+00  1.20000000E+00  1.20000000E+00  1.50000000E+00  1.20000000E+00
  1.20000000E+00  1.50000000E+00  1.20000000E+00  1.20000000E+00  1.50000000E+00
  1.20000000E+00  1.20000000E+00  1.50000000E+00  1.20000000E+00  1.20000000E+00
  1.50000000E+00  1.20000000E+00  1.20000000E+00  1.50000000E+00  1.20000000E+00
  1.20000000E+00  1.50000000E+00  1.20000000E+00  1.20000000E+00  1.50000000E+00
  1.20000000E+00  1.20000000E+00  1.50000000E+00  1.20000000E+00  1.20000000E+00
  1.50000000E+00  1.20000000E+00  1.20000000E+00  1.50000000E+00  1.20000000E+00
  1.20000000E+00  1.50000000E+00  1.20000000E+00  1.20000000E+00  1.50000000E+00
  1.20000000E+00  1.20000000E+00  1.50000000E+00  1.20000000E+00  1.20000000E+00
  1.50000000E+00  1.20000000E+00  1.20000000E+00  1.50000000E+00  1.20000000E+00
  1.20000000E+00  1.50000000E+00  1.20000000E+00  1.20000000E+00  1.50000000E+00
  1.20000000E+00  1.20000000E+00  1.50000000E+00  1.20000000E+00  1.20000000E+00
  1.50000000E+00  1.20000000E+00  1.20000000E+00  1.50000000E+00  1.20000000E+00
  1.20000000E+00  1.50000000E+00  1.20000000E+00  1.20000000E+00  1.50000000E+00
  1.20000000E+00  1.20000000E+00  1.50000000E+00  1.20000000E+00  1.20000000E+00
  1.50000000E+00  1.20000000E+00  1.20000000E+00  1.50000000E+00  1.20000000E+00
  1.20000000E+00  1.50000000E+00  1.20000000E+00  1.20000000E+00  1.50000000E+00
  1.20000000E+00  1.20000000E+00  1.50000000E+00  1.20000000E+00  1.20000000E+00
  1.50000000E+00  1.20000000E+00  1.20000000E+00  1.50000000E+00  1.20000000E+00
  1.20000000E+00  1.50000000E+00  1.20000000E+00  1.20000000E+00  1.50000000E+00
  1.20000000E+00  1.20000000E+00  1.50000000E+00  1.20000000E+00  1.20000000E+00
  1.50000000E+00  1.20000000E+00  1.20000000E+00  1.50000000E+00  1.20000000E+00
  1.20000000E+00  1.50000000E+00  1.20000000E+00  1.20000000E+00  1.50000000E+00
  1.20000000E+00  1.20000000E+00  1.50000000E+00  1.20000000E+00  1.20000000E+00
  1.50000000E+00  1.20000000E+00  1.20000000E+00  1.50000000E+00  1.20000000E+00
  1.20000000E+00  1.50000000E+00  1.20000000E+00  1.20000000E+00  1.50000000E+00
  1.20000000E+00  1.20000000E+00  1.50000000E+00  1.20000000E+00  1.20000000E+00
  1.50000000E+00  1.20000000E+00  1.20000000E+00  1.50000000E+00  1.20000000E+00
  1.20000000E+00  1.50000000E+00  1.20000000E+00  1.20000000E+00  1.50000000E+00
  1.20000000E+00  1.20000000E+00  1.50000000E+00  1.20000000E+00  1.20000000E+00
  1.50000000E+00  1.20000000E+00  1.20000000E+00  1.50000000E+00  1.20000000E+00
  1.20000000E+00  1.50000000E+00  1.20000000E+00  1.20000000E+00  1.50000000E+00
  1.20000000E+00  1.20000000E+00  1.50000000E+00  1.20000000E+00  1.20000000E+00
  1.50000000E+00  1.20000000E+00  1.20000000E+00  1.50000000E+00  1.20000000E+00
  1.20000000E+00  1.50000000E+00  1.20000000E+00  1.20000000E+00  1.50000000E+00
  1.20000000E+00  1.20000000E+00  1.50000000E+00  1.20000000E+00  1.20000000E+00
  1.50000000E+00  1.20000000E+00  1.20000000E+00  1.50000000E+00  1.20000000E+00
  1.20000000E+00  1.50000000E+00  1.20000000E+00  1.20000000E+00  1.50000000E+00
  1.20000000E+00  1.20000000E+00  1.50000000E+00  1.20000000E+00  1.20000000E+00
  1.50000000E+00  1.20000000E+00  1.20000000E+00  1.50000000E+00  1.20000000E+00
  1.20000000E+00  1.50000000E+00  1.20000000E+00  1.20000000E+00  1.50000000E+00
  1.20000000E+00  1.20000000E+00  1.50000000E+00  1.20000000E+00  1.20000000E+00
  1.50000000E+00  1.20000000E+00  1.20000000E+00  1.50000000E+00  1.20000000E+00
  1.20000000E+00  1.50000000E+00  1.20000000E+00  1.20000000E+00  1.50000000E+00
  1.20000000E+00  1.20000000E+00  1.50000000E+00  1.20000000E+00  1.20000000E+00
  1.50000000E+00  1.20000000E+00  1.20000000E+00  1.50000000E+00  1.20000000E+00
  1.20000000E+00  1.50000000E+00  1.20000000E+00  1.20000000E+00  1.50000000E+00
  1.20000000E+00  1.20000000E+00  1.50000000E+00  1.20000000E+00  1.20000000E+00
  1.50000000E+00  1.20000000E+00  1.20000000E+00  1.50000000E+00  1.20000000E+00
  1.20000000E+00  1.50000000E+00  1.20000000E+00  1.20000000E+00  1.50000000E+00
  1.20000000E+00  1.20000000E+00  1.50000000E+00  1.20000000E+00  1.20000000E+00
  1.50000000E+00  1.20000000E+00  1.20000000E+00  1.50000000E+00  1.20000000E+00
  1.20000000E+00  1.50000000E+00  1.20000000E+00  1.20000000E+00  1.50000000E+00
  1.20000000E+00  1.20000000E+00  1.50000000E+00  1.20000000E+00  1.20000000E+00
  1.50000000E+00  1.20000000E+00  1.20000000E+00  1.50000000E+00  1.20000000E+00
  1.20000000E+00  1.50000000E+00  1.20000000E+00  1.20000000E+00  1.50000000E+00
  1.20000000E+00  1.20000000E+00  1.50000000E+00  1.20000000E+00  1.20000000E+00
  1.50000000E+00  1.20000000E+00  1.20000000E+00  1.50000000E+00  1.20000000E+00
  1.20000000E+00  1.50000000E+00  1.20000000E+00  1.20000000E+00  1.50000000E+00
  1.20000000E+00  1.20000000E+00  1.50000000E+00  1.20000000E+00  1.20000000E+00
  1.50000000E+00  1.20000000E+00  1.20000000E+00  1.50000000E+00  1.20000000E+00
  1.20000000E+00  1.50000000E+00  1.20000000E+00  1.20000000E+00  1.50000000E+00
  1.20000000E+00  1.20000000E+00  1.50000000E+00  1.20000000E+00  1.20000000E+00
  1.50000000E+00  1.20000000E+00  1.20000000E+00  1.50000000E+00  1.20000000E+00
  1.20000000E+00  1.50000000E+00  1.20000000E+00  1.20000000E+00  1.50000000E+00
  1.20000000E+00  1.20000000E+00  1.50000000E+00  1.20000000E+00  1.20000000E+00
  1.50000000E+00  1.20000000E+00  1.20000000E+00  1.50000000E+00  1.20000000E+00
  1.20000000E+00  1.50000000E+00  1.20000000E+00  1.20000000E+00  1.50000000E+00
  1.20000000E+00  1.20000000E+00  1.50000000E+00  1.20000000E+00  1.20000000E+00
  1.50000000E+00  1.20000000E+00  1.20000000E+00  1.50000000E+00  1.20000000E+00
  1.20000000E+00  1.50000000E+00  1.20000000E+00  1.20000000E+00  1.50000000E+00
  1.20000000E+00  1.20000000E+00  1.50000000E+00  1.20000000E+00  1.20000000E+00
  1.50000000E+00  1.20000000E+00  1.20000000E+00  1.50000000E+00  1.20000000E+00
  1.20000000E+00  1.50000000E+00  1.20000000E+00  1.20000000E+00  1.50000000E+00
  1.20000000E+00  1.20000000E+00  1.50000000E+00  1.20000000E+00  1.20000000E+00
  1.50000000E+00  1.20000000E+00  1.20000000E+00  1.50000000E+00  1.20000000E+00
  1.20000000E+00  1.50000000E+00  1.20000000E+00  1.20000000E+00  1.50000000E+00
  1.20000000E+00  1.20000000E+00  1.50000000E+00  1.20000000E+00  1.20000000E+00
  1.50000000E+00  1.20000000E+00  1.20000000E+00  1.50000000E+00  1.20000000E+00
  1.20000000E+00  1.50000000E+00  1.20000000E+00  1.20000000E+00  1.50000000E+00
  1.20000000E+00  1.20000000E+00  1.50000000E+00  1.20000000E+00  1.20000000E+00
  1.50000000E+00  1.20000000E+00  1.20000000E+00  1.50000000E+00  1.20000000E+00
  1.20000000E+00  1.50000000E+00  1.20000000E+00  1.20000000E+00  1.50000000E+00
  1.20000000E+00  1.20000000E+00  1.50000000E+00  1.20000000E+00  1.20000000E+00
  1.50000000E+00  1.20000000E+00  1.20000000E+00  1.50000000E+00  1.20000000E+00
  1.20000000E+00  1.50000000E+00  1.20000000E+00  1.20000000E+00  1.50000000E+00
  1.20000000E+00  1.20000000E+00  1.50000000E+00  1.20000000E+00  1.20000000E+00
  1.50000000E+00  1.20000000E+00  1.20000000E+00  1.50000000E+00  1.20000000E+00
  1.20000000E+00  1.50000000E+00  1.20000000E+00  1.20000000E+00  1.50000000E+00
  1.20000000E+00  1.20000000E+00  1.50000000E+00  1.20000000E+00  1.20000000E+00
  1.50000000E+00  1.20000000E+00  1.20000000E+00  1.50000000E+00  1.20000000E+00
  1.20000000E+00  1.50000000E+00  1.20000000E+00  1.20000000E+00  1.50000000E+00
  1.20000000E+00  1.20000000E+00  1.50000000E+00  1.20000000E+00  1.20000000E+00
  1.50000000E+00  1.20000000E+00  1.20000000E+00  1.50000000E+00  1.20000000E+00
  1.20000000E+00  1.50000000E+00  1.20000000E+00  1.20000000E+00  1.50000000E+00
  1.20000000E+00  1.20000000E+00  1.50000000E+00  1.20000000E+00  1.20000000E+00
  1.50000000E+00  1.20000000E+00  1.20000000E+00  1.50000000E+00  1.20000000E+00
  1.20000000E+00  1.50000000E+00  1.20000000E+00  1.20000000E+00  1.50000000E+00
  1.20000000E+00  1.20000000E+00  1.50000000E+00  1.20000000E+00  1.20000000E+00
  1.50000000E+00  1.20000000E+00  1.20000000E+00  1.50000000E+00  1.20000000E+00
  1.20000000E+00  1.50000000E+00  1.20000000E+00  1.20000000E+00  1.50000000E+00
  1.20000000E+00  1.20000000E+00  1.50000000E+00  1.20000000E+00  1.20000000E+00
  1.50000000E+00  1.20000000E+00  1.20000000E+00  1.50000000E+00  1.20000000E+00
  1.20000000E+00  1.50000000E+00  1.20000000E+00  1.20000000E+00  1.50000000E+00
  1.20000000E+00  1.20000000E+00  1.50000000E+00  1.20000000E+00  1.20000000E+00
  1.50000000E+00  1.20000000E+00  1.20000000E+00  1.50000000E+00  1.20000000E+00
  1.20000000E+00  1.50000000E+00  1.20000000E+00  1.20000000E+00  1.50000000E+00
  1.20000000E+00  1.20000000E+00  1.50000000E+00  1.20000000E+00  1.20000000E+00
  1.50000000E+00  1.20000000E+00  1.20000000E+00  1.50000000E+00  1.20000000E+00
  1.20000000E+00  1.50000000E+00  1.20000000E+00  1.20000000E+00  1.50000000E+00
  1.20000000E+00  1.20000000E+00  1.50000000E+00  1.20000000E+00  1.20000000E+00
  1.50000000E+00  1.20000000E+00  1.20000000E+00  1.50000000E+00  1.20000000E+00
  1.20000000E+00  1.50000000E+00  1.20000000E+00  1.20000000E+00  1.50000000E+00
  1.20000000E+00  1.20000000E+00  1.50000000E+00  1.20000000E+00  1.20000000E+00
  1.50000000E+00  1.20000000E+00  1.20000000E+00  1.50000000E+00  1.20000000E+00
  1.20000000E+00  1.50000000E+00  1.20000000E+00  1.20000000E+00  1.50000000E+00
  1.20000000E+00  1.20000000E+00  1.50000000E+00  1.20000000E+00  1.20000000E+00
  1.50000000E+00  1.20000000E+00  1.20000000E+00  1.50000000E+00  1.20000000E+00
  1.20000000E+00  1.50000000E+00  1.20000000E+00  1.20000000E+00  1.50000000E+00
  1.20000000E+00  1.20000000E+00  1.50000000E+00  1.20000000E+00  1.20000000E+00
  1.50000000E+00  1.20000000E+00  1.20000000E+00  1.50000000E+00  1.20000000E+00
  1.20000000E+00  1.50000000E+00  1.20000000E+00  1.20000000E+00  1.50000000E+00
  1.20000000E+00  1.20000000E+00  1.50000000E+00  1.20000000E+00  1.20000000E+00
  1.50000000E+00  1.20000000E+00  1.20000000E+00  1.50000000E+00  1.20000000E+00
  1.20000000E+00  1.50000000E+00  1.20000000E+00  1.20000000E+00  1.50000000E+00
  1.20000000E+00  1.20000000E+00  1.50000000E+00  1.20000000E+00  1.20000000E+00
  1.50000000E+00  1.20000000E+00  1.20000000E+00  1.50000000E+00  1.20000000E+00
  1.20000000E+00  1.50000000E+00  1.20000000E+00  1.20000000E+00  1.50000000E+00
  1.20000000E+00  1.20000000E+00  1.50000000E+00  1.20000000E+00  1.20000000E+00
  1.50000000E+00  1.20000000E+00  1.20000000E+00  1.50000000E+00  1.20000000E+00
  1.20000000E+00  1.50000000E+00  1.20000000E+00  1.20000000E+00  1.50000000E+00
  1.20000000E+00  1.20000000E+00  1.50000000E+00  1.20000000E+00  1.20000000E+00
  1.50000000E+00  1.20000000E+00  1.20000000E+00  1.50000000E+00  1.20000000E+00
  1.20000000E+00  1.50000000E+00  1.20000000E+00  1.20000000E+00  1.50000000E+00
  1.20000000E+00  1.20000000E+00  1.50000000E+00  1.20000000E+00  1.20000000E+00
  1.50000000E+00  1.20000000E+00  1.20000000E+00  1.50000000E+00  1.20000000E+00
  1.20000000E+00  1.50000000E+00  1.20000000E+00  1.20000000E+00  1.50000000E+00
  1.20000000E+00  1.20000000E+00  1.50000000E+00  1.20000000E+00  1.20000000E+00
  1.50000000E+00  1.20000000E+00  1.20000000E+00  1.50000000E+00  1.20000000E+00
  1.20000000E+00  1.50000000E+00  1.20000000E+00  1.20000000E+00  1.50000000E+00
  1.20000000E+00  1.20000000E+00  1.50000000E+00  1.20000000E+00  1.20000000E+00
  1.50000000E+00  1.20000000E+00  1.20000000E+00  1.50000000E+00  1.20000000E+00
  1.20000000E+00  1.50000000E+00  1.20000000E+00  1.20000000E+00  1.50000000E+00
  1.20000000E+00  1.20000000E+00  1.50000000E+00  1.20000000E+00  1.20000000E+00
  1.50000000E+00  1.20000000E+00  1.20000000E+00  1.50000000E+00  1.20000000E+00
  1.20000000E+00  1.50000000E+00  1.20000000E+00  1.20000000E+00  1.50000000E+00
  1.20000000E+00  1.20000000E+00  1.50000000E+00  1.20000000E+00  1.20000000E+00
  1.50000000E+00  1.20000000E+00  1.20000000E+00  1.50000000E+00  1.20000000E+00
  1.20000000E+00  1.50000000E+00  1.20000000E+00  1.20000000E+00  1.50000000E+00
  1.20000000E+00  1.20000000E+00  1.50000000E+00  1.20000000E+00  1.20000000E+00
  1.50000000E+00  1.20000000E+00  1.20000000E+00  1.50000000E+00  1.20000000E+00
  1.20000000E+00  1.50000000E+00  1.20000000E+00  1.20000000E+00  1.50000000E+00
  1.20000000E+00  1.20000000E+00  1.50000000E+00  1.20000000E+00  1.20000000E+00
  1.50000000E+00  1.20000000E+00  1.20000000E+00  1.50000000E+00  1.20000000E+00
  1.20000000E+00  1.50000000E+00  1.20000000E+00  1.20000000E+00  1.50000000E+00
  1.20000000E+00  1.20000000E+00  1.50000000E+00  1.20000000E+00  1.20000000E+00
  1.50000000E+00  1.20000000E+00  1.20000000E+00  1.50000000E+00  1.20000000E+00
  1.20000000E+00  1.50000000E+00  1.20000000E+00  1.20000000E+00  1.50000000E+00
  1.20000000E+00  1.20000000E+00  1.50000000E+00  1.20000000E+00  1.20000000E+00
  1.50000000E+00  1.20000000E+00  1.20000000E+00  1.50000000E+00  1.20000000E+00
  1.20000000E+00  1.50000000E+00  1.20000000E+00  1.20000000E+00  1.50000000E+00
  1.20000000E+00  1.20000000E+00  1.50000000E+00  1.20000000E+00  1.20000000E+00
  1.50000000E+00  1.20000000E+00  1.20000000E+00  1.50000000E+00  1.20000000E+00
  1.20000000E+00  1.50000000E+00  1.20000000E+00  1.20000000E+00  1.50000000E+00
  1.20000000E+00  1.20000000E+00  1.50000000E+00  1.20000000E+00  1.20000000E+00
  1.50000000E+00  1.20000000E+00  1.20000000E+00  1.50000000E+00  1.20000000E+00
  1.20000000E+00  1.50000000E+00  1.20000000E+00  1.20000000E+00  1.50000000E+00
  1.20000000E+00  1.20000000E+00  1.50000000E+00  1.20000000E+00  1.20000000E+00
  1.50000000E+00  1.20000000E+00  1.20000000E+00  1.50000000E+00  1.20000000E+00
  1.20000000E+00  1.50000000E+00  1.20000000E+00  1.20000000E+00  1.50000000E+00
  1.20000000E+00  1.20000000E+00  1.50000000E+00  1.20000000E+00  1.20000000E+00
  1.50000000E+00  1.20000000E+00  1.20000000E+00  1.50000000E+00  1.20000000E+00
  1.20000000E+00  1.50000000E+00  1.20000000E+00  1.20000000E+00  1.50000000E+00
  1.20000000E+00  1.20000000E+00  1.50000000E+00  1.20000000E+00  1.20000000E+00
  1.50000000E+00  1.20000000E+00  1.20000000E+00  1.50000000E+00  1.20000000E+00
  1.20000000E+00  1.50000000E+00  1.20000000E+00  1.20000000E+00  1.50000000E+00
  1.20000000E+00  1.20000000E+00  1.50000000E+00  1.20000000E+00  1.20000000E+00
  1.50000000E+00  1.20000000E+00  1.20000000E+00  1.50000000E+00  1.20000000E+00
  1.20000000E+00  1.50000000E+00  1.20000000E+00  1.20000000E+00  1.50000000E+00
  1.20000000E+00  1.20000000E+00  1.50000000E+00  1.20000000E+00  1.20000000E+00
  1.50000000E+00  1.20000000E+00  1.20000000E+00  1.50000000E+00  1.20000000E+00
  1.20000000E+00  1.50000000E+00  1.20000000E+00  1.20000000E+00  1.50000000E+00
  1.20000000E+00  1.20000000E+00  1.50000000E+00  1.20000000E+00  1.20000000E+00
  1.50000000E+00  1.20000000E+00  1.20000000E+00  1.50000000E+00  1.20000000E+00
  1.20000000E+00  1.50000000E+00  1.20000000E+00  1.20000000E+00  1.50000000E+00
  1.20000000E+00  1.20000000E+00  1.50000000E+00  1.20000000E+00  1.20000000E+00
  1.50000000E+00  1.20000000E+00  1.20000000E+00  1.50000000E+00  1.20000000E+00
  1.20000000E+00  1.50000000E+00  1.20000000E+00  1.20000000E+00  1.50000000E+00
  1.20000000E+00  1.20000000E+00  1.50000000E+00  1.20000000E+00  1.20000000E+00
  1.50000000E+00  1.20000000E+00  1.20000000E+00  1.50000000E+00  1.20000000E+00
  1.20000000E+00  1.50000000E+00  1.20000000E+00  1.20000000E+00  1.50000000E+00
  1.20000000E+00  1.20000000E+00  1.50000000E+00  1.20000000E+00  1.20000000E+00
  1.50000000E+00  1.20000000E+00  1.20000000E+00  1.50000000E+00  1.20000000E+00
  1.20000000E+00  1.50000000E+00  1.20000000E+00  1.20000000E+00  1.50000000E+00
  1.20000000E+00  1.20000000E+00  1.50000000E+00  1.20000000E+00  1.20000000E+00
  1.50000000E+00  1.20000000E+00  1.20000000E+00  1.50000000E+00  1.20000000E+00
  1.20000000E+00  1.50000000E+00  1.20000000E+00  1.20000000E+00  1.50000000E+00
  1.20000000E+00  1.20000000E+00  1.50000000E+00  1.20000000E+00  1.20000000E+00
  1.50000000E+00  1.20000000E+00  1.20000000E+00  1.50000000E+00  1.20000000E+00
  1.20000000E+00  1.50000000E+00  1.20000000E+00  1.20000000E+00  1.50000000E+00
  1.20000000E+00  1.20000000E+00  1.50000000E+00  1.20000000E+00  1.20000000E+00
  1.50000000E+00  1.20000000E+00  1.20000000E+00  1.50000000E+00  1.20000000E+00
  1.20000000E+00  1.50000000E+00  1.20000000E+00  1.20000000E+00  1.50000000E+00
  1.20000000E+00  1.20000000E+00  1.50000000E+00  1.20000000E+00  1.20000000E+00
  1.50000000E+00  1.20000000E+00  1.20000000E+00  1.50000000E+00  1.20000000E+00
  1.20000000E+00  1.50000000E+00  1.20000000E+00  1.20000000E+00  1.50000000E+00
  1.20000000E+00  1.20000000E+00  1.50000000E+00  1.20000000E+00  1.20000000E+00
  1.50000000E+00  1.20000000E+00  1.20000000E+00  1.50000000E+00  1.20000000E+00
  1.20000000E+00  1.50000000E+00  1.20000000E+00  1.20000000E+00  1.50000000E+00
  1.20000000E+00  1.20000000E+00  1.50000000E+00  1.20000000E+00  1.20000000E+00
  1.50000000E+00  1.20000000E+00  1.20000000E+00  1.50000000E+00  1.20000000E+00
  1.20000000E+00  1.50000000E+00  1.20000000E+00  1.20000000E+00  1.50000000E+00
  1.20000000E+00  1.20000000E+00  1.50000000E+00  1.20000000E+00  1.20000000E+00
  1.50000000E+00  1.20000000E+00  1.20000000E+00  1.50000000E+00  1.20000000E+00
  1.20000000E+00  1.50000000E+00  1.20000000E+00  1.20000000E+00  1.50000000E+00
  1.20000000E+00  1.20000000E+00  1.50000000E+00  1.20000000E+00  1.20000000E+00
  1.50000000E+00  1.20000000E+00  1.20000000E+00  1.50000000E+00  1.20000000E+00
  1.20000000E+00  1.50000000E+00  1.20000000E+00  1.20000000E+00  1.50000000E+00
  1.20000000E+00  1.20000000E+00  1.50000000E+00  1.20000000E+00  1.20000000E+00
  1.50000000E+00  1.20000000E+00  1.20000000E+00  1.50000000E+00  1.20000000E+00
  1.20000000E+00  1.50000000E+00  1.20000000E+00  1.20000000E+00  1.50000000E+00
  1.20000000E+00  1.20000000E+00  1.50000000E+00  1.20000000E+00  1.20000000E+00
  1.50000000E+00  1.20000000E+00  1.20000000E+00  1.50000000E+00  1.20000000E+00
  1.20000000E+00  1.50000000E+00  1.20000000E+00  1.20000000E+00  1.50000000E+00
  1.20000000E+00  1.20000000E+00  1.50000000E+00  1.20000000E+00  1.20000000E+00
  1.50000000E+00  1.20000000E+00  1.20000000E+00  1.50000000E+00  1.20000000E+00
  1.20000000E+00  1.50000000E+00  1.20000000E+00  1.20000000E+00  1.50000000E+00
  1.20000000E+00  1.20000000E+00  1.50000000E+00  1.20000000E+00  1.20000000E+00
  1.50000000E+00  1.20000000E+00  1.20000000E+00  1.50000000E+00  1.20000000E+00
  1.20000000E+00  1.50000000E+00  1.20000000E+00  1.20000000E+00  1.50000000E+00
  1.20000000E+00  1.20000000E+00  1.50000000E+00  1.20000000E+00  1.20000000E+00
  1.50000000E+00  1.20000000E+00  1.20000000E+00  1.50000000E+00  1.20000000E+00
  1.20000000E+00  1.50000000E+00  1.20000000E+00  1.20000000E+00  1.50000000E+00
  1.20000000E+00  1.20000000E+00  1.50000000E+00  1.20000000E+00  1.20000000E+00
  1.50000000E+00  1.20000000E+00  1.20000000E+00  1.50000000E+00  1.20000000E+00
  1.20000000E+00  1.50000000E+00  1.20000000E+00  1.20000000E+00  1.50000000E+00
  1.20000000E+00  1.20000000E+00  1.50000000E+00  1.20000000E+00  1.20000000E+00
  1.50000000E+00  1.20000000E+00  1.20000000E+00  1.50000000E+00  1.20000000E+00
  1.20000000E+00  1.50000000E+00  1.20000000E+00  1.20000000E+00  1.50000000E+00
  1.20000000E+00  1.20000000E+00  1.50000000E+00  1.20000000E+00  1.20000000E+00
  1.50000000E+00  1.20000000E+00  1.20000000E+00  1.50000000E+00  1.20000000E+00
  1.20000000E+00  1.50000000E+00  1.20000000E+00  1.20000000E+00  1.50000000E+00
  1.20000000E+00  1.20000000E+00  1.50000000E+00  1.20000000E+00  1.20000000E+00
  1.50000000E+00  1.20000000E+00  1.20000000E+00  1.50000000E+00  1.20000000E+00
  1.20000000E+00  1.50000000E+00  1.20000000E+00  1.20000000E+00  1.50000000E+00
  1.20000000E+00  1.20000000E+00  1.50000000E+00  1.20000000E+00  1.20000000E+00
  1.50000000E+00  1.20000000E+00  1.20000000E+00  1.50000000E+00  1.20000000E+00
  1.20000000E+00  1.50000000E+00  1.20000000E+00  1.20000000E+00  1.50000000E+00
  1.20000000E+00  1.20000000E+00  1.50000000E+00  1.20000000E+00  1.20000000E+00
  1.50000000E+00  1.20000000E+00  1.20000000E+00  1.50000000E+00  1.20000000E+00
  1.20000000E+00  1.50000000E+00  1.20000000E+00  1.20000000E+00  1.50000000E+00
  1.20000000E+00  1.20000000E+00  1.50000000E+00  1.20000000E+00  1.20000000E+00
  1.50000000E+00  1.20000000E+00  1.20000000E+00  1.50000000E+00  1.20000000E+00
  1.20000000E+00  1.50000000E+00  1.20000000E+00  1.20000000E+00  1.50000000E+00
  1.20000000E+00  1.20000000E+00  1.50000000E+00  1.20000000E+00  1.20000000E+00
  1.50000000E+00  1.20000000E+00  1.20000000E+00  1.50000000E+00  1.20000000E+00
  1.20000000E+00  1.50000000E+00  1.20000000E+00  1.20000000E+00  1.50000000E+00
  1.20000000E+00  1.20000000E+00  1.50000000E+00  1.20000000E+00  1.20000000E+00
  1.50000000E+00  1.20000000E+00  1.20000000E+00  1.50000000E+00  1.20000000E+00
  1.20000000E+00  1.50000000E+00  1.20000000E+00  1.20000000E+00  1.50000000E+00
  1.20000000E+00  1.20000000E+00  1.50000000E+00  1.20000000E+00  1.20000000E+00
  1.50000000E+00  1.20000000E+00  1.20000000E+00  1.50000000E+00  1.20000000E+00
  1.20000000E+00  1.50000000E+00  1.20000000E+00  1.20000000E+00  1.50000000E+00
  1.20000000E+00  1.20000000E+00  1.50000000E+00  1.20000000E+00  1.20000000E+00
  1.50000000E+00  1.20000000E+00  1.20000000E+00  1.50000000E+00  1.20000000E+00
  1.20000000E+00  1.50000000E+00  1.20000000E+00  1.20000000E+00  1.50000000E+00
  1.20000000E+00  1.20000000E+00  1.50000000E+00  1.20000000E+00  1.20000000E+00
  1.50000000E+00  1.20000000E+00  1.20000000E+00  1.50000000E+00  1.20000000E+00
  1.20000000E+00  1.50000000E+00  1.20000000E+00  1.20000000E+00  1.50000000E+00
  1.20000000E+00  1.20000000E+00  1.50000000E+00  1.20000000E+00  1.20000000E+00
  1.50000000E+00  1.20000000E+00  1.20000000E+00  1.50000000E+00  1.20000000E+00
  1.20000000E+00  1.50000000E+00  1.20000000E+00  1.20000000E+00  1.50000000E+00
  1.20000000E+00  1.20000000E+00  1.50000000E+00  1.20000000E+00  1.20000000E+00
  1.50000000E+00  1.20000000E+00  1.20000000E+00  1.50000000E+00  1.20000000E+00
  1.20000000E+00  1.50000000E+00  1.20000000E+00  1.20000000E+00  1.50000000E+00
  1.20000000E+00  1.20000000E+00  1.50000000E+00  1.20000000E+00  1.20000000E+00
  1.50000000E+00  1.20000000E+00  1.20000000E+00  1.50000000E+00  1.20000000E+00
  1.20000000E+00  1.50000000E+00  1.20000000E+00  1.20000000E+00  1.50000000E+00
  1.20000000E+00  1.20000000E+00  1.50000000E+00  1.20000000E+00  1.20000000E+00
  1.50000000E+00  1.20000000E+00  1.20000000E+00  1.50000000E+00  1.20000000E+00
  1.20000000E+00  1.50000000E+00  1.20000000E+00  1.20000000E+00  1.50000000E+00
  1.20000000E+00  1.20000000E+00  1.50000000E+00  1.20000000E+00  1.20000000E+00
  1.50000000E+00  1.20000000E+00  1.20000000E+00  1.50000000E+00  1.20000000E+00
  1.20000000E+00  1.50000000E+00  1.20000000E+00  1.20000000E+00  1.50000000E+00
  1.20000000E+00  1.20000000E+00  1.50000000E+00  1.20000000E+00  1.20000000E+00
  1.50000000E+00  1.20000000E+00  1.20000000E+00  1.50000000E+00  1.20000000E+00
  1.20000000E+00  1.50000000E+00  1.20000000E+00  1.20000000E+00  1.50000000E+00
  1.20000000E+00  1.20000000E+00  1.50000000E+00  1.20000000E+00  1.20000000E+00
  1.50000000E+00  1.20000000E+00  1.20000000E+00  1.50000000E+00  1.20000000E+00
  1.20000000E+00  1.50000000E+00  1.20000000E+00  1.20000000E+00  1.50000000E+00
  1.20000000E+00  1.20000000E+00  1.50000000E+00  1.20000000E+00  1.20000000E+00
  1.50000000E+00  1.20000000E+00  1.20000000E+00  1.50000000E+00  1.20000000E+00
  1.20000000E+00  1.50000000E+00  1.20000000E+00  1.20000000E+00  1.50000000E+00
  1.20000000E+00  1.20000000E+00  1.50000000E+00  1.20000000E+00  1.20000000E+00
  1.50000000E+00  1.20000000E+00  1.20000000E+00  1.50000000E+00  1.20000000E+00
  1.20000000E+00  1.50000000E+00  1.20000000E+00  1.20000000E+00  1.50000000E+00
  1.20000000E+00  1.20000000E+00  1.50000000E+00  1.20000000E+00  1.20000000E+00
  1.50000000E+00  1.20000000E+00  1.20000000E+00  1.50000000E+00  1.20000000E+00
  1.20000000E+00  1.50000000E+00  1.20000000E+00  1.20000000E+00  1.50000000E+00
  1.20000000E+00  1.20000000E+00  1.50000000E+00  1.20000000E+00  1.20000000E+00
  1.50000000E+00  1.20000000E+00  1.20000000E+00  1.50000000E+00  1.20000000E+00
  1.20000000E+00  1.50000000E+00  1.20000000E+00  1.20000000E+00  1.50000000E+00
  1.20000000E+00  1.20000000E+00  1.50000000E+00  1.20000000E+00  1.20000000E+00
  1.50000000E+00  1.20000000E+00  1.20000000E+00  1.50000000E+00  1.20000000E+00
  1.20000000E+00  1.50000000E+00  1.20000000E+00  1.20000000E+00  1.50000000E+00
  1.20000000E+00  1.20000000E+00  1.50000000E+00  1.20000000E+00  1.20000000E+00
  1.50000000E+00  1.20000000E+00  1.20000000E+00  1.50000000E+00  1.20000000E+00
  1.20000000E+00  1.50000000E+00  1.20000000E+00  1.20000000E+00  1.50000000E+00
  1.20000000E+00  1.20000000E+00  1.50000000E+00  1.20000000E+00  1.20000000E+00
  1.50000000E+00  1.20000000E+00  1.20000000E+00  1.50000000E+00  1.20000000E+00
  1.20000000E+00  1.50000000E+00  1.20000000E+00  1.20000000E+00  1.50000000E+00
  1.20000000E+00  1.20000000E+00  1.50000000E+00  1.20000000E+00  1.20000000E+00
  1.50000000E+00  1.20000000E+00  1.20000000E+00  1.50000000E+00  1.20000000E+00
  1.20000000E+00  1.50000000E+00  1.20000000E+00  1.20000000E+00  1.50000000E+00
  1.20000000E+00  1.20000000E+00  1.50000000E+00  1.20000000E+00  1.20000000E+00
  1.50000000E+00  1.20000000E+00  1.20000000E+00  1.50000000E+00  1.20000000E+00
  1.20000000E+00  1.50000000E+00  1.20000000E+00  1.20000000E+00  1.50000000E+00
  1.20000000E+00  1.20000000E+00  1.50000000E+00  1.20000000E+00  1.20000000E+00
  1.50000000E+00  1.20000000E+00  1.20000000E+00  1.50000000E+00  1.20000000E+00
  1.20000000E+00  1.50000000E+00  1.20000000E+00  1.20000000E+00  1.50000000E+00
  1.20000000E+00  1.20000000E+00  1.50000000E+00  1.20000000E+00  1.20000000E+00
  1.50000000E+00  1.20000000E+00  1.20000000E+00  1.50000000E+00  1.20000000E+00
  1.20000000E+00  1.50000000E+00  1.20000000E+00  1.20000000E+00  1.50000000E+00
  1.20000000E+00  1.20000000E+00  1.50000000E+00  1.20000000E+00  1.20000000E+00
  1.50000000E+00  1.20000000E+00  1.20000000E+00  1.50000000E+00  1.20000000E+00
  1.20000000E+00  1.50000000E+00  1.20000000E+00  1.20000000E+00  1.50000000E+00
  1.20000000E+00  1.20000000E+00  1.50000000E+00  1.20000000E+00  1.20000000E+00
  1.50000000E+00  1.20000000E+00  1.20000000E+00  1.50000000E+00  1.20000000E+00
  1.20000000E+00  1.50000000E+00  1.20000000E+00  1.20000000E+00  1.50000000E+00
  1.20000000E+00  1.20000000E+00  1.50000000E+00  1.20000000E+00  1.20000000E+00
  1.50000000E+00  1.20000000E+00  1.20000000E+00  1.50000000E+00  1.20000000E+00
  1.20000000E+00  1.50000000E+00  1.20000000E+00  1.20000000E+00  1.50000000E+00
  1.20000000E+00  1.20000000E+00  1.50000000E+00  1.20000000E+00  1.20000000E+00
  1.50000000E+00  1.20000000E+00  1.20000000E+00  1.50000000E+00  1.20000000E+00
  1.20000000E+00  1.50000000E+00  1.20000000E+00  1.20000000E+00  1.50000000E+00
  1.20000000E+00  1.20000000E+00  1.50000000E+00  1.20000000E+00  1.20000000E+00
  1.50000000E+00  1.20000000E+00  1.20000000E+00  1.50000000E+00  1.20000000E+00
  1.20000000E+00  1.50000000E+00  1.20000000E+00  1.20000000E+00  1.50000000E+00
  1.20000000E+00  1.20000000E+00  1.50000000E+00  1.20000000E+00  1.20000000E+00
  1.50000000E+00  1.20000000E+00  1.20000000E+00  1.50000000E+00  1.20000000E+00
  1.20000000E+00  1.50000000E+00  1.20000000E+00  1.20000000E+00  1.50000000E+00
  1.20000000E+00  1.20000000E+00  1.50000000E+00  1.20000000E+00  1.20000000E+00
  1.50000000E+00  1.20000000E+00  1.20000000E+00  1.50000000E+00  1.20000000E+00
  1.20000000E+00  1.50000000E+00  1.20000000E+00  1.20000000E+00  1.50000000E+00
  1.20000000E+00  1.20000000E+00  1.50000000E+00  1.20000000E+00  1.20000000E+00
  1.50000000E+00  1.20000000E+00  1.20000000E+00  1.50000000E+00  1.20000000E+00
  1.20000000E+00  1.50000000E+00  1.20000000E+00  1.20000000E+00  1.50000000E+00
  1.20000000E+00  1.20000000E+00  1.50000000E+00  1.20000000E+00  1.20000000E+00
  1.50000000E+00  1.20000000E+00  1.20000000E+00  1.50000000E+00  1.20000000E+00
  1.20000000E+00  1.50000000E+00  1.20000000E+00  1.20000000E+00  1.50000000E+00
  1.20000000E+00  1.20000000E+00  1.50000000E+00  1.20000000E+00  1.20000000E+00
  1.50000000E+00  1.20000000E+00  1.20000000E+00  1.50000000E+00  1.20000000E+00
  1.20000000E+00  1.50000000E+00  1.20000000E+00  1.20000000E+00  1.50000000E+00
  1.20000000E+00  1.20000000E+00  1.50000000E+00  1.20000000E+00  1.20000000E+00
  1.50000000E+00  1.20000000E+00  1.20000000E+00  1.50000000E+00  1.20000000E+00
  1.20000000E+00  1.50000000E+00  1.20000000E+00  1.20000000E+00  1.50000000E+00
  1.20000000E+00  1.20000000E+00  1.50000000E+00  1.20000000E+00  1.20000000E+00
  1.50000000E+00  1.20000000E+00  1.20000000E+00  1.50000000E+00  1.20000000E+00
  1.20000000E+00  1.50000000E+00  1.20000000E+00  1.20000000E+00  1.50000000E+00
  1.20000000E+00  1.20000000E+00  1.50000000E+00  1.20000000E+00  1.20000000E+00
  1.50000000E+00  1.20000000E+00  1.20000000E+00  1.50000000E+00  1.20000000E+00
  1.20000000E+00  1.50000000E+00  1.20000000E+00  1.20000000E+00  1.50000000E+00
  1.20000000E+00  1.20000000E+00  1.50000000E+00  1.20000000E+00  1.20000000E+00
  1.50000000E+00  1.20000000E+00  1.20000000E+00  1.50000000E+00  1.20000000E+00
  1.20000000E+00  1.50000000E+00  1.20000000E+00  1.20000000E+00  1.50000000E+00
  1.20000000E+00  1.20000000E+00  1.50000000E+00  1.20000000E+00  1.20000000E+00
  1.50000000E+00  1.20000000E+00  1.20000000E+00  1.50000000E+00  1.20000000E+00
  1.20000000E+00  1.50000000E+00  1.20000000E+00  1.20000000E+00  1.50000000E+00
  1.20000000E+00  1.20000000E+00  1.50000000E+00  1.20000000E+00  1.20000000E+00
  1.50000000E+00  1.20000000E+00  1.20000000E+00  1.50000000E+00  1.20000000E+00
  1.20000000E+00  1.50000000E+00  1.20000000E+00  1.20000000E+00  1.50000000E+00
  1.20000000E+00  1.20000000E+00  1.50000000E+00  1.20000000E+00  1.20000000E+00
  1.50000000E+00  1.20000000E+00  1.20000000E+00  1.50000000E+00  1.20000000E+00
  1.20000000E+00  1.50000000E+00  1.20000000E+00  1.20000000E+00  1.50000000E+00
  1.20000000E+00  1.20000000E+00  1.50000000E+00  1.20000000E+00  1.20000000E+00
  1.50000000E+00  1.20000000E+00  1.20000000E+00  1.50000000E+00  1.20000000E+00
  1.20000000E+00  1.50000000E+00  1.20000000E+00  1.20000000E+00  1.50000000E+00
  1.20000000E+00  1.20000000E+00  1.50000000E+00  1.20000000E+00  1.20000000E+00
  1.50000000E+00  1.20000000E+00  1.20000000E+00  1.50000000E+00  1.20000000E+00
  1.20000000E+00  1.50000000E+00  1.20000000E+00  1.20000000E+00  1.50000000E+00
  1.20000000E+00  1.20000000E+00  1.50000000E+00  1.20000000E+00  1.20000000E+00
  1.50000000E+00  1.20000000E+00  1.20000000E+00  1.50000000E+00  1.20000000E+00
  1.20000000E+00  1.50000000E+00  1.20000000E+00  1.20000000E+00  1.50000000E+00
  1.20000000E+00  1.20000000E+00  1.50000000E+00  1.20000000E+00  1.20000000E+00
  1.50000000E+00  1.20000000E+00  1.20000000E+00  1.50000000E+00  1.20000000E+00
  1.20000000E+00  1.50000000E+00  1.20000000E+00  1.20000000E+00  1.50000000E+00
  1.20000000E+00  1.20000000E+00  1.50000000E+00  1.20000000E+00  1.20000000E+00
  1.50000000E+00  1.20000000E+00  1.20000000E+00  1.50000000E+00  1.20000000E+00
  1.20000000E+00  1.50000000E+00  1.20000000E+00  1.20000000E+00  1.50000000E+00
  1.20000000E+00  1.20000000E+00  1.50000000E+00  1.20000000E+00  1.20000000E+00
  1.50000000E+00  1.20000000E+00  1.20000000E+00  1.50000000E+00  1.20000000E+00
  1.20000000E+00  1.50000000E+00  1.20000000E+00  1.20000000E+00  1.50000000E+00
  1.20000000E+00  1.20000000E+00  1.50000000E+00  1.20000000E+00  1.20000000E+00
  1.50000000E+00  1.20000000E+00  1.20000000E+00  1.50000000E+00  1.20000000E+00
  1.20000000E+00  1.50000000E+00  1.20000000E+00  1.20000000E+00  1.50000000E+00
  1.20000000E+00  1.20000000E+00  1.50000000E+00  1.20000000E+00  1.20000000E+00
  1.50000000E+00  1.20000000E+00  1.20000000E+00  1.50000000E+00  1.20000000E+00
  1.20000000E+00  1.50000000E+00  1.20000000E+00  1.20000000E+00  1.50000000E+00
  1.20000000E+00  1.20000000E+00  1.50000000E+00  1.20000000E+00  1.20000000E+00
  1.50000000E+00  1.20000000E+00  1.20000000E+00  1.50000000E+00  1.20000000E+00
  1.20000000E+00  1.50000000E+00  1.20000000E+00  1.20000000E+00  1.50000000E+00
  1.20000000E+00  1.20000000E+00  1.50000000E+00  1.20000000E+00  1.20000000E+00
  1.50000000E+00  1.20000000E+00  1.20000000E+00  1.50000000E+00  1.20000000E+00
  1.20000000E+00  1.50000000E+00  1.20000000E+00  1.20000000E+00  1.50000000E+00
  1.20000000E+00  1.20000000E+00  1.50000000E+00  1.20000000E+00  1.20000000E+00
  1.50000000E+00  1.20000000E+00  1.20000000E+00  1.50000000E+00  1.20000000E+00
  1.20000000E+00  1.50000000E+00  1.20000000E+00  1.20000000E+00  1.50000000E+00
  1.20000000E+00  1.20000000E+00  1.50000000E+00  1.20000000E+00  1.20000000E+00
  1.50000000E+00  1.20000000E+00  1.20000000E+00  1.50000000E+00  1.20000000E+00
  1.20000000E+00  1.50000000E+00  1.20000000E+00  1.20000000E+00  1.50000000E+00
  1.20000000E+00  1.20000000E+00  1.50000000E+00  1.20000000E+00  1.20000000E+00
  1.50000000E+00  1.20000000E+00  1.20000000E+00  1.50000000E+00  1.20000000E+00
  1.20000000E+00  1.50000000E+00  1.20000000E+00  1.20000000E+00  1.50000000E+00
  1.20000000E+00  1.20000000E+00  1.50000000E+00  1.20000000E+00  1.20000000E+00
  1.50000000E+00  1.20000000E+00  1.20000000E+00  1.50000000E+00  1.20000000E+00
  1.20000000E+00  1.50000000E+00  1.20000000E+00  1.20000000E+00  1.50000000E+00
  1.20000000E+00  1.20000000E+00  1.50000000E+00  1.20000000E+00  1.20000000E+00
  1.50000000E+00  1.20000000E+00  1.20000000E+00  1.50000000E+00  1.20000000E+00
  1.20000000E+00  1.50000000E+00  1.20000000E+00  1.20000000E+00  1.50000000E+00
  1.20000000E+00  1.20000000E+00  1.50000000E+00  1.20000000E+00  1.20000000E+00
  1.50000000E+00  1.20000000E+00  1.20000000E+00  1.50000000E+00  1.20000000E+00
  1.20000000E+00  1.50000000E+00  1.20000000E+00  1.20000000E+00  1.50000000E+00
  1.20000000E+00  1.20000000E+00  1.50000000E+00  1.20000000E+00  1.20000000E+00
  1.50000000E+00  1.20000000E+00  1.20000000E+00  1.50000000E+00  1.20000000E+00
  1.20000000E+00  1.50000000E+00  1.20000000E+00  1.20000000E+00  1.50000000E+00
  1.20000000E+00  1.20000000E+00  1.50000000E+00  1.20000000E+00  1.20000000E+00
  1.50000000E+00  1.20000000E+00  1.20000000E+00  1.50000000E+00  1.20000000E+00
  1.20000000E+00  1.50000000E+00  1.20000000E+00  1.20000000E+00  1.50000000E+00
  1.20000000E+00  1.20000000E+00  1.50000000E+00  1.20000000E+00  1.20000000E+00
  1.50000000E+00  1.20000000E+00  1.20000000E+00  1.50000000E+00  1.20000000E+00
  1.20000000E+00  1.50000000E+00  1.20000000E+00  1.20000000E+00  1.50000000E+00
  1.20000000E+00  1.20000000E+00  1.50000000E+00  1.20000000E+00  1.20000000E+00
  1.50000000E+00  1.20000000E+00  1.20000000E+00  1.50000000E+00  1.20000000E+00
  1.20000000E+00  1.50000000E+00  1.20000000E+00  1.20000000E+00  1.50000000E+00
  1.20000000E+00  1.20000000E+00  1.50000000E+00  1.20000000E+00  1.20000000E+00
  1.50000000E+00  1.20000000E+00  1.20000000E+00  1.50000000E+00  1.20000000E+00
  1.20000000E+00  1.50000000E+00  1.20000000E+00  1.20000000E+00  1.50000000E+00
  1.20000000E+00  1.20000000E+00  1.50000000E+00  1.20000000E+00  1.20000000E+00
  1.50000000E+00  1.20000000E+00  1.20000000E+00  1.50000000E+00  1.20000000E+00
  1.20000000E+00  1.50000000E+00  1.20000000E+00  1.20000000E+00  1.50000000E+00
  1.20000000E+00  1.20000000E+00  1.50000000E+00  1.20000000E+00  1.20000000E+00
  1.50000000E+00  1.20000000E+00  1.20000000E+00  1.50000000E+00  1.20000000E+00
  1.20000000E+00  1.50000000E+00  1.20000000E+00  1.20000000E+00  1.50000000E+00
  1.20000000E+00  1.20000000E+00  1.50000000E+00  1.20000000E+00  1.20000000E+00
  1.50000000E+00  1.20000000E+00  1.20000000E+00  1.50000000E+00  1.20000000E+00
  1.20000000E+00  1.50000000E+00  1.20000000E+00  1.20000000E+00  1.50000000E+00
  1.20000000E+00  1.20000000E+00  1.50000000E+00  1.20000000E+00  1.20000000E+00
  1.50000000E+00  1.20000000E+00  1.20000000E+00  1.50000000E+00  1.20000000E+00
  1.20000000E+00  1.50000000E+00  1.20000000E+00  1.20000000E+00  1.50000000E+00
  1.20000000E+00  1.20000000E+00  1.50000000E+00  1.20000000E+00  1.20000000E+00
  1.50000000E+00  1.20000000E+00  1.20000000E+00  1.50000000E+00  1.20000000E+00
  1.20000000E+00  1.50000000E+00  1.20000000E+00  1.20000000E+00  1.50000000E+00
  1.20000000E+00  1.20000000E+00  1.50000000E+00  1.20000000E+00  1.20000000E+00
  1.50000000E+00  1.20000000E+00  1.20000000E+00  1.50000000E+00  1.20000000E+00
  1.20000000E+00  1.50000000E+00  1.20000000E+00  1.20000000E+00  1.50000000E+00
  1.20000000E+00  1.20000000E+00  1.50000000E+00  1.20000000E+00  1.20000000E+00
  1.50000000E+00  1.20000000E+00  1.20000000E+00  1.50000000E+00  1.20000000E+00
  1.20000000E+00  1.50000000E+00  1.20000000E+00  1.20000000E+00  1.50000000E+00
  1.20000000E+00  1.20000000E+00  1.50000000E+00  1.20000000E+00  1.20000000E+00
  1.50000000E+00  1.20000000E+00  1.20000000E+00  1.50000000E+00  1.20000000E+00
  1.20000000E+00  1.50000000E+00  1.20000000E+00  1.20000000E+00  1.50000000E+00
  1.20000000E+00  1.20000000E+00  1.50000000E+00  1.20000000E+00  1.20000000E+00
  1.50000000E+00  1.20000000E+00  1.20000000E+00  1.50000000E+00  1.20000000E+00
  1.20000000E+00  1.50000000E+00  1.20000000E+00  1.20000000E+00  1.50000000E+00
  1.20000000E+00  1.20000000E+00  1.50000000E+00  1.20000000E+00  1.20000000E+00
  1.50000000E+00  1.20000000E+00  1.20000000E+00  1.50000000E+00  1.20000000E+00
  1.20000000E+00  1.50000000E+00  1.20000000E+00  1.20000000E+00  1.50000000E+00
  1.20000000E+00  1.20000000E+00  1.50000000E+00  1.20000000E+00  1.20000000E+00
  1.50000000E+00  1.20000000E+00  1.20000000E+00  1.50000000E+00  1.20000000E+00
  1.20000000E+00  1.50000000E+00  1.20000000E+00  1.20000000E+00  1.50000000E+00
  1.20000000E+00  1.20000000E+00  1.50000000E+00  1.20000000E+00  1.20000000E+00
  1.50000000E+00  1.20000000E+00  1.20000000E+00  1.50000000E+00  1.20000000E+00
  1.20000000E+00  1.50000000E+00  1.20000000E+00  1.20000000E+00  1.50000000E+00
  1.20000000E+00  1.20000000E+00  1.50000000E+00  1.20000000E+00  1.20000000E+00
  1.50000000E+00  1.20000000E+00  1.20000000E+00  1.50000000E+00  1.20000000E+00
  1.20000000E+00  1.50000000E+00  1.20000000E+00  1.20000000E+00  1.50000000E+00
  1.20000000E+00  1.20000000E+00  1.50000000E+00  1.20000000E+00  1.20000000E+00
  1.50000000E+00  1.20000000E+00  1.20000000E+00  1.50000000E+00  1.20000000E+00
  1.20000000E+00  1.50000000E+00  1.20000000E+00  1.20000000E+00  1.50000000E+00
  1.20000000E+00  1.20000000E+00  1.50000000E+00  1.20000000E+00  1.20000000E+00
  1.50000000E+00  1.20000000E+00  1.20000000E+00  1.50000000E+00  1.20000000E+00
  1.20000000E+00  1.50000000E+00  1.20000000E+00  1.20000000E+00  1.50000000E+00
  1.20000000E+00  1.20000000E+00  1.50000000E+00  1.20000000E+00  1.20000000E+00
  1.50000000E+00  1.20000000E+00  1.20000000E+00  1.50000000E+00  1.20000000E+00
  1.20000000E+00  1.50000000E+00  1.20000000E+00  1.20000000E+00  1.50000000E+00
  1.20000000E+00  1.20000000E+00  1.50000000E+00  1.20000000E+00  1.20000000E+00
  1.50000000E+00  1.20000000E+00  1.20000000E+00  1.50000000E+00  1.20000000E+00
  1.20000000E+00  1.50000000E+00  1.20000000E+00  1.20000000E+00  1.50000000E+00
  1.20000000E+00  1.20000000E+00  1.50000000E+00  1.20000000E+00  1.20000000E+00
  1.50000000E+00  1.20000000E+00  1.20000000E+00  1.50000000E+00  1.20000000E+00
  1.20000000E+00  1.50000000E+00  1.20000000E+00  1.20000000E+00  1.50000000E+00
  1.20000000E+00  1.20000000E+00  1.50000000E+00  1.20000000E+00  1.20000000E+00
  1.50000000E+00  1.20000000E+00  1.20000000E+00  1.50000000E+00  1.20000000E+00
  1.20000000E+00  1.50000000E+00  1.20000000E+00  1.20000000E+00  1.50000000E+00
  1.20000000E+00  1.20000000E+00  1.50000000E+00  1.20000000E+00  1.20000000E+00
  1.50000000E+00  1.20000000E+00  1.20000000E+00  1.50000000E+00  1.20000000E+00
  1.20000000E+00  1.50000000E+00  1.20000000E+00  1.20000000E+00  1.50000000E+00
  1.20000000E+00  1.20000000E+00  1.50000000E+00  1.20000000E+00  1.20000000E+00
  1.50000000E+00  1.20000000E+00  1.20000000E+00  1.50000000E+00  1.20000000E+00
  1.20000000E+00  1.50000000E+00  1.20000000E+00  1.20000000E+00  1.50000000E+00
  1.20000000E+00  1.20000000E+00  1.50000000E+00  1.20000000E+00  1.20000000E+00
  1.50000000E+00  1.20000000E+00  1.20000000E+00  1.50000000E+00  1.20000000E+00
  1.20000000E+00  1.50000000E+00  1.20000000E+00  1.20000000E+00  1.50000000E+00
  1.20000000E+00  1.20000000E+00  1.50000000E+00  1.20000000E+00  1.20000000E+00
  1.50000000E+00  1.20000000E+00  1.20000000E+00  1.50000000E+00  1.20000000E+00
  1.20000000E+00  1.50000000E+00  1.20000000E+00  1.20000000E+00  1.50000000E+00
  1.20000000E+00  1.20000000E+00  1.50000000E+00  1.20000000E+00  1.20000000E+00
  1.50000000E+00  1.20000000E+00  1.20000000E+00  1.50000000E+00  1.20000000E+00
  1.20000000E+00  1.50000000E+00  1.20000000E+00  1.20000000E+00  1.50000000E+00
  1.20000000E+00  1.20000000E+00  1.50000000E+00  1.20000000E+00  1.20000000E+00
  1.50000000E+00  1.20000000E+00  1.20000000E+00  1.50000000E+00  1.20000000E+00
  1.20000000E+00  1.50000000E+00  1.20000000E+00  1.20000000E+00  1.50000000E+00
  1.20000000E+00  1.20000000E+00  1.50000000E+00  1.20000000E+00  1.20000000E+00
  1.50000000E+00  1.20000000E+00  1.20000000E+00  1.50000000E+00  1.20000000E+00
  1.20000000E+00  1.50000000E+00  1.20000000E+00  1.20000000E+00  1.50000000E+00
  1.20000000E+00  1.20000000E+00  1.50000000E+00  1.20000000E+00  1.20000000E+00
  1.50000000E+00  1.20000000E+00  1.20000000E+00  1.50000000E+00  1.20000000E+00
  1.20000000E+00  1.50000000E+00  1.20000000E+00  1.20000000E+00  1.50000000E+00
  1.20000000E+00  1.20000000E+00  1.50000000E+00  1.20000000E+00  1.20000000E+00
  1.50000000E+00  1.20000000E+00  1.20000000E+00  1.50000000E+00  1.20000000E+00
  1.20000000E+00  1.50000000E+00  1.20000000E+00  1.20000000E+00  1.50000000E+00
  1.20000000E+00  1.20000000E+00  1.50000000E+00  1.20000000E+00  1.20000000E+00
  1.50000000E+00  1.20000000E+00  1.20000000E+00  1.50000000E+00  1.20000000E+00
  1.20000000E+00  1.50000000E+00  1.20000000E+00  1.20000000E+00  1.50000000E+00
  1.20000000E+00  1.20000000E+00  1.50000000E+00  1.20000000E+00  1.20000000E+00
  1.50000000E+00  1.20000000E+00  1.20000000E+00  1.50000000E+00  1.20000000E+00
  1.20000000E+00  1.50000000E+00  1.20000000E+00  1.20000000E+00  1.50000000E+00
  1.20000000E+00  1.20000000E+00  1.50000000E+00  1.20000000E+00  1.20000000E+00
  1.50000000E+00  1.20000000E+00  1.20000000E+00  1.50000000E+00  1.20000000E+00
  1.20000000E+00  1.50000000E+00  1.20000000E+00  1.20000000E+00  1.50000000E+00
  1.20000000E+00  1.20000000E+00  1.50000000E+00  1.20000000E+00  1.20000000E+00
  1.50000000E+00  1.20000000E+00  1.20000000E+00  1.50000000E+00  1.20000000E+00
  1.20000000E+00  1.50000000E+00  1.20000000E+00  1.20000000E+00  1.50000000E+00
  1.20000000E+00  1.20000000E+00  1.50000000E+00  1.20000000E+00  1.20000000E+00
  1.50000000E+00  1.20000000E+00  1.20000000E+00  1.50000000E+00  1.20000000E+00
  1.20000000E+00  1.50000000E+00  1.20000000E+00  1.20000000E+00  1.50000000E+00
  1.20000000E+00  1.20000000E+00  1.50000000E+00  1.20000000E+00  1.20000000E+00
  1.50000000E+00  1.20000000E+00  1.20000000E+00  1.50000000E+00  1.20000000E+00
  1.20000000E+00  1.50000000E+00  1.20000000E+00  1.20000000E+00  1.50000000E+00
  1.20000000E+00  1.20000000E+00  1.50000000E+00  1.20000000E+00  1.20000000E+00
  1.50000000E+00  1.20000000E+00  1.20000000E+00  1.50000000E+00  1.20000000E+00
  1.20000000E+00  1.50000000E+00  1.20000000E+00  1.20000000E+00  1.50000000E+00
  1.20000000E+00  1.20000000E+00  1.50000000E+00  1.20000000E+00  1.20000000E+00
  1.50000000E+00  1.20000000E+00  1.20000000E+00  1.50000000E+00  1.20000000E+00
  1.20000000E+00  1.50000000E+00  1.20000000E+00  1.20000000E+00  1.50000000E+00
  1.20000000E+00  1.20000000E+00  1.50000000E+00  1.20000000E+00  1.20000000E+00
  1.50000000E+00  1.20000000E+00  1.20000000E+00  1.50000000E+00  1.20000000E+00
  1.20000000E+00  1.50000000E+00  1.20000000E+00  1.20000000E+00  1.50000000E+00
  1.20000000E+00  1.20000000E+00  1.50000000E+00  1.20000000E+00  1.20000000E+00
  1.50000000E+00  1.20000000E+00  1.20000000E+00  1.50000000E+00  1.20000000E+00
  1.20000000E+00  1.50000000E+00  1.20000000E+00  1.20000000E+00  1.50000000E+00
  1.20000000E+00  1.20000000E+00  1.50000000E+00  1.20000000E+00  1.20000000E+00
  1.50000000E+00  1.20000000E+00  1.20000000E+00  1.50000000E+00  1.20000000E+00
  1.20000000E+00  1.50000000E+00  1.20000000E+00  1.20000000E+00  1.50000000E+00
  1.20000000E+00  1.20000000E+00  1.50000000E+00  1.20000000E+00  1.20000000E+00
  1.50000000E+00  1.20000000E+00  1.20000000E+00  1.50000000E+00  1.20000000E+00
  1.20000000E+00  1.50000000E+00  1.20000000E+00  1.20000000E+00  1.50000000E+00
  1.20000000E+00  1.20000000E+00  1.50000000E+00  1.20000000E+00  1.20000000E+00
  1.50000000E+00  1.20000000E+00  1.20000000E+00  1.50000000E+00  1.20000000E+00
  1.20000000E+00  1.50000000E+00  1.20000000E+00  1.20000000E+00  1.50000000E+00
  1.20000000E+00  1.20000000E+00  1.50000000E+00  1.20000000E+00  1.20000000E+00
  1.50000000E+00  1.20000000E+00  1.20000000E+00  1.50000000E+00  1.20000000E+00
  1.20000000E+00  1.50000000E+00  1.20000000E+00  1.20000000E+00  1.50000000E+00
  1.20000000E+00  1.20000000E+00  1.50000000E+00  1.20000000E+00  1.20000000E+00
  1.50000000E+00  1.20000000E+00  1.20000000E+00  1.50000000E+00  1.20000000E+00
  1.20000000E+00  1.50000000E+00  1.20000000E+00  1.20000000E+00  1.50000000E+00
  1.20000000E+00  1.20000000E+00  1.50000000E+00  1.20000000E+00  1.20000000E+00
  1.50000000E+00  1.20000000E+00  1.20000000E+00  1.50000000E+00  1.20000000E+00
  1.20000000E+00  1.50000000E+00  1.20000000E+00  1.20000000E+00  1.50000000E+00
  1.20000000E+00  1.20000000E+00  1.50000000E+00  1.20000000E+00  1.20000000E+00
  1.50000000E+00  1.20000000E+00  1.20000000E+00  1.50000000E+00  1.20000000E+00
  1.20000000E+00  1.50000000E+00  1.20000000E+00  1.20000000E+00  1.50000000E+00
  1.20000000E+00  1.20000000E+00  1.50000000E+00  1.20000000E+00  1.20000000E+00
  1.50000000E+00  1.20000000E+00  1.20000000E+00  1.50000000E+00  1.20000000E+00
  1.20000000E+00  1.50000000E+00  1.20000000E+00  1.20000000E+00  1.50000000E+00
  1.20000000E+00  1.20000000E+00  1.50000000E+00  1.20000000E+00  1.20000000E+00
  1.50000000E+00  1.20000000E+00  1.20000000E+00  1.50000000E+00  1.20000000E+00
  1.20000000E+00  1.50000000E+00  1.20000000E+00  1.20000000E+00  1.50000000E+00
  1.20000000E+00  1.20000000E+00  1.50000000E+00  1.20000000E+00  1.20000000E+00
  1.50000000E+00  1.20000000E+00  1.20000000E+00  1.50000000E+00  1.20000000E+00
  1.20000000E+00  1.50000000E+00  1.20000000E+00  1.20000000E+00  1.50000000E+00
  1.20000000E+00  1.20000000E+00  1.50000000E+00  1.20000000E+00  1.20000000E+00
  1.50000000E+00  1.20000000E+00  1.20000000E+00  1.50000000E+00  1.20000000E+00
  1.20000000E+00  1.50000000E+00  1.20000000E+00  1.20000000E+00  1.50000000E+00
  1.20000000E+00  1.20000000E+00  1.50000000E+00  1.20000000E+00  1.20000000E+00
  1.50000000E+00  1.20000000E+00  1.20000000E+00  1.50000000E+00  1.20000000E+00
  1.20000000E+00  1.50000000E+00  1.20000000E+00  1.20000000E+00  1.50000000E+00
  1.20000000E+00  1.20000000E+00  1.50000000E+00  1.20000000E+00  1.20000000E+00
  1.50000000E+00  1.20000000E+00  1.20000000E+00  1.50000000E+00  1.20000000E+00
  1.20000000E+00  1.50000000E+00  1.20000000E+00  1.20000000E+00  1.50000000E+00
  1.20000000E+00  1.20000000E+00  1.50000000E+00  1.20000000E+00  1.20000000E+00
  1.50000000E+00  1.20000000E+00  1.20000000E+00  1.50000000E+00  1.20000000E+00
  1.20000000E+00  1.50000000E+00  1.20000000E+00  1.20000000E+00  1.50000000E+00
  1.20000000E+00  1.20000000E+00  1.50000000E+00  1.20000000E+00  1.20000000E+00
  1.50000000E+00  1.20000000E+00  1.20000000E+00  1.50000000E+00  1.20000000E+00
  1.20000000E+00  1.50000000E+00  1.20000000E+00  1.20000000E+00  1.50000000E+00
  1.20000000E+00  1.20000000E+00  1.50000000E+00  1.20000000E+00  1.20000000E+00
  1.50000000E+00  1.20000000E+00  1.20000000E+00  1.50000000E+00  1.20000000E+00
  1.20000000E+00  1.50000000E+00  1.20000000E+00  1.20000000E+00  1.50000000E+00
  1.20000000E+00  1.20000000E+00  1.50000000E+00  1.20000000E+00  1.20000000E+00
  1.50000000E+00  1.20000000E+00  1.20000000E+00  1.50000000E+00  1.20000000E+00
  1.20000000E+00  1.50000000E+00  1.20000000E+00  1.20000000E+00  1.50000000E+00
  1.20000000E+00  1.20000000E+00  1.50000000E+00  1.20000000E+00  1.20000000E+00
  1.50000000E+00  1.20000000E+00  1.20000000E+00  1.50000000E+00  1.20000000E+00
  1.20000000E+00  1.50000000E+00  1.20000000E+00  1.20000000E+00  1.50000000E+00
  1.20000000E+00  1.20000000E+00  1.50000000E+00  1.20000000E+00  1.20000000E+00
  1.50000000E+00  1.20000000E+00  1.20000000E+00  1.50000000E+00  1.20000000E+00
  1.20000000E+00  1.50000000E+00  1.20000000E+00  1.20000000E+00  1.50000000E+00
  1.20000000E+00  1.20000000E+00  1.50000000E+00  1.20000000E+00  1.20000000E+00
  1.50000000E+00  1.20000000E+00  1.20000000E+00  1.50000000E+00  1.20000000E+00
  1.20000000E+00  1.50000000E+00  1.20000000E+00  1.20000000E+00  1.50000000E+00
  1.20000000E+00  1.20000000E+00  1.50000000E+00  1.20000000E+00  1.20000000E+00
  1.50000000E+00  1.20000000E+00  1.20000000E+00  1.50000000E+00  1.20000000E+00
  1.20000000E+00  1.50000000E+00  1.20000000E+00  1.20000000E+00  1.50000000E+00
  1.20000000E+00  1.20000000E+00  1.50000000E+00  1.20000000E+00  1.20000000E+00
  1.50000000E+00  1.20000000E+00  1.20000000E+00  1.50000000E+00  1.20000000E+00
  1.20000000E+00  1.50000000E+00  1.20000000E+00  1.20000000E+00  1.50000000E+00
  1.20000000E+00  1.20000000E+00  1.50000000E+00  1.20000000E+00  1.20000000E+00
  1.50000000E+00  1.20000000E+00  1.20000000E+00  1.50000000E+00  1.20000000E+00
  1.20000000E+00  1.50000000E+00  1.20000000E+00  1.20000000E+00  1.50000000E+00
  1.20000000E+00  1.20000000E+00  1.50000000E+00  1.20000000E+00  1.20000000E+00
  1.50000000E+00  1.20000000E+00  1.20000000E+00  1.50000000E+00  1.20000000E+00
  1.20000000E+00  1.50000000E+00  1.20000000E+00  1.20000000E+00  1.50000000E+00
  1.20000000E+00  1.20000000E+00  1.50000000E+00  1.20000000E+00  1.20000000E+00
  1.50000000E+00  1.20000000E+00  1.20000000E+00  1.50000000E+00  1.20000000E+00
  1.20000000E+00  1.50000000E+00  1.20000000E+00  1.20000000E+00  1.50000000E+00
  1.20000000E+00  1.20000000E+00  1.50000000E+00  1.20000000E+00  1.20000000E+00
  1.50000000E+00  1.20000000E+00  1.20000000E+00  1.50000000E+00  1.20000000E+00
  1.20000000E+00  1.50000000E+00  1.20000000E+00  1.20000000E+00  1.50000000E+00
  1.20000000E+00  1.20000000E+00  1.50000000E+00  1.20000000E+00  1.20000000E+00
  1.50000000E+00  1.20000000E+00  1.20000000E+00  1.50000000E+00  1.20000000E+00
  1.20000000E+00  1.50000000E+00  1.20000000E+00  1.20000000E+00  1.50000000E+00
  1.20000000E+00  1.20000000E+00  1.50000000E+00  1.20000000E+00  1.20000000E+00
  1.50000000E+00  1.20000000E+00  1.20000000E+00  1.50000000E+00  1.20000000E+00
  1.20000000E+00  1.50000000E+00  1.20000000E+00  1.20000000E+00  1.50000000E+00
  1.20000000E+00  1.20000000E+00  1.50000000E+00  1.20000000E+00  1.20000000E+00
  1.50000000E+00  1.20000000E+00  1.20000000E+00  1.50000000E+00  1.20000000E+00
  1.20000000E+00  1.50000000E+00  1.20000000E+00  1.20000000E+00  1.50000000E+00
  1.20000000E+00  1.20000000E+00  1.50000000E+00  1.20000000E+00  1.20000000E+00
  1.50000000E+00  1.20000000E+00  1.20000000E+00  1.50000000E+00  1.20000000E+00
  1.20000000E+00  1.50000000E+00  1.20000000E+00  1.20000000E+00  1.50000000E+00
  1.20000000E+00  1.20000000E+00  1.50000000E+00  1.20000000E+00  1.20000000E+00
  1.50000000E+00  1.20000000E+00  1.20000000E+00  1.50000000E+00  1.20000000E+00
  1.20000000E+00  1.50000000E+00  1.20000000E+00  1.20000000E+00  1.50000000E+00
  1.20000000E+00  1.20000000E+00  1.50000000E+00  1.20000000E+00  1.20000000E+00
  1.50000000E+00  1.20000000E+00  1.20000000E+00  1.50000000E+00  1.20000000E+00
  1.20000000E+00  1.50000000E+00  1.20000000E+00  1.20000000E+00  1.50000000E+00
  1.20000000E+00  1.20000000E+00  1.50000000E+00  1.20000000E+00  1.20000000E+00
  1.50000000E+00  1.20000000E+00  1.20000000E+00  1.50000000E+00  1.20000000E+00
  1.20000000E+00  1.50000000E+00  1.20000000E+00  1.20000000E+00  1.50000000E+00
  1.20000000E+00  1.20000000E+00  1.50000000E+00  1.20000000E+00  1.20000000E+00
  1.50000000E+00  1.20000000E+00  1.20000000E+00  1.50000000E+00  1.20000000E+00
  1.20000000E+00  1.50000000E+00  1.20000000E+00  1.20000000E+00  1.50000000E+00
  1.20000000E+00  1.20000000E+00  1.50000000E+00  1.20000000E+00  1.20000000E+00
  1.50000000E+00  1.20000000E+00  1.20000000E+00  1.50000000E+00  1.20000000E+00
  1.20000000E+00  1.50000000E+00  1.20000000E+00  1.20000000E+00  1.50000000E+00
  1.20000000E+00  1.20000000E+00  1.50000000E+00  1.20000000E+00  1.20000000E+00
  1.50000000E+00  1.20000000E+00  1.20000000E+00  1.50000000E+00  1.20000000E+00
  1.20000000E+00  1.50000000E+00  1.20000000E+00  1.20000000E+00  1.50000000E+00
  1.20000000E+00  1.20000000E+00  1.50000000E+00  1.20000000E+00  1.20000000E+00
  1.50000000E+00  1.20000000E+00  1.20000000E+00  1.50000000E+00  1.20000000E+00
  1.20000000E+00  1.50000000E+00  1.20000000E+00  1.20000000E+00  1.50000000E+00
  1.20000000E+00  1.20000000E+00  1.50000000E+00  1.20000000E+00  1.20000000E+00
  1.50000000E+00  1.20000000E+00  1.20000000E+00  1.50000000E+00  1.20000000E+00
  1.20000000E+00  1.50000000E+00  1.20000000E+00  1.20000000E+00  1.50000000E+00
  1.20000000E+00  1.20000000E+00  1.50000000E+00  1.20000000E+00  1.20000000E+00
  1.50000000E+00  1.20000000E+00  1.20000000E+00  1.50000000E+00  1.20000000E+00
  1.20000000E+00  1.50000000E+00  1.20000000E+00  1.20000000E+00  1.50000000E+00
  1.20000000E+00  1.20000000E+00  1.50000000E+00  1.20000000E+00  1.20000000E+00
  1.50000000E+00  1.20000000E+00  1.20000000E+00  1.50000000E+00  1.20000000E+00
  1.20000000E+00  1.50000000E+00  1.20000000E+00  1.20000000E+00  1.50000000E+00
  1.20000000E+00  1.20000000E+00  1.50000000E+00  1.20000000E+00  1.20000000E+00
  1.50000000E+00  1.20000000E+00  1.20000000E+00  1.50000000E+00  1.20000000E+00
  1.20000000E+00  1.50000000E+00  1.20000000E+00  1.20000000E+00  1.50000000E+00
  1.20000000E+00  1.20000000E+00  1.50000000E+00  1.20000000E+00  1.20000000E+00
  1.50000000E+00  1.20000000E+00  1.20000000E+00  1.50000000E+00  1.20000000E+00
  1.20000000E+00  1.50000000E+00  1.20000000E+00  1.20000000E+00  1.50000000E+00
  1.20000000E+00  1.20000000E+00  1.50000000E+00  1.20000000E+00  1.20000000E+00
  1.50000000E+00  1.20000000E+00  1.20000000E+00  1.50000000E+00  1.20000000E+00
  1.20000000E+00  1.50000000E+00  1.20000000E+00  1.20000000E+00  1.50000000E+00
  1.20000000E+00  1.20000000E+00  1.50000000E+00  1.20000000E+00  1.20000000E+00
  1.50000000E+00  1.20000000E+00  1.20000000E+00  1.50000000E+00  1.20000000E+00
  1.20000000E+00  1.50000000E+00  1.20000000E+00  1.20000000E+00  1.50000000E+00
  1.20000000E+00  1.20000000E+00  1.50000000E+00  1.20000000E+00  1.20000000E+00
  1.50000000E+00  1.20000000E+00  1.20000000E+00  1.50000000E+00  1.20000000E+00
  1.20000000E+00  1.50000000E+00  1.20000000E+00  1.20000000E+00  1.50000000E+00
  1.20000000E+00  1.20000000E+00  1.50000000E+00  1.20000000E+00  1.20000000E+00
  1.50000000E+00  1.20000000E+00  1.20000000E+00  1.50000000E+00  1.20000000E+00
  1.20000000E+00  1.50000000E+00  1.20000000E+00  1.20000000E+00  1.50000000E+00
  1.20000000E+00  1.20000000E+00  1.50000000E+00  1.20000000E+00  1.20000000E+00
  1.50000000E+00  1.20000000E+00  1.20000000E+00  1.50000000E+00  1.20000000E+00
  1.20000000E+00  1.50000000E+00  1.20000000E+00  1.20000000E+00  1.50000000E+00
  1.20000000E+00  1.20000000E+00  1.50000000E+00  1.20000000E+00  1.20000000E+00
  1.50000000E+00  1.20000000E+00  1.20000000E+00  1.50000000E+00  1.20000000E+00
  1.20000000E+00  1.50000000E+00  1.20000000E+00  1.20000000E+00  1.50000000E+00
  1.20000000E+00  1.20000000E+00  1.50000000E+00  1.20000000E+00  1.20000000E+00
  1.50000000E+00  1.20000000E+00  1.20000000E+00  1.50000000E+00  1.20000000E+00
  1.20000000E+00  1.50000000E+00  1.20000000E+00  1.20000000E+00  1.50000000E+00
  1.20000000E+00  1.20000000E+00  1.50000000E+00  1.20000000E+00  1.20000000E+00
  1.50000000E+00  1.20000000E+00  1.20000000E+00  1.50000000E+00  1.20000000E+00
  1.20000000E+00  1.50000000E+00  1.20000000E+00  1.20000000E+00  1.50000000E+00
  1.20000000E+00  1.20000000E+00  1.50000000E+00  1.20000000E+00  1.20000000E+00
  1.50000000E+00  1.20000000E+00  1.20000000E+00  1.50000000E+00  1.20000000E+00
  1.20000000E+00  1.50000000E+00  1.20000000E+00  1.20000000E+00  1.50000000E+00
  1.20000000E+00  1.20000000E+00  1.50000000E+00  1.20000000E+00  1.20000000E+00
  1.50000000E+00  1.20000000E+00  1.20000000E+00  1.50000000E+00  1.20000000E+00
  1.20000000E+00  1.50000000E+00  1.20000000E+00  1.20000000E+00  1.50000000E+00
  1.20000000E+00  1.20000000E+00  1.50000000E+00  1.20000000E+00  1.20000000E+00
  1.50000000E+00  1.20000000E+00  1.20000000E+00  1.50000000E+00  1.20000000E+00
  1.20000000E+00  1.50000000E+00  1.20000000E+00  1.20000000E+00  1.50000000E+00
  1.20000000E+00  1.20000000E+00  1.50000000E+00  1.20000000E+00  1.20000000E+00
  1.50000000E+00  1.20000000E+00  1.20000000E+00  1.50000000E+00  1.20000000E+00
  1.20000000E+00  1.50000000E+00  1.20000000E+00  1.20000000E+00  1.50000000E+00
  1.20000000E+00  1.20000000E+00  1.50000000E+00  1.20000000E+00  1.20000000E+00
  1.50000000E+00  1.20000000E+00  1.20000000E+00  1.50000000E+00  1.20000000E+00
  1.20000000E+00  1.50000000E+00  1.20000000E+00  1.20000000E+00  1.50000000E+00
  1.20000000E+00  1.20000000E+00  1.50000000E+00  1.20000000E+00  1.20000000E+00
  1.50000000E+00  1.20000000E+00  1.20000000E+00  1.50000000E+00  1.20000000E+00
  1.20000000E+00  1.50000000E+00  1.20000000E+00  1.20000000E+00  1.50000000E+00
  1.20000000E+00  1.20000000E+00  1.50000000E+00  1.20000000E+00  1.20000000E+00
  1.50000000E+00  1.20000000E+00  1.20000000E+00  1.50000000E+00  1.20000000E+00
  1.20000000E+00  1.50000000E+00  1.20000000E+00  1.20000000E+00  1.50000000E+00
  1.20000000E+00  1.20000000E+00  1.50000000E+00  1.20000000E+00  1.20000000E+00
  1.50000000E+00  1.20000000E+00  1.20000000E+00  1.50000000E+00  1.20000000E+00
  1.20000000E+00  1.50000000E+00  1.20000000E+00  1.20000000E+00  1.50000000E+00
  1.20000000E+00  1.20000000E+00  1.50000000E+00  1.20000000E+00  1.20000000E+00
  1.50000000E+00  1.20000000E+00  1.20000000E+00  1.50000000E+00  1.20000000E+00
  1.20000000E+00  1.50000000E+00  1.20000000E+00  1.20000000E+00  1.50000000E+00
  1.20000000E+00  1.20000000E+00  1.50000000E+00  1.20000000E+00  1.20000000E+00
  1.50000000E+00  1.20000000E+00  1.20000000E+00  1.50000000E+00  1.20000000E+00
  1.20000000E+00  1.50000000E+00  1.20000000E+00  1.20000000E+00  1.50000000E+00
  1.20000000E+00  1.20000000E+00  1.50000000E+00  1.20000000E+00  1.20000000E+00
  1.50000000E+00  1.20000000E+00  1.20000000E+00  1.50000000E+00  1.20000000E+00
  1.20000000E+00  1.50000000E+00  1.20000000E+00  1.20000000E+00  1.50000000E+00
  1.20000000E+00  1.20000000E+00  1.50000000E+00  1.20000000E+00  1.20000000E+00
  1.50000000E+00  1.20000000E+00  1.20000000E+00  1.50000000E+00  1.20000000E+00
  1.20000000E+00  1.50000000E+00  1.20000000E+00  1.20000000E+00  1.50000000E+00
  1.20000000E+00  1.20000000E+00  1.50000000E+00  1.20000000E+00  1.20000000E+00
  1.50000000E+00  1.20000000E+00  1.20000000E+00  1.50000000E+00  1.20000000E+00
  1.20000000E+00  1.50000000E+00  1.20000000E+00  1.20000000E+00  1.50000000E+00
  1.20000000E+00  1.20000000E+00  1.50000000E+00  1.20000000E+00  1.20000000E+00
  1.50000000E+00  1.20000000E+00  1.20000000E+00  1.50000000E+00  1.20000000E+00
  1.20000000E+00  1.50000000E+00  1.20000000E+00  1.20000000E+00  1.50000000E+00
  1.20000000E+00  1.20000000E+00  1.50000000E+00  1.20000000E+00  1.20000000E+00
  1.50000000E+00  1.20000000E+00  1.20000000E+00  1.50000000E+00  1.20000000E+00
  1.20000000E+00  1.50000000E+00  1.20000000E+00  1.20000000E+00  1.50000000E+00
  1.20000000E+00  1.20000000E+00  1.50000000E+00  1.20000000E+00  1.20000000E+00
  1.50000000E+00  1.20000000E+00  1.20000000E+00  1.50000000E+00  1.20000000E+00
  1.20000000E+00  1.50000000E+00  1.20000000E+00  1.20000000E+00  1.50000000E+00
  1.20000000E+00  1.20000000E+00  1.50000000E+00  1.20000000E+00  1.20000000E+00
  1.50000000E+00  1.20000000E+00  1.20000000E+00  1.50000000E+00  1.20000000E+00
  1.20000000E+00  1.50000000E+00  1.20000000E+00  1.20000000E+00  1.50000000E+00
  1.20000000E+00  1.20000000E+00  1.50000000E+00  1.20000000E+00  1.20000000E+00
  1.50000000E+00  1.20000000E+00  1.20000000E+00  1.50000000E+00  1.20000000E+00
  1.20000000E+00  1.50000000E+00  1.20000000E+00  1.20000000E+00  1.50000000E+00
  1.20000000E+00  1.20000000E+00  1.50000000E+00  1.20000000E+00  1.20000000E+00
  1.50000000E+00  1.20000000E+00  1.20000000E+00  1.50000000E+00  1.20000000E+00
  1.20000000E+00  1.50000000E+00  1.20000000E+00  1.20000000E+00  1.50000000E+00
  1.20000000E+00  1.20000000E+00  1.50000000E+00  1.20000000E+00  1.20000000E+00
  1.50000000E+00  1.20000000E+00  1.20000000E+00  1.50000000E+00  1.20000000E+00
  1.20000000E+00  1.50000000E+00  1.20000000E+00  1.20000000E+00  1.50000000E+00
  1.20000000E+00  1.20000000E+00  1.50000000E+00  1.20000000E+00  1.20000000E+00
  1.50000000E+00  1.20000000E+00  1.20000000E+00  1.50000000E+00  1.20000000E+00
  1.20000000E+00  1.50000000E+00  1.20000000E+00  1.20000000E+00  1.50000000E+00
  1.20000000E+00  1.20000000E+00  1.50000000E+00  1.20000000E+00  1.20000000E+00
  1.50000000E+00  1.20000000E+00  1.20000000E+00  1.50000000E+00  1.20000000E+00
  1.20000000E+00  1.50000000E+00  1.20000000E+00  1.20000000E+00  1.50000000E+00
  1.20000000E+00  1.20000000E+00  1.50000000E+00  1.20000000E+00  1.20000000E+00
  1.50000000E+00  1.20000000E+00  1.20000000E+00  1.50000000E+00  1.20000000E+00
  1.20000000E+00  1.50000000E+00  1.20000000E+00  1.20000000E+00  1.50000000E+00
  1.20000000E+00  1.20000000E+00  1.50000000E+00  1.20000000E+00  1.20000000E+00
  1.50000000E+00  1.20000000E+00  1.20000000E+00  1.50000000E+00  1.20000000E+00
  1.20000000E+00  1.50000000E+00  1.20000000E+00  1.20000000E+00  1.50000000E+00
  1.20000000E+00  1.20000000E+00  1.50000000E+00  1.20000000E+00  1.20000000E+00
  1.50000000E+00  1.20000000E+00  1.20000000E+00  1.50000000E+00  1.20000000E+00
  1.20000000E+00  1.50000000E+00  1.20000000E+00  1.20000000E+00  1.50000000E+00
  1.20000000E+00  1.20000000E+00  1.50000000E+00  1.20000000E+00  1.20000000E+00
  1.50000000E+00  1.20000000E+00  1.20000000E+00  1.50000000E+00  1.20000000E+00
  1.20000000E+00  1.50000000E+00  1.20000000E+00  1.20000000E+00  1.50000000E+00
  1.20000000E+00  1.20000000E+00  1.50000000E+00  1.20000000E+00  1.20000000E+00
  1.50000000E+00  1.20000000E+00  1.20000000E+00  1.50000000E+00  1.20000000E+00
  1.20000000E+00  1.50000000E+00  1.20000000E+00  1.20000000E+00  1.50000000E+00
  1.20000000E+00  1.20000000E+00  1.50000000E+00  1.20000000E+00  1.20000000E+00
  1.50000000E+00  1.20000000E+00  1.20000000E+00  1.50000000E+00  1.20000000E+00
  1.20000000E+00  1.50000000E+00  1.20000000E+00  1.20000000E+00  1.50000000E+00
  1.20000000E+00  1.20000000E+00  1.50000000E+00  1.20000000E+00  1.20000000E+00
  1.50000000E+00  1.20000000E+00  1.20000000E+00  1.50000000E+00  1.20000000E+00
  1.20000000E+00  1.50000000E+00  1.20000000E+00  1.20000000E+00  1.50000000E+00
  1.20000000E+00  1.20000000E+00  1.50000000E+00  1.20000000E+00  1.20000000E+00
  1.50000000E+00  1.20000000E+00  1.20000000E+00  1.50000000E+00  1.20000000E+00
  1.20000000E+00  1.50000000E+00  1.20000000E+00  1.20000000E+00  1.50000000E+00
  1.20000000E+00  1.20000000E+00  1.50000000E+00  1.20000000E+00  1.20000000E+00
  1.50000000E+00  1.20000000E+00  1.20000000E+00  1.50000000E+00  1.20000000E+00
  1.20000000E+00  1.50000000E+00  1.20000000E+00  1.20000000E+00  1.50000000E+00
  1.20000000E+00  1.20000000E+00  1.50000000E+00  1.20000000E+00  1.20000000E+00
  1.50000000E+00  1.20000000E+00  1.20000000E+00  1.50000000E+00  1.20000000E+00
  1.20000000E+00  1.50000000E+00  1.20000000E+00  1.20000000E+00  1.50000000E+00
  1.20000000E+00  1.20000000E+00  1.50000000E+00  1.20000000E+00  1.20000000E+00
  1.50000000E+00  1.20000000E+00  1.20000000E+00  1.50000000E+00  1.20000000E+00
  1.20000000E+00  1.50000000E+00  1.20000000E+00  1.20000000E+00  1.50000000E+00
  1.20000000E+00  1.20000000E+00  1.50000000E+00  1.20000000E+00  1.20000000E+00
  1.50000000E+00  1.20000000E+00  1.20000000E+00  1.50000000E+00  1.20000000E+00
  1.20000000E+00  1.50000000E+00  1.20000000E+00  1.20000000E+00  1.50000000E+00
  1.20000000E+00  1.20000000E+00  1.50000000E+00  1.20000000E+00  1.20000000E+00
  1.50000000E+00  1.20000000E+00  1.20000000E+00  1.50000000E+00  1.20000000E+00
  1.20000000E+00  1.50000000E+00  1.20000000E+00  1.20000000E+00  1.50000000E+00
  1.20000000E+00  1.20000000E+00  1.50000000E+00  1.20000000E+00  1.20000000E+00
  1.50000000E+00  1.20000000E+00  1.20000000E+00  1.50000000E+00  1.20000000E+00
  1.20000000E+00  1.50000000E+00  1.20000000E+00  1.20000000E+00  1.50000000E+00
  1.20000000E+00  1.20000000E+00  1.50000000E+00  1.20000000E+00  1.20000000E+00
  1.50000000E+00  1.20000000E+00  1.20000000E+00  1.50000000E+00  1.20000000E+00
  1.20000000E+00  1.50000000E+00  1.20000000E+00  1.20000000E+00  1.50000000E+00
  1.20000000E+00  1.20000000E+00  1.50000000E+00  1.20000000E+00  1.20000000E+00
  1.50000000E+00  1.20000000E+00  1.20000000E+00  1.50000000E+00  1.20000000E+00
  1.20000000E+00  1.50000000E+00  1.20000000E+00  1.20000000E+00  1.50000000E+00
  1.20000000E+00  1.20000000E+00  1.50000000E+00  1.20000000E+00  1.20000000E+00
  1.50000000E+00  1.20000000E+00  1.20000000E+00  1.50000000E+00  1.20000000E+00
  1.20000000E+00  1.50000000E+00  1.20000000E+00  1.20000000E+00  1.50000000E+00
  1.20000000E+00  1.20000000E+00  1.50000000E+00  1.20000000E+00  1.20000000E+00
  1.50000000E+00  1.20000000E+00  1.20000000E+00  1.50000000E+00  1.20000000E+00
  1.20000000E+00  1.50000000E+00  1.20000000E+00  1.20000000E+00  1.50000000E+00
  1.20000000E+00  1.20000000E+00  1.50000000E+00  1.20000000E+00  1.20000000E+00
  1.50000000E+00  1.20000000E+00  1.20000000E+00  1.50000000E+00  1.20000000E+00
  1.20000000E+00  1.50000000E+00  1.20000000E+00  1.20000000E+00  1.50000000E+00
  1.20000000E+00  1.20000000E+00  1.50000000E+00  1.20000000E+00  1.20000000E+00
  1.50000000E+00  1.20000000E+00  1.20000000E+00  1.50000000E+00  1.20000000E+00
  1.20000000E+00  1.50000000E+00  1.20000000E+00  1.20000000E+00  1.50000000E+00
  1.20000000E+00  1.20000000E+00  1.50000000E+00  1.20000000E+00  1.20000000E+00
  1.50000000E+00  1.20000000E+00  1.20000000E+00  1.50000000E+00  1.20000000E+00
  1.20000000E+00  1.50000000E+00  1.20000000E+00  1.20000000E+00  1.50000000E+00
  1.20000000E+00  1.20000000E+00  1.50000000E+00  1.20000000E+00  1.20000000E+00
  1.50000000E+00  1.20000000E+00  1.20000000E+00  1.50000000E+00  1.20000000E+00
  1.20000000E+00  1.50000000E+00  1.20000000E+00  1.20000000E+00  1.50000000E+00
  1.20000000E+00  1.20000000E+00  1.50000000E+00  1.20000000E+00  1.20000000E+00
  1.50000000E+00  1.20000000E+00  1.20000000E+00  1.50000000E+00  1.20000000E+00
  1.20000000E+00  1.50000000E+00  1.20000000E+00  1.20000000E+00  1.50000000E+00
  1.20000000E+00  1.20000000E+00  1.50000000E+00  1.20000000E+00  1.20000000E+00
  1.50000000E+00  1.20000000E+00  1.20000000E+00  1.50000000E+00  1.20000000E+00
  1.20000000E+00  1.50000000E+00  1.20000000E+00  1.20000000E+00  1.50000000E+00
  1.20000000E+00  1.20000000E+00  1.50000000E+00  1.20000000E+00  1.20000000E+00
  1.50000000E+00  1.20000000E+00  1.20000000E+00  1.50000000E+00  1.20000000E+00
  1.20000000E+00  1.50000000E+00  1.20000000E+00  1.20000000E+00  1.50000000E+00
  1.20000000E+00  1.20000000E+00  1.50000000E+00  1.20000000E+00  1.20000000E+00
  1.50000000E+00  1.20000000E+00  1.20000000E+00  1.50000000E+00  1.20000000E+00
  1.20000000E+00  1.50000000E+00  1.20000000E+00  1.20000000E+00  1.50000000E+00
  1.20000000E+00  1.20000000E+00  1.50000000E+00  1.20000000E+00  1.20000000E+00
  1.50000000E+00  1.20000000E+00  1.20000000E+00  1.50000000E+00  1.20000000E+00
  1.20000000E+00  1.50000000E+00  1.20000000E+00  1.20000000E+00  1.50000000E+00
  1.20000000E+00  1.20000000E+00  1.50000000E+00  1.20000000E+00  1.20000000E+00
  1.50000000E+00  1.20000000E+00  1.20000000E+00  1.50000000E+00  1.20000000E+00
  1.20000000E+00  1.50000000E+00  1.20000000E+00  1.20000000E+00  1.50000000E+00
  1.20000000E+00  1.20000000E+00  1.50000000E+00  1.20000000E+00  1.20000000E+00
  1.50000000E+00  1.20000000E+00  1.20000000E+00  1.50000000E+00  1.20000000E+00
  1.20000000E+00  1.50000000E+00  1.20000000E+00  1.20000000E+00  1.50000000E+00
  1.20000000E+00  1.20000000E+00  1.50000000E+00  1.20000000E+00  1.20000000E+00
  1.50000000E+00  1.20000000E+00  1.20000000E+00  1.50000000E+00  1.20000000E+00
  1.20000000E+00  1.50000000E+00  1.20000000E+00  1.20000000E+00  1.50000000E+00
  1.20000000E+00  1.20000000E+00  1.50000000E+00  1.20000000E+00  1.20000000E+00
  1.50000000E+00  1.20000000E+00  1.20000000E+00  1.50000000E+00  1.20000000E+00
  1.20000000E+00  1.50000000E+00  1.20000000E+00  1.20000000E+00  1.50000000E+00
  1.20000000E+00  1.20000000E+00  1.50000000E+00  1.20000000E+00  1.20000000E+00
  1.50000000E+00  1.20000000E+00  1.20000000E+00  1.50000000E+00  1.20000000E+00
  1.20000000E+00  1.50000000E+00  1.20000000E+00  1.20000000E+00  1.50000000E+00
  1.20000000E+00  1.20000000E+00  1.50000000E+00  1.20000000E+00  1.20000000E+00
  1.50000000E+00  1.20000000E+00  1.20000000E+00  1.50000000E+00  1.20000000E+00
  1.20000000E+00  1.50000000E+00  1.20000000E+00  1.20000000E+00  1.50000000E+00
  1.20000000E+00  1.20000000E+00  1.50000000E+00  1.20000000E+00  1.20000000E+00
  1.50000000E+00  1.20000000E+00  1.20000000E+00  1.50000000E+00  1.20000000E+00
  1.20000000E+00  1.50000000E+00  1.20000000E+00  1.20000000E+00  1.50000000E+00
  1.20000000E+00  1.20000000E+00  1.50000000E+00  1.20000000E+00  1.20000000E+00
  1.50000000E+00  1.20000000E+00  1.20000000E+00  1.50000000E+00  1.20000000E+00
  1.20000000E+00  1.50000000E+00  1.20000000E+00  1.20000000E+00  1.50000000E+00
  1.20000000E+00  1.20000000E+00  1.50000000E+00  1.20000000E+00  1.20000000E+00
  1.50000000E+00  1.20000000E+00  1.20000000E+00  1.50000000E+00  1.20000000E+00
  1.20000000E+00  1.50000000E+00  1.20000000E+00  1.20000000E+00  1.50000000E+00
  1.20000000E+00  1.20000000E+00  1.50000000E+00  1.20000000E+00  1.20000000E+00
  1.50000000E+00  1.20000000E+00  1.20000000E+00  1.50000000E+00  1.20000000E+00
  1.20000000E+00  1.50000000E+00  1.20000000E+00  1.20000000E+00  1.50000000E+00
  1.20000000E+00  1.20000000E+00  1.50000000E+00  1.20000000E+00  1.20000000E+00
  1.50000000E+00  1.20000000E+00  1.20000000E+00  1.50000000E+00  1.20000000E+00
  1.20000000E+00  1.50000000E+00  1.20000000E+00  1.20000000E+00  1.50000000E+00
  1.20000000E+00  1.20000000E+00  1.50000000E+00  1.20000000E+00  1.20000000E+00
  1.50000000E+00  1.20000000E+00  1.20000000E+00  1.50000000E+00  1.20000000E+00
  1.20000000E+00  1.50000000E+00  1.20000000E+00  1.20000000E+00  1.50000000E+00
  1.20000000E+00  1.20000000E+00  1.50000000E+00  1.20000000E+00  1.20000000E+00
  1.50000000E+00  1.20000000E+00  1.20000000E+00  1.50000000E+00  1.20000000E+00
  1.20000000E+00  1.50000000E+00  1.20000000E+00  1.20000000E+00  1.50000000E+00
  1.20000000E+00  1.20000000E+00  1.50000000E+00  1.20000000E+00  1.20000000E+00
  1.50000000E+00  1.20000000E+00  1.20000000E+00  1.50000000E+00  1.20000000E+00
  1.20000000E+00  1.50000000E+00  1.20000000E+00  1.20000000E+00  1.50000000E+00
  1.20000000E+00  1.20000000E+00  1.50000000E+00  1.20000000E+00  1.20000000E+00
  1.50000000E+00  1.20000000E+00  1.20000000E+00  1.50000000E+00  1.20000000E+00
  1.20000000E+00  1.50000000E+00  1.20000000E+00  1.20000000E+00  1.50000000E+00
  1.20000000E+00  1.20000000E+00  1.50000000E+00  1.20000000E+00  1.20000000E+00
  1.50000000E+00  1.20000000E+00  1.20000000E+00  1.50000000E+00  1.20000000E+00
  1.20000000E+00  1.50000000E+00  1.20000000E+00  1.20000000E+00  1.50000000E+00
  1.20000000E+00  1.20000000E+00  1.50000000E+00  1.20000000E+00  1.20000000E+00
  1.50000000E+00  1.20000000E+00  1.20000000E+00  1.50000000E+00  1.20000000E+00
  1.20000000E+00  1.50000000E+00  1.20000000E+00  1.20000000E+00  1.50000000E+00
  1.20000000E+00  1.20000000E+00  1.50000000E+00  1.20000000E+00  1.20000000E+00
  1.50000000E+00  1.20000000E+00  1.20000000E+00  1.50000000E+00  1.20000000E+00
  1.20000000E+00  1.50000000E+00  1.20000000E+00  1.20000000E+00  1.50000000E+00
  1.20000000E+00  1.20000000E+00  1.50000000E+00  1.20000000E+00  1.20000000E+00
  1.50000000E+00  1.20000000E+00  1.20000000E+00  1.50000000E+00  1.20000000E+00
  1.20000000E+00  1.50000000E+00  1.20000000E+00  1.20000000E+00  1.50000000E+00
  1.20000000E+00  1.20000000E+00  1.50000000E+00  1.20000000E+00  1.20000000E+00
  1.50000000E+00  1.20000000E+00  1.20000000E+00  1.50000000E+00  1.20000000E+00
  1.20000000E+00  1.50000000E+00  1.20000000E+00  1.20000000E+00  1.50000000E+00
  1.20000000E+00  1.20000000E+00  1.50000000E+00  1.20000000E+00  1.20000000E+00
  1.50000000E+00  1.20000000E+00  1.20000000E+00  1.50000000E+00  1.20000000E+00
  1.20000000E+00  1.50000000E+00  1.20000000E+00  1.20000000E+00  1.50000000E+00
  1.20000000E+00  1.20000000E+00  1.50000000E+00  1.20000000E+00  1.20000000E+00
  1.50000000E+00  1.20000000E+00  1.20000000E+00  1.50000000E+00  1.20000000E+00
  1.20000000E+00  1.50000000E+00  1.20000000E+00  1.20000000E+00  1.50000000E+00
  1.20000000E+00  1.20000000E+00  1.50000000E+00  1.20000000E+00  1.20000000E+00
  1.50000000E+00  1.20000000E+00  1.20000000E+00  1.50000000E+00  1.20000000E+00
  1.20000000E+00  1.50000000E+00  1.20000000E+00  1.20000000E+00  1.50000000E+00
  1.20000000E+00  1.20000000E+00  1.50000000E+00  1.20000000E+00  1.20000000E+00
  1.50000000E+00  1.20000000E+00  1.20000000E+00  1.50000000E+00  1.20000000E+00
  1.20000000E+00  1.50000000E+00  1.20000000E+00  1.20000000E+00  1.50000000E+00
  1.20000000E+00  1.20000000E+00  1.50000000E+00  1.20000000E+00  1.20000000E+00
  1.50000000E+00  1.20000000E+00  1.20000000E+00  1.50000000E+00  1.20000000E+00
  1.20000000E+00  1.50000000E+00  1.20000000E+00  1.20000000E+00  1.50000000E+00
  1.20000000E+00  1.20000000E+00  1.50000000E+00  1.20000000E+00  1.20000000E+00
  1.50000000E+00  1.20000000E+00  1.20000000E+00  1.50000000E+00  1.20000000E+00
  1.20000000E+00  1.50000000E+00  1.20000000E+00  1.20000000E+00  1.50000000E+00
  1.20000000E+00  1.20000000E+00  1.50000000E+00  1.20000000E+00  1.20000000E+00
  1.50000000E+00  1.20000000E+00  1.20000000E+00  1.50000000E+00  1.20000000E+00
  1.20000000E+00  1.50000000E+00  1.20000000E+00  1.20000000E+00  1.50000000E+00
  1.20000000E+00  1.20000000E+00  1.50000000E+00  1.20000000E+00  1.20000000E+00
  1.50000000E+00  1.20000000E+00  1.20000000E+00  1.50000000E+00  1.20000000E+00
  1.20000000E+00  1.50000000E+00  1.20000000E+00  1.20000000E+00  1.50000000E+00
  1.20000000E+00  1.20000000E+00  1.50000000E+00  1.20000000E+00  1.20000000E+00
  1.50000000E+00  1.20000000E+00  1.20000000E+00  1.50000000E+00  1.20000000E+00
  1.20000000E+00  1.50000000E+00  1.20000000E+00  1.20000000E+00  1.50000000E+00
  1.20000000E+00  1.20000000E+00  1.50000000E+00  1.20000000E+00  1.20000000E+00
  1.50000000E+00  1.20000000E+00  1.20000000E+00  1.50000000E+00  1.20000000E+00
  1.20000000E+00  1.50000000E+00  1.20000000E+00  1.20000000E+00  1.50000000E+00
  1.20000000E+00  1.20000000E+00  1.50000000E+00  1.20000000E+00  1.20000000E+00
  1.50000000E+00  1.20000000E+00  1.20000000E+00  1.50000000E+00  1.20000000E+00
  1.20000000E+00  1.50000000E+00  1.20000000E+00  1.20000000E+00  1.50000000E+00
  1.20000000E+00  1.20000000E+00  1.50000000E+00  1.20000000E+00  1.20000000E+00
  1.50000000E+00  1.20000000E+00  1.20000000E+00  1.50000000E+00  1.20000000E+00
  1.20000000E+00  1.50000000E+00  1.20000000E+00  1.20000000E+00  1.50000000E+00
  1.20000000E+00  1.20000000E+00  1.50000000E+00  1.20000000E+00  1.20000000E+00
  1.50000000E+00  1.20000000E+00  1.20000000E+00  1.50000000E+00  1.20000000E+00
  1.20000000E+00  1.50000000E+00  1.20000000E+00  1.20000000E+00  1.50000000E+00
  1.20000000E+00  1.20000000E+00  1.50000000E+00  1.20000000E+00  1.20000000E+00
  1.50000000E+00  1.20000000E+00  1.20000000E+00  1.50000000E+00  1.20000000E+00
  1.20000000E+00  1.50000000E+00  1.20000000E+00  1.20000000E+00  1.50000000E+00
  1.20000000E+00  1.20000000E+00  1.50000000E+00  1.20000000E+00  1.20000000E+00
  1.50000000E+00  1.20000000E+00  1.20000000E+00  1.50000000E+00  1.20000000E+00
  1.20000000E+00  1.50000000E+00  1.20000000E+00  1.20000000E+00  1.50000000E+00
  1.20000000E+00  1.20000000E+00  1.50000000E+00  1.20000000E+00  1.20000000E+00
  1.50000000E+00  1.20000000E+00  1.20000000E+00  1.50000000E+00  1.20000000E+00
  1.20000000E+00  1.50000000E+00  1.20000000E+00  1.20000000E+00  1.50000000E+00
  1.20000000E+00  1.20000000E+00  1.50000000E+00  1.20000000E+00  1.20000000E+00
  1.50000000E+00  1.20000000E+00  1.20000000E+00  1.50000000E+00  1.20000000E+00
  1.20000000E+00  1.50000000E+00  1.20000000E+00  1.20000000E+00  1.50000000E+00
  1.20000000E+00  1.20000000E+00  1.50000000E+00  1.20000000E+00  1.20000000E+00
  1.50000000E+00  1.20000000E+00  1.20000000E+00  1.50000000E+00  1.20000000E+00
  1.20000000E+00  1.50000000E+00  1.20000000E+00  1.20000000E+00  1.50000000E+00
  1.20000000E+00  1.20000000E+00  1.50000000E+00  1.20000000E+00  1.20000000E+00
  1.50000000E+00  1.20000000E+00  1.20000000E+00  1.50000000E+00  1.20000000E+00
  1.20000000E+00  1.50000000E+00  1.20000000E+00  1.20000000E+00  1.50000000E+00
  1.20000000E+00  1.20000000E+00  1.50000000E+00  1.20000000E+00  1.20000000E+00
  1.50000000E+00  1.20000000E+00  1.20000000E+00  1.50000000E+00  1.20000000E+00
  1.20000000E+00  1.50000000E+00  1.20000000E+00  1.20000000E+00  1.50000000E+00
  1.20000000E+00  1.20000000E+00  1.50000000E+00  1.20000000E+00  1.20000000E+00
  1.50000000E+00  1.20000000E+00  1.20000000E+00  1.50000000E+00  1.20000000E+00
  1.20000000E+00  1.50000000E+00  1.20000000E+00  1.20000000E+00  1.50000000E+00
  1.20000000E+00  1.20000000E+00  1.50000000E+00  1.20000000E+00  1.20000000E+00
  1.50000000E+00  1.20000000E+00  1.20000000E+00  1.50000000E+00  1.20000000E+00
  1.20000000E+00  1.50000000E+00  1.20000000E+00  1.20000000E+00  1.50000000E+00
  1.20000000E+00  1.20000000E+00  1.50000000E+00  1.20000000E+00  1.20000000E+00
  1.50000000E+00  1.20000000E+00  1.20000000E+00  1.50000000E+00  1.20000000E+00
  1.20000000E+00  1.50000000E+00  1.20000000E+00  1.20000000E+00  1.50000000E+00
  1.20000000E+00  1.20000000E+00  1.50000000E+00  1.20000000E+00  1.20000000E+00
  1.50000000E+00  1.20000000E+00  1.20000000E+00  1.50000000E+00  1.20000000E+00
  1.20000000E+00  1.50000000E+00  1.20000000E+00  1.20000000E+00  1.50000000E+00
  1.20000000E+00  1.20000000E+00  1.50000000E+00  1.20000000E+00  1.20000000E+00
  1.50000000E+00  1.20000000E+00  1.20000000E+00  1.50000000E+00  1.20000000E+00
  1.20000000E+00  1.50000000E+00  1.20000000E+00  1.20000000E+00  1.50000000E+00
  1.20000000E+00  1.20000000E+00  1.50000000E+00  1.20000000E+00  1.20000000E+00
  1.50000000E+00  1.20000000E+00  1.20000000E+00  1.50000000E+00  1.20000000E+00
  1.20000000E+00  1.50000000E+00  1.20000000E+00  1.20000000E+00  1.50000000E+00
  1.20000000E+00  1.20000000E+00  1.50000000E+00  1.20000000E+00  1.20000000E+00
  1.50000000E+00  1.20000000E+00  1.20000000E+00  1.50000000E+00  1.20000000E+00
  1.20000000E+00  1.50000000E+00  1.20000000E+00  1.20000000E+00  1.50000000E+00
  1.20000000E+00  1.20000000E+00  1.50000000E+00  1.20000000E+00  1.20000000E+00
  1.50000000E+00  1.20000000E+00  1.20000000E+00  1.50000000E+00  1.20000000E+00
  1.20000000E+00  1.50000000E+00  1.20000000E+00  1.20000000E+00  1.50000000E+00
  1.20000000E+00  1.20000000E+00  1.50000000E+00  1.20000000E+00  1.20000000E+00
  1.50000000E+00  1.20000000E+00  1.20000000E+00  1.50000000E+00  1.20000000E+00
  1.20000000E+00  1.50000000E+00  1.20000000E+00  1.20000000E+00  1.50000000E+00
  1.20000000E+00  1.20000000E+00  1.50000000E+00  1.20000000E+00  1.20000000E+00
  1.50000000E+00  1.20000000E+00  1.20000000E+00  1.50000000E+00  1.20000000E+00
  1.20000000E+00  1.50000000E+00  1.20000000E+00  1.20000000E+00  1.50000000E+00
  1.20000000E+00  1.20000000E+00  1.50000000E+00  1.20000000E+00  1.20000000E+00
  1.50000000E+00  1.20000000E+00  1.20000000E+00  1.50000000E+00  1.20000000E+00
  1.20000000E+00  1.50000000E+00  1.20000000E+00  1.20000000E+00  1.50000000E+00
  1.20000000E+00  1.20000000E+00  1.50000000E+00  1.20000000E+00  1.20000000E+00
  1.50000000E+00  1.20000000E+00  1.20000000E+00  1.50000000E+00  1.20000000E+00
  1.20000000E+00  1.50000000E+00  1.20000000E+00  1.20000000E+00  1.50000000E+00
  1.20000000E+00  1.20000000E+00  1.50000000E+00  1.20000000E+00  1.20000000E+00
  1.50000000E+00  1.20000000E+00  1.20000000E+00  1.50000000E+00  1.20000000E+00
  1.20000000E+00  1.50000000E+00  1.20000000E+00  1.20000000E+00  1.50000000E+00
  1.20000000E+00  1.20000000E+00  1.50000000E+00  1.20000000E+00  1.20000000E+00
  1.50000000E+00  1.20000000E+00  1.20000000E+00  1.50000000E+00  1.20000000E+00
  1.20000000E+00  1.50000000E+00  1.20000000E+00  1.20000000E+00  1.50000000E+00
  1.20000000E+00  1.20000000E+00  1.50000000E+00  1.20000000E+00  1.20000000E+00
  1.50000000E+00  1.20000000E+00  1.20000000E+00  1.50000000E+00  1.20000000E+00
  1.20000000E+00  1.50000000E+00  1.20000000E+00  1.20000000E+00  1.50000000E+00
  1.20000000E+00  1.20000000E+00  1.50000000E+00  1.20000000E+00  1.20000000E+00
  1.50000000E+00  1.20000000E+00  1.20000000E+00  1.50000000E+00  1.20000000E+00
  1.20000000E+00  1.50000000E+00  1.20000000E+00  1.20000000E+00  1.50000000E+00
  1.20000000E+00  1.20000000E+00  1.50000000E+00  1.20000000E+00  1.20000000E+00
  1.50000000E+00  1.20000000E+00  1.20000000E+00  1.50000000E+00  1.20000000E+00
  1.20000000E+00  1.50000000E+00  1.20000000E+00  1.20000000E+00  1.50000000E+00
  1.20000000E+00  1.20000000E+00  1.50000000E+00  1.20000000E+00  1.20000000E+00
  1.50000000E+00  1.20000000E+00  1.20000000E+00  1.50000000E+00  1.20000000E+00
  1.20000000E+00  1.50000000E+00  1.20000000E+00  1.20000000E+00  1.50000000E+00
  1.20000000E+00  1.20000000E+00  1.50000000E+00  1.20000000E+00  1.20000000E+00
  1.50000000E+00  1.20000000E+00  1.20000000E+00  1.50000000E+00  1.20000000E+00
  1.20000000E+00  1.50000000E+00  1.20000000E+00  1.20000000E+00  1.50000000E+00
  1.20000000E+00  1.20000000E+00  1.50000000E+00  1.20000000E+00  1.20000000E+00
  1.50000000E+00  1.20000000E+00  1.20000000E+00  1.50000000E+00  1.20000000E+00
  1.20000000E+00  1.50000000E+00  1.20000000E+00  1.20000000E+00  1.50000000E+00
  1.20000000E+00  1.20000000E+00  1.50000000E+00  1.20000000E+00  1.20000000E+00
  1.50000000E+00  1.20000000E+00  1.20000000E+00  1.50000000E+00  1.20000000E+00
  1.20000000E+00  1.50000000E+00  1.20000000E+00  1.20000000E+00  1.50000000E+00
  1.20000000E+00  1.20000000E+00  1.50000000E+00  1.20000000E+00  1.20000000E+00
  1.50000000E+00  1.20000000E+00  1.20000000E+00  1.50000000E+00  1.20000000E+00
  1.20000000E+00  1.50000000E+00  1.20000000E+00  1.20000000E+00  1.50000000E+00
  1.20000000E+00  1.20000000E+00  1.50000000E+00  1.20000000E+00  1.20000000E+00
  1.50000000E+00  1.20000000E+00  1.20000000E+00  1.50000000E+00  1.20000000E+00
  1.20000000E+00  1.50000000E+00  1.20000000E+00  1.20000000E+00  1.50000000E+00
  1.20000000E+00  1.20000000E+00  1.50000000E+00  1.20000000E+00  1.20000000E+00
  1.50000000E+00  1.20000000E+00  1.20000000E+00  1.50000000E+00  1.20000000E+00
  1.20000000E+00  1.50000000E+00  1.20000000E+00  1.20000000E+00  1.50000000E+00
  1.20000000E+00  1.20000000E+00  1.50000000E+00  1.20000000E+00  1.20000000E+00
  1.50000000E+00  1.20000000E+00  1.20000000E+00  1.50000000E+00  1.20000000E+00
  1.20000000E+00  1.50000000E+00  1.20000000E+00  1.20000000E+00  1.50000000E+00
  1.20000000E+00  1.20000000E+00  1.50000000E+00  1.20000000E+00  1.20000000E+00
  1.50000000E+00  1.20000000E+00  1.20000000E+00  1.50000000E+00  1.20000000E+00
  1.20000000E+00  1.50000000E+00  1.20000000E+00  1.20000000E+00  1.50000000E+00
  1.20000000E+00  1.20000000E+00  1.50000000E+00  1.20000000E+00  1.20000000E+00
  1.50000000E+00  1.20000000E+00  1.20000000E+00  1.50000000E+00  1.20000000E+00
  1.20000000E+00  1.50000000E+00  1.20000000E+00  1.20000000E+00  1.50000000E+00
  1.20000000E+00  1.20000000E+00  1.50000000E+00  1.20000000E+00  1.20000000E+00
  1.50000000E+00  1.20000000E+00  1.20000000E+00  1.50000000E+00  1.20000000E+00
  1.20000000E+00  1.50000000E+00  1.20000000E+00  1.20000000E+00  1.50000000E+00
  1.20000000E+00  1.20000000E+00  1.50000000E+00  1.20000000E+00  1.20000000E+00
  1.50000000E+00  1.20000000E+00  1.20000000E+00  1.50000000E+00  1.20000000E+00
  1.20000000E+00  1.50000000E+00  1.20000000E+00  1.20000000E+00  1.50000000E+00
  1.20000000E+00  1.20000000E+00  1.50000000E+00  1.20000000E+00  1.20000000E+00
  1.50000000E+00  1.20000000E+00  1.20000000E+00  1.50000000E+00  1.20000000E+00
  1.20000000E+00  1.50000000E+00  1.20000000E+00  1.20000000E+00  1.50000000E+00
  1.20000000E+00  1.20000000E+00  1.50000000E+00  1.20000000E+00  1.20000000E+00
  1.50000000E+00  1.20000000E+00  1.20000000E+00  1.50000000E+00  1.20000000E+00
  1.20000000E+00  1.50000000E+00  1.20000000E+00  1.20000000E+00  1.50000000E+00
  1.20000000E+00  1.20000000E+00  1.50000000E+00  1.20000000E+00  1.20000000E+00
  1.50000000E+00  1.20000000E+00  1.20000000E+00  1.50000000E+00  1.20000000E+00
  1.20000000E+00  1.50000000E+00  1.20000000E+00  1.20000000E+00  1.50000000E+00
  1.20000000E+00  1.20000000E+00  1.50000000E+00  1.20000000E+00  1.20000000E+00
  1.50000000E+00  1.20000000E+00  1.20000000E+00  1.50000000E+00  1.20000000E+00
  1.20000000E+00  1.50000000E+00  1.20000000E+00  1.20000000E+00  1.50000000E+00
  1.20000000E+00  1.20000000E+00  1.50000000E+00  1.20000000E+00  1.20000000E+00
  1.50000000E+00  1.20000000E+00  1.20000000E+00  1.50000000E+00  1.20000000E+00
  1.20000000E+00  1.50000000E+00  1.20000000E+00  1.20000000E+00  1.50000000E+00
  1.20000000E+00  1.20000000E+00  1.50000000E+00  1.20000000E+00  1.20000000E+00
  1.50000000E+00  1.20000000E+00  1.20000000E+00  1.50000000E+00  1.20000000E+00
  1.20000000E+00  1.50000000E+00  1.20000000E+00  1.20000000E+00  1.50000000E+00
  1.20000000E+00  1.20000000E+00  1.50000000E+00  1.20000000E+00  1.20000000E+00
  1.50000000E+00  1.20000000E+00  1.20000000E+00  1.50000000E+00  1.20000000E+00
  1.20000000E+00  1.50000000E+00  1.20000000E+00  1.20000000E+00  1.50000000E+00
  1.20000000E+00  1.20000000E+00  1.50000000E+00  1.20000000E+00  1.20000000E+00
  1.50000000E+00  1.20000000E+00  1.20000000E+00  1.50000000E+00  1.20000000E+00
  1.20000000E+00  1.50000000E+00  1.20000000E+00  1.20000000E+00  1.50000000E+00
  1.20000000E+00  1.20000000E+00  1.50000000E+00  1.20000000E+00  1.20000000E+00
  1.50000000E+00  1.20000000E+00  1.20000000E+00  1.50000000E+00  1.20000000E+00
  1.20000000E+00  1.50000000E+00  1.20000000E+00  1.20000000E+00  1.50000000E+00
  1.20000000E+00  1.20000000E+00  1.50000000E+00  1.20000000E+00  1.20000000E+00
  1.50000000E+00  1.20000000E+00  1.20000000E+00  1.50000000E+00  1.20000000E+00
  1.20000000E+00  1.50000000E+00  1.20000000E+00  1.20000000E+00  1.50000000E+00
  1.20000000E+00  1.20000000E+00  1.50000000E+00  1.20000000E+00  1.20000000E+00
  1.50000000E+00  1.20000000E+00  1.20000000E+00  1.50000000E+00  1.20000000E+00
  1.20000000E+00  1.50000000E+00  1.20000000E+00  1.20000000E+00  1.50000000E+00
  1.20000000E+00  1.20000000E+00  1.50000000E+00  1.20000000E+00  1.20000000E+00
  1.50000000E+00  1.20000000E+00  1.20000000E+00  1.50000000E+00  1.20000000E+00
  1.20000000E+00  1.50000000E+00  1.20000000E+00  1.20000000E+00  1.50000000E+00
  1.20000000E+00  1.20000000E+00  1.50000000E+00  1.20000000E+00  1.20000000E+00
  1.50000000E+00  1.20000000E+00  1.20000000E+00  1.50000000E+00  1.20000000E+00
  1.20000000E+00  1.50000000E+00  1.20000000E+00  1.20000000E+00  1.50000000E+00
  1.20000000E+00  1.20000000E+00  1.50000000E+00  1.20000000E+00  1.20000000E+00
  1.50000000E+00  1.20000000E+00  1.20000000E+00  1.50000000E+00  1.20000000E+00
  1.20000000E+00  1.50000000E+00  1.20000000E+00  1.20000000E+00  1.50000000E+00
  1.20000000E+00  1.20000000E+00  1.50000000E+00  1.20000000E+00  1.20000000E+00
  1.50000000E+00  1.20000000E+00  1.20000000E+00  1.50000000E+00  1.20000000E+00
  1.20000000E+00  1.50000000E+00  1.20000000E+00  1.20000000E+00  1.50000000E+00
  1.20000000E+00  1.20000000E+00  1.50000000E+00  1.20000000E+00  1.20000000E+00
  1.50000000E+00  1.20000000E+00  1.20000000E+00  1.50000000E+00  1.20000000E+00
  1.20000000E+00  1.50000000E+00  1.20000000E+00  1.20000000E+00  1.50000000E+00
  1.20000000E+00  1.20000000E+00  1.50000000E+00  1.20000000E+00  1.20000000E+00
  1.50000000E+00  1.20000000E+00  1.20000000E+00  1.50000000E+00  1.20000000E+00
  1.20000000E+00  1.50000000E+00  1.20000000E+00  1.20000000E+00  1.50000000E+00
  1.20000000E+00  1.20000000E+00  1.50000000E+00  1.20000000E+00  1.20000000E+00
  1.50000000E+00  1.20000000E+00  1.20000000E+00  1.50000000E+00  1.20000000E+00
  1.20000000E+00  1.50000000E+00  1.20000000E+00  1.20000000E+00  1.50000000E+00
  1.20000000E+00  1.20000000E+00  1.50000000E+00  1.20000000E+00  1.20000000E+00
  1.50000000E+00  1.20000000E+00  1.20000000E+00  1.50000000E+00  1.20000000E+00
  1.20000000E+00  1.50000000E+00  1.20000000E+00  1.20000000E+00  1.50000000E+00
  1.20000000E+00  1.20000000E+00  1.50000000E+00  1.20000000E+00  1.20000000E+00
  1.50000000E+00  1.20000000E+00  1.20000000E+00  1.50000000E+00  1.20000000E+00
  1.20000000E+00  1.50000000E+00  1.20000000E+00  1.20000000E+00  1.50000000E+00
  1.20000000E+00  1.20000000E+00  1.50000000E+00  1.20000000E+00  1.20000000E+00
  1.50000000E+00  1.20000000E+00  1.20000000E+00  1.50000000E+00  1.20000000E+00
  1.20000000E+00  1.50000000E+00  1.20000000E+00  1.20000000E+00  1.50000000E+00
  1.20000000E+00  1.20000000E+00  1.50000000E+00  1.20000000E+00  1.20000000E+00
  1.50000000E+00  1.20000000E+00  1.20000000E+00  1.50000000E+00  1.20000000E+00
  1.20000000E+00  1.50000000E+00  1.20000000E+00  1.20000000E+00  1.50000000E+00
  1.20000000E+00  1.20000000E+00  1.50000000E+00  1.20000000E+00  1.20000000E+00
  1.50000000E+00  1.20000000E+00  1.20000000E+00  1.50000000E+00  1.20000000E+00
  1.20000000E+00  1.50000000E+00  1.20000000E+00  1.20000000E+00  1.50000000E+00
  1.20000000E+00  1.20000000E+00  1.50000000E+00  1.20000000E+00  1.20000000E+00
  1.50000000E+00  1.20000000E+00  1.20000000E+00  1.50000000E+00  1.20000000E+00
  1.20000000E+00  1.50000000E+00  1.20000000E+00  1.20000000E+00  1.50000000E+00
  1.20000000E+00  1.20000000E+00  1.50000000E+00  1.20000000E+00  1.20000000E+00
  1.50000000E+00  1.20000000E+00  1.20000000E+00  1.50000000E+00  1.20000000E+00
  1.20000000E+00  1.50000000E+00  1.20000000E+00  1.20000000E+00  1.50000000E+00
  1.20000000E+00  1.20000000E+00  1.50000000E+00  1.20000000E+00  1.20000000E+00
  1.50000000E+00  1.20000000E+00  1.20000000E+00  1.50000000E+00  1.20000000E+00
  1.20000000E+00  1.50000000E+00  1.20000000E+00  1.20000000E+00  1.50000000E+00
  1.20000000E+00  1.20000000E+00  1.50000000E+00  1.20000000E+00  1.20000000E+00
  1.50000000E+00  1.20000000E+00  1.20000000E+00  1.50000000E+00  1.20000000E+00
  1.20000000E+00  1.50000000E+00  1.20000000E+00  1.20000000E+00  1.50000000E+00
  1.20000000E+00  1.20000000E+00  1.50000000E+00  1.20000000E+00  1.20000000E+00
  1.50000000E+00  1.20000000E+00  1.20000000E+00  1.50000000E+00  1.20000000E+00
  1.20000000E+00  1.50000000E+00  1.20000000E+00  1.20000000E+00  1.50000000E+00
  1.20000000E+00  1.20000000E+00  1.50000000E+00  1.20000000E+00  1.20000000E+00
  1.50000000E+00  1.20000000E+00  1.20000000E+00  1.50000000E+00  1.20000000E+00
  1.20000000E+00  1.50000000E+00  1.20000000E+00  1.20000000E+00  1.50000000E+00
  1.20000000E+00  1.20000000E+00  1.50000000E+00  1.20000000E+00  1.20000000E+00
  1.50000000E+00  1.20000000E+00  1.20000000E+00  1.50000000E+00  1.20000000E+00
  1.20000000E+00  1.50000000E+00  1.20000000E+00  1.20000000E+00  1.50000000E+00
  1.20000000E+00  1.20000000E+00  1.50000000E+00  1.20000000E+00  1.20000000E+00
  1.50000000E+00  1.20000000E+00  1.20000000E+00  1.50000000E+00  1.20000000E+00
  1.20000000E+00  1.50000000E+00  1.20000000E+00  1.20000000E+00  1.50000000E+00
  1.20000000E+00  1.20000000E+00  1.50000000E+00  1.20000000E+00  1.20000000E+00
  1.50000000E+00  1.20000000E+00  1.20000000E+00  1.50000000E+00  1.20000000E+00
  1.20000000E+00  1.50000000E+00  1.20000000E+00  1.20000000E+00  1.50000000E+00
  1.20000000E+00  1.20000000E+00  1.50000000E+00  1.20000000E+00  1.20000000E+00
  1.50000000E+00  1.20000000E+00  1.20000000E+00  1.50000000E+00  1.20000000E+00
  1.20000000E+00  1.50000000E+00  1.20000000E+00  1.20000000E+00  1.50000000E+00
  1.20000000E+00  1.20000000E+00  1.50000000E+00  1.20000000E+00  1.20000000E+00
  1.50000000E+00  1.20000000E+00  1.20000000E+00  1.50000000E+00  1.20000000E+00
  1.20000000E+00  1.50000000E+00  1.20000000E+00  1.20000000E+00  1.50000000E+00
  1.20000000E+00  1.20000000E+00  1.50000000E+00  1.20000000E+00  1.20000000E+00
  1.50000000E+00  1.20000000E+00  1.20000000E+00  1.50000000E+00  1.20000000E+00
  1.20000000E+00  1.50000000E+00  1.20000000E+00  1.20000000E+00  1.50000000E+00
  1.20000000E+00  1.20000000E+00  1.50000000E+00  1.20000000E+00  1.20000000E+00
  1.50000000E+00  1.20000000E+00  1.20000000E+00  1.50000000E+00  1.20000000E+00
  1.20000000E+00  1.50000000E+00  1.20000000E+00  1.20000000E+00  1.50000000E+00
  1.20000000E+00  1.20000000E+00  1.50000000E+00  1.20000000E+00  1.20000000E+00
  1.50000000E+00  1.20000000E+00  1.20000000E+00  1.50000000E+00  1.20000000E+00
  1.20000000E+00  1.50000000E+00  1.20000000E+00  1.20000000E+00  1.50000000E+00
  1.20000000E+00  1.20000000E+00  1.50000000E+00  1.20000000E+00  1.20000000E+00
  1.50000000E+00  1.20000000E+00  1.20000000E+00  1.50000000E+00  1.20000000E+00
  1.20000000E+00  1.50000000E+00  1.20000000E+00  1.20000000E+00  1.50000000E+00
  1.20000000E+00  1.20000000E+00  1.50000000E+00  1.20000000E+00  1.20000000E+00
  1.50000000E+00  1.20000000E+00  1.20000000E+00  1.50000000E+00  1.20000000E+00
  1.20000000E+00  1.50000000E+00  1.20000000E+00  1.20000000E+00  1.50000000E+00
  1.20000000E+00  1.20000000E+00  1.50000000E+00  1.20000000E+00  1.20000000E+00
  1.50000000E+00  1.20000000E+00  1.20000000E+00  1.50000000E+00  1.20000000E+00
  1.20000000E+00  1.50000000E+00  1.20000000E+00  1.20000000E+00  1.50000000E+00
  1.20000000E+00  1.20000000E+00  1.50000000E+00  1.20000000E+00  1.20000000E+00
  1.50000000E+00  1.20000000E+00  1.20000000E+00  1.50000000E+00  1.20000000E+00
  1.20000000E+00  1.50000000E+00  1.20000000E+00  1.20000000E+00  1.50000000E+00
  1.20000000E+00  1.20000000E+00  1.50000000E+00  1.20000000E+00  1.20000000E+00
  1.50000000E+00  1.20000000E+00  1.20000000E+00  1.50000000E+00  1.20000000E+00
  1.20000000E+00  1.50000000E+00  1.20000000E+00  1.20000000E+00  1.50000000E+00
  1.20000000E+00  1.20000000E+00  1.50000000E+00  1.20000000E+00  1.20000000E+00
  1.50000000E+00  1.20000000E+00  1.20000000E+00  1.50000000E+00  1.20000000E+00
  1.20000000E+00  1.50000000E+00  1.20000000E+00  1.20000000E+00  1.50000000E+00
  1.20000000E+00  1.20000000E+00  1.50000000E+00  1.20000000E+00  1.20000000E+00
  1.50000000E+00  1.20000000E+00  1.20000000E+00  1.50000000E+00  1.20000000E+00
  1.20000000E+00  1.50000000E+00  1.20000000E+00  1.20000000E+00  1.50000000E+00
  1.20000000E+00  1.20000000E+00  1.50000000E+00  1.20000000E+00  1.20000000E+00
  1.50000000E+00  1.20000000E+00  1.20000000E+00  1.50000000E+00  1.20000000E+00
  1.20000000E+00  1.50000000E+00  1.20000000E+00  1.20000000E+00  1.50000000E+00
  1.20000000E+00  1.20000000E+00  1.50000000E+00  1.20000000E+00  1.20000000E+00
  1.50000000E+00  1.20000000E+00  1.20000000E+00  1.50000000E+00  1.20000000E+00
  1.20000000E+00  1.50000000E+00  1.20000000E+00  1.20000000E+00  1.50000000E+00
  1.20000000E+00  1.20000000E+00  1.50000000E+00  1.20000000E+00  1.20000000E+00
  1.50000000E+00  1.20000000E+00  1.20000000E+00  1.50000000E+00  1.20000000E+00
  1.20000000E+00  1.50000000E+00  1.20000000E+00  1.20000000E+00  1.50000000E+00
  1.20000000E+00  1.20000000E+00  1.50000000E+00  1.20000000E+00  1.20000000E+00
  1.50000000E+00  1.20000000E+00  1.20000000E+00  1.50000000E+00  1.20000000E+00
  1.20000000E+00  1.50000000E+00  1.20000000E+00  1.20000000E+00  1.50000000E+00
  1.20000000E+00  1.20000000E+00  1.50000000E+00  1.20000000E+00  1.20000000E+00
  1.50000000E+00  1.20000000E+00  1.20000000E+00  1.50000000E+00  1.20000000E+00
  1.20000000E+00  1.50000000E+00  1.20000000E+00  1.20000000E+00  1.50000000E+00
  1.20000000E+00  1.20000000E+00  1.50000000E+00  1.20000000E+00  1.20000000E+00
  1.50000000E+00  1.20000000E+00  1.20000000E+00  1.50000000E+00  1.20000000E+00
  1.20000000E+00  1.50000000E+00  1.20000000E+00  1.20000000E+00  1.50000000E+00
  1.20000000E+00  1.20000000E+00  1.50000000E+00  1.20000000E+00  1.20000000E+00
  1.50000000E+00  1.20000000E+00  1.20000000E+00  1.50000000E+00  1.20000000E+00
  1.20000000E+00  1.50000000E+00  1.20000000E+00  1.20000000E+00  1.50000000E+00
  1.20000000E+00  1.20000000E+00  1.50000000E+00  1.20000000E+00  1.20000000E+00
  1.50000000E+00  1.20000000E+00  1.20000000E+00  1.50000000E+00  1.20000000E+00
  1.20000000E+00  1.50000000E+00  1.20000000E+00  1.20000000E+00  1.50000000E+00
  1.20000000E+00  1.20000000E+00  1.50000000E+00  1.20000000E+00  1.20000000E+00
  1.50000000E+00  1.20000000E+00  1.20000000E+00  1.50000000E+00  1.20000000E+00
  1.20000000E+00  1.50000000E+00  1.20000000E+00  1.20000000E+00  1.50000000E+00
  1.20000000E+00  1.20000000E+00  1.50000000E+00  1.20000000E+00  1.20000000E+00
  1.50000000E+00  1.20000000E+00  1.20000000E+00  1.50000000E+00  1.20000000E+00
  1.20000000E+00  1.50000000E+00  1.20000000E+00  1.20000000E+00  1.50000000E+00
  1.20000000E+00  1.20000000E+00  1.50000000E+00  1.20000000E+00  1.20000000E+00
  1.50000000E+00  1.20000000E+00  1.20000000E+00  1.50000000E+00  1.20000000E+00
  1.20000000E+00  1.50000000E+00  1.20000000E+00  1.20000000E+00  1.50000000E+00
  1.20000000E+00  1.20000000E+00  1.50000000E+00  1.20000000E+00  1.20000000E+00
  1.50000000E+00  1.20000000E+00  1.20000000E+00  1.50000000E+00  1.20000000E+00
  1.20000000E+00  1.50000000E+00  1.20000000E+00  1.20000000E+00  1.50000000E+00
  1.20000000E+00  1.20000000E+00  1.50000000E+00  1.20000000E+00  1.20000000E+00
  1.50000000E+00  1.20000000E+00  1.20000000E+00  1.50000000E+00  1.20000000E+00
  1.20000000E+00  1.50000000E+00  1.20000000E+00  1.20000000E+00  1.50000000E+00
  1.20000000E+00  1.20000000E+00  1.50000000E+00  1.20000000E+00  1.20000000E+00
  1.50000000E+00  1.20000000E+00  1.20000000E+00  1.50000000E+00  1.20000000E+00
  1.20000000E+00  1.50000000E+00  1.20000000E+00  1.20000000E+00  1.50000000E+00
  1.20000000E+00  1.20000000E+00  1.50000000E+00  1.20000000E+00  1.20000000E+00
  1.50000000E+00  1.20000000E+00  1.20000000E+00  1.50000000E+00  1.20000000E+00
  1.20000000E+00  1.50000000E+00  1.20000000E+00  1.20000000E+00  1.50000000E+00
  1.20000000E+00  1.20000000E+00  1.50000000E+00  1.20000000E+00  1.20000000E+00
  1.50000000E+00  1.20000000E+00  1.20000000E+00  1.50000000E+00  1.20000000E+00
  1.20000000E+00  1.50000000E+00  1.20000000E+00  1.20000000E+00  1.50000000E+00
  1.20000000E+00  1.20000000E+00  1.50000000E+00  1.20000000E+00  1.20000000E+00
  1.50000000E+00  1.20000000E+00  1.20000000E+00  1.50000000E+00  1.20000000E+00
  1.20000000E+00  1.50000000E+00  1.20000000E+00  1.20000000E+00  1.50000000E+00
  1.20000000E+00  1.20000000E+00  1.50000000E+00  1.20000000E+00  1.20000000E+00
  1.50000000E+00  1.20000000E+00  1.20000000E+00  1.50000000E+00  1.20000000E+00
  1.20000000E+00  1.50000000E+00  1.20000000E+00  1.20000000E+00  1.50000000E+00
  1.20000000E+00  1.20000000E+00  1.50000000E+00  1.20000000E+00  1.20000000E+00
  1.50000000E+00  1.20000000E+00  1.20000000E+00  1.50000000E+00  1.20000000E+00
  1.20000000E+00  1.50000000E+00  1.20000000E+00  1.20000000E+00  1.50000000E+00
  1.20000000E+00  1.20000000E+00  1.50000000E+00  1.20000000E+00  1.20000000E+00
  1.50000000E+00  1.20000000E+00  1.20000000E+00  1.50000000E+00  1.20000000E+00
  1.20000000E+00  1.50000000E+00  1.20000000E+00  1.20000000E+00  1.50000000E+00
  1.20000000E+00  1.20000000E+00  1.50000000E+00  1.20000000E+00  1.20000000E+00
  1.50000000E+00  1.20000000E+00  1.20000000E+00  1.50000000E+00  1.20000000E+00
  1.20000000E+00  1.50000000E+00  1.20000000E+00  1.20000000E+00  1.50000000E+00
  1.20000000E+00  1.20000000E+00  1.50000000E+00  1.20000000E+00  1.20000000E+00
  1.50000000E+00  1.20000000E+00  1.20000000E+00  1.50000000E+00  1.20000000E+00
  1.20000000E+00  1.50000000E+00  1.20000000E+00  1.20000000E+00  1.50000000E+00
  1.20000000E+00  1.20000000E+00  1.50000000E+00  1.20000000E+00  1.20000000E+00
  1.50000000E+00  1.20000000E+00  1.20000000E+00  1.50000000E+00  1.20000000E+00
  1.20000000E+00  1.50000000E+00  1.20000000E+00  1.20000000E+00  1.50000000E+00
  1.20000000E+00  1.20000000E+00  1.50000000E+00  1.20000000E+00  1.20000000E+00
  1.50000000E+00  1.20000000E+00  1.20000000E+00  1.50000000E+00  1.20000000E+00
  1.20000000E+00  1.50000000E+00  1.20000000E+00  1.20000000E+00  1.50000000E+00
  1.20000000E+00  1.20000000E+00  1.50000000E+00  1.20000000E+00  1.20000000E+00
  1.50000000E+00  1.20000000E+00  1.20000000E+00  1.50000000E+00  1.20000000E+00
  1.20000000E+00  1.50000000E+00  1.20000000E+00  1.20000000E+00  1.50000000E+00
  1.20000000E+00  1.20000000E+00  1.50000000E+00  1.20000000E+00  1.20000000E+00
  1.50000000E+00  1.20000000E+00  1.20000000E+00  1.50000000E+00  1.20000000E+00
  1.20000000E+00  1.50000000E+00  1.20000000E+00  1.20000000E+00  1.50000000E+00
  1.20000000E+00  1.20000000E+00  1.50000000E+00  1.20000000E+00  1.20000000E+00
  1.50000000E+00  1.20000000E+00  1.20000000E+00  1.50000000E+00  1.20000000E+00
  1.20000000E+00  1.50000000E+00  1.20000000E+00  1.20000000E+00  1.50000000E+00
  1.20000000E+00  1.20000000E+00  1.50000000E+00  1.20000000E+00  1.20000000E+00
  1.50000000E+00  1.20000000E+00  1.20000000E+00  1.50000000E+00  1.20000000E+00
  1.20000000E+00  1.50000000E+00  1.20000000E+00  1.20000000E+00  1.50000000E+00
  1.20000000E+00  1.20000000E+00  1.50000000E+00  1.20000000E+00  1.20000000E+00
  1.50000000E+00  1.20000000E+00  1.20000000E+00  1.50000000E+00  1.20000000E+00
  1.20000000E+00  1.50000000E+00  1.20000000E+00  1.20000000E+00  1.50000000E+00
  1.20000000E+00  1.20000000E+00  1.50000000E+00  1.20000000E+00  1.20000000E+00
  1.50000000E+00  1.20000000E+00  1.20000000E+00  1.50000000E+00  1.20000000E+00
  1.20000000E+00  1.50000000E+00  1.20000000E+00  1.20000000E+00  1.50000000E+00
  1.20000000E+00  1.20000000E+00  1.50000000E+00  1.20000000E+00  1.20000000E+00
  1.50000000E+00  1.20000000E+00  1.20000000E+00  1.50000000E+00  1.20000000E+00
  1.20000000E+00  1.50000000E+00  1.20000000E+00  1.20000000E+00  1.50000000E+00
  1.20000000E+00  1.20000000E+00  1.50000000E+00  1.20000000E+00  1.20000000E+00
  1.50000000E+00  1.20000000E+00  1.20000000E+00  1.50000000E+00  1.20000000E+00
  1.20000000E+00  1.50000000E+00  1.20000000E+00  1.20000000E+00  1.50000000E+00
  1.20000000E+00  1.20000000E+00  1.50000000E+00  1.20000000E+00  1.20000000E+00
  1.50000000E+00  1.20000000E+00  1.20000000E+00  1.50000000E+00  1.20000000E+00
  1.20000000E+00  1.50000000E+00  1.20000000E+00  1.20000000E+00  1.50000000E+00
  1.20000000E+00  1.20000000E+00  1.50000000E+00  1.20000000E+00  1.20000000E+00
  1.50000000E+00  1.20000000E+00  1.20000000E+00  1.50000000E+00  1.20000000E+00
  1.20000000E+00  1.50000000E+00  1.20000000E+00  1.20000000E+00  1.50000000E+00
  1.20000000E+00  1.20000000E+00  1.50000000E+00  1.20000000E+00  1.20000000E+00
  1.50000000E+00  1.20000000E+00  1.20000000E+00  1.50000000E+00  1.20000000E+00
  1.20000000E+00  1.50000000E+00  1.20000000E+00  1.20000000E+00  1.50000000E+00
  1.20000000E+00  1.20000000E+00  1.50000000E+00  1.20000000E+00  1.20000000E+00
  1.50000000E+00  1.20000000E+00  1.20000000E+00  1.50000000E+00  1.20000000E+00
  1.20000000E+00  1.50000000E+00  1.20000000E+00  1.20000000E+00  1.50000000E+00
  1.20000000E+00  1.20000000E+00  1.50000000E+00  1.20000000E+00  1.20000000E+00
  1.50000000E+00  1.20000000E+00  1.20000000E+00  1.50000000E+00  1.20000000E+00
  1.20000000E+00  1.50000000E+00  1.20000000E+00  1.20000000E+00  1.50000000E+00
  1.20000000E+00  1.20000000E+00  1.50000000E+00  1.20000000E+00  1.20000000E+00
  1.50000000E+00  1.20000000E+00  1.20000000E+00  1.50000000E+00  1.20000000E+00
  1.20000000E+00  1.50000000E+00  1.20000000E+00  1.20000000E+00  1.50000000E+00
  1.20000000E+00  1.20000000E+00  1.50000000E+00  1.20000000E+00  1.20000000E+00
  1.50000000E+00  1.20000000E+00  1.20000000E+00  1.50000000E+00  1.20000000E+00
  1.20000000E+00  1.50000000E+00  1.20000000E+00  1.20000000E+00  1.50000000E+00
  1.20000000E+00  1.20000000E+00  1.50000000E+00  1.20000000E+00  1.20000000E+00
  1.50000000E+00  1.20000000E+00  1.20000000E+00  1.50000000E+00  1.20000000E+00
  1.20000000E+00  1.50000000E+00  1.20000000E+00  1.20000000E+00  1.50000000E+00
  1.20000000E+00  1.20000000E+00  1.50000000E+00  1.20000000E+00  1.20000000E+00
  1.50000000E+00  1.20000000E+00  1.20000000E+00  1.50000000E+00  1.20000000E+00
  1.20000000E+00  1.50000000E+00  1.20000000E+00  1.20000000E+00  1.50000000E+00
  1.20000000E+00  1.20000000E+00  1.50000000E+00  1.20000000E+00  1.20000000E+00
  1.50000000E+00  1.20000000E+00  1.20000000E+00  1.50000000E+00  1.20000000E+00
  1.20000000E+00  1.50000000E+00  1.20000000E+00  1.20000000E+00  1.50000000E+00
  1.20000000E+00  1.20000000E+00  1.50000000E+00  1.20000000E+00  1.20000000E+00
  1.50000000E+00  1.20000000E+00  1.20000000E+00  1.50000000E+00  1.20000000E+00
  1.20000000E+00  1.50000000E+00  1.20000000E+00  1.20000000E+00  1.50000000E+00
  1.20000000E+00  1.20000000E+00  1.50000000E+00  1.20000000E+00  1.20000000E+00
  1.50000000E+00  1.20000000E+00  1.20000000E+00  1.50000000E+00  1.20000000E+00
  1.20000000E+00  1.50000000E+00  1.20000000E+00  1.20000000E+00  1.50000000E+00
  1.20000000E+00  1.20000000E+00  1.50000000E+00  1.20000000E+00  1.20000000E+00
  1.50000000E+00  1.20000000E+00  1.20000000E+00  1.50000000E+00  1.20000000E+00
  1.20000000E+00  1.50000000E+00  1.20000000E+00  1.20000000E+00  1.50000000E+00
  1.20000000E+00  1.20000000E+00  1.50000000E+00  1.20000000E+00  1.20000000E+00
  1.50000000E+00  1.20000000E+00  1.20000000E+00  1.50000000E+00  1.20000000E+00
  1.20000000E+00  1.50000000E+00  1.20000000E+00  1.20000000E+00  1.50000000E+00
  1.20000000E+00  1.20000000E+00  1.50000000E+00  1.20000000E+00  1.20000000E+00
  1.50000000E+00  1.20000000E+00  1.20000000E+00  1.50000000E+00  1.20000000E+00
  1.20000000E+00  1.50000000E+00  1.20000000E+00  1.20000000E+00  1.50000000E+00
  1.20000000E+00  1.20000000E+00  1.50000000E+00  1.20000000E+00  1.20000000E+00
  1.50000000E+00  1.20000000E+00  1.20000000E+00  1.50000000E+00  1.20000000E+00
  1.20000000E+00  1.50000000E+00  1.20000000E+00  1.20000000E+00  1.50000000E+00
  1.20000000E+00  1.20000000E+00  1.50000000E+00  1.20000000E+00  1.20000000E+00
  1.50000000E+00  1.20000000E+00  1.20000000E+00  1.50000000E+00  1.20000000E+00
  1.20000000E+00  1.50000000E+00  1.20000000E+00  1.20000000E+00  1.50000000E+00
  1.20000000E+00  1.20000000E+00  1.50000000E+00  1.20000000E+00  1.20000000E+00
  1.50000000E+00  1.20000000E+00  1.20000000E+00  1.50000000E+00  1.20000000E+00
  1.20000000E+00  1.50000000E+00  1.20000000E+00  1.20000000E+00  1.50000000E+00
  1.20000000E+00  1.20000000E+00  1.50000000E+00  1.20000000E+00  1.20000000E+00
  1.50000000E+00  1.20000000E+00  1.20000000E+00  1.50000000E+00  1.20000000E+00
  1.20000000E+00  1.50000000E+00  1.20000000E+00  1.20000000E+00  1.50000000E+00
  1.20000000E+00  1.20000000E+00  1.50000000E+00  1.20000000E+00  1.20000000E+00
  1.50000000E+00  1.20000000E+00  1.20000000E+00  1.50000000E+00  1.20000000E+00
  1.20000000E+00  1.50000000E+00  1.20000000E+00  1.20000000E+00  1.50000000E+00
  1.20000000E+00  1.20000000E+00  1.50000000E+00  1.20000000E+00  1.20000000E+00
  1.50000000E+00  1.20000000E+00  1.20000000E+00  1.50000000E+00  1.20000000E+00
  1.20000000E+00  1.50000000E+00  1.20000000E+00  1.20000000E+00  1.50000000E+00
  1.20000000E+00  1.20000000E+00  1.50000000E+00  1.20000000E+00  1.20000000E+00
  1.50000000E+00  1.20000000E+00  1.20000000E+00  1.50000000E+00  1.20000000E+00
  1.20000000E+00  1.50000000E+00  1.20000000E+00  1.20000000E+00  1.50000000E+00
  1.20000000E+00  1.20000000E+00  1.50000000E+00  1.20000000E+00  1.20000000E+00
  1.50000000E+00  1.20000000E+00  1.20000000E+00  1.50000000E+00  1.20000000E+00
  1.20000000E+00  1.50000000E+00  1.20000000E+00  1.20000000E+00  1.50000000E+00
  1.20000000E+00  1.20000000E+00  1.50000000E+00  1.20000000E+00  1.20000000E+00
  1.50000000E+00  1.20000000E+00  1.20000000E+00  1.50000000E+00  1.20000000E+00
  1.20000000E+00  1.50000000E+00  1.20000000E+00  1.20000000E+00  1.50000000E+00
  1.20000000E+00  1.20000000E+00  1.50000000E+00  1.20000000E+00  1.20000000E+00
  1.50000000E+00  1.20000000E+00  1.20000000E+00  1.50000000E+00  1.20000000E+00
  1.20000000E+00  1.50000000E+00  1.20000000E+00  1.20000000E+00  1.50000000E+00
  1.20000000E+00  1.20000000E+00  1.50000000E+00  1.20000000E+00  1.20000000E+00
  1.50000000E+00  1.20000000E+00  1.20000000E+00  1.50000000E+00  1.20000000E+00
  1.20000000E+00  1.50000000E+00  1.20000000E+00  1.20000000E+00  1.50000000E+00
  1.20000000E+00  1.20000000E+00  1.50000000E+00  1.20000000E+00  1.20000000E+00
  1.50000000E+00  1.20000000E+00  1.20000000E+00  1.50000000E+00  1.20000000E+00
  1.20000000E+00  1.50000000E+00  1.20000000E+00  1.20000000E+00  1.50000000E+00
  1.20000000E+00  1.20000000E+00  1.50000000E+00  1.20000000E+00  1.20000000E+00
  1.50000000E+00  1.20000000E+00  1.20000000E+00  1.50000000E+00  1.20000000E+00
  1.20000000E+00  1.50000000E+00  1.20000000E+00  1.20000000E+00  1.50000000E+00
  1.20000000E+00  1.20000000E+00  1.50000000E+00  1.20000000E+00  1.20000000E+00
  1.50000000E+00  1.20000000E+00  1.20000000E+00  1.50000000E+00  1.20000000E+00
  1.20000000E+00  1.50000000E+00  1.20000000E+00  1.20000000E+00  1.50000000E+00
  1.20000000E+00  1.20000000E+00  1.50000000E+00  1.20000000E+00  1.20000000E+00
  1.50000000E+00  1.20000000E+00  1.20000000E+00  1.50000000E+00  1.20000000E+00
  1.20000000E+00  1.50000000E+00  1.20000000E+00  1.20000000E+00  1.50000000E+00
  1.20000000E+00  1.20000000E+00  1.50000000E+00  1.20000000E+00  1.20000000E+00
  1.50000000E+00  1.20000000E+00  1.20000000E+00  1.50000000E+00  1.20000000E+00
  1.20000000E+00  1.50000000E+00  1.20000000E+00  1.20000000E+00  1.50000000E+00
  1.20000000E+00  1.20000000E+00  1.50000000E+00  1.20000000E+00  1.20000000E+00
  1.50000000E+00  1.20000000E+00  1.20000000E+00  1.50000000E+00  1.20000000E+00
  1.20000000E+00  1.50000000E+00  1.20000000E+00  1.20000000E+00  1.50000000E+00
  1.20000000E+00  1.20000000E+00  1.50000000E+00  1.20000000E+00  1.20000000E+00
  1.50000000E+00  1.20000000E+00  1.20000000E+00  1.50000000E+00  1.20000000E+00
  1.20000000E+00  1.50000000E+00  1.20000000E+00  1.20000000E+00  1.50000000E+00
  1.20000000E+00  1.20000000E+00  1.50000000E+00  1.20000000E+00  1.20000000E+00
  1.50000000E+00  1.20000000E+00  1.20000000E+00  1.50000000E+00  1.20000000E+00
  1.20000000E+00  1.50000000E+00  1.20000000E+00  1.20000000E+00  1.50000000E+00
  1.20000000E+00  1.20000000E+00  1.50000000E+00  1.20000000E+00  1.20000000E+00
  1.50000000E+00  1.20000000E+00  1.20000000E+00  1.50000000E+00  1.20000000E+00
  1.20000000E+00  1.50000000E+00  1.20000000E+00  1.20000000E+00  1.50000000E+00
  1.20000000E+00  1.20000000E+00  1.50000000E+00  1.20000000E+00  1.20000000E+00
  1.50000000E+00  1.20000000E+00  1.20000000E+00  1.50000000E+00  1.20000000E+00
  1.20000000E+00  1.50000000E+00  1.20000000E+00  1.20000000E+00  1.50000000E+00
  1.20000000E+00  1.20000000E+00  1.50000000E+00  1.20000000E+00  1.20000000E+00
  1.50000000E+00  1.20000000E+00  1.20000000E+00  1.50000000E+00  1.20000000E+00
  1.20000000E+00  1.50000000E+00  1.20000000E+00  1.20000000E+00  1.50000000E+00
  1.20000000E+00  1.20000000E+00  1.50000000E+00  1.20000000E+00  1.20000000E+00
  1.50000000E+00  1.20000000E+00  1.20000000E+00  1.50000000E+00  1.20000000E+00
  1.20000000E+00  1.50000000E+00  1.20000000E+00  1.20000000E+00  1.50000000E+00
  1.20000000E+00  1.20000000E+00  1.50000000E+00  1.20000000E+00  1.20000000E+00
  1.50000000E+00  1.20000000E+00  1.20000000E+00  1.50000000E+00  1.20000000E+00
  1.20000000E+00  1.50000000E+00  1.20000000E+00  1.20000000E+00  1.50000000E+00
  1.20000000E+00  1.20000000E+00  1.50000000E+00  1.20000000E+00  1.20000000E+00
  1.50000000E+00  1.20000000E+00  1.20000000E+00  1.50000000E+00  1.20000000E+00
  1.20000000E+00  1.50000000E+00  1.20000000E+00  1.20000000E+00  1.50000000E+00
  1.20000000E+00  1.20000000E+00  1.50000000E+00  1.20000000E+00  1.20000000E+00
  1.50000000E+00  1.20000000E+00  1.20000000E+00  1.50000000E+00  1.20000000E+00
  1.20000000E+00  1.50000000E+00  1.20000000E+00  1.20000000E+00  1.50000000E+00
  1.20000000E+00  1.20000000E+00  1.50000000E+00  1.20000000E+00  1.20000000E+00
  1.50000000E+00  1.20000000E+00  1.20000000E+00  1.50000000E+00  1.20000000E+00
  1.20000000E+00  1.50000000E+00  1.20000000E+00  1.20000000E+00  1.50000000E+00
  1.20000000E+00  1.20000000E+00  1.50000000E+00  1.20000000E+00  1.20000000E+00
  1.50000000E+00  1.20000000E+00  1.20000000E+00  1.50000000E+00  1.20000000E+00
  1.20000000E+00  1.50000000E+00  1.20000000E+00  1.20000000E+00  1.50000000E+00
  1.20000000E+00  1.20000000E+00  1.50000000E+00  1.20000000E+00  1.20000000E+00
  1.50000000E+00  1.20000000E+00  1.20000000E+00  1.50000000E+00  1.20000000E+00
  1.20000000E+00  1.50000000E+00  1.20000000E+00  1.20000000E+00  1.50000000E+00
  1.20000000E+00  1.20000000E+00  1.50000000E+00  1.20000000E+00  1.20000000E+00
  1.50000000E+00  1.20000000E+00  1.20000000E+00  1.50000000E+00  1.20000000E+00
  1.20000000E+00  1.50000000E+00  1.20000000E+00  1.20000000E+00  1.50000000E+00
  1.20000000E+00  1.20000000E+00  1.50000000E+00  1.20000000E+00  1.20000000E+00
  1.50000000E+00  1.20000000E+00  1.20000000E+00  1.50000000E+00  1.20000000E+00
  1.20000000E+00  1.50000000E+00  1.20000000E+00  1.20000000E+00  1.50000000E+00
  1.20000000E+00  1.20000000E+00  1.50000000E+00  1.20000000E+00  1.20000000E+00
  1.50000000E+00  1.20000000E+00  1.20000000E+00  1.50000000E+00  1.20000000E+00
  1.20000000E+00  1.50000000E+00  1.20000000E+00  1.20000000E+00  1.50000000E+00
  1.20000000E+00  1.20000000E+00  1.50000000E+00  1.20000000E+00  1.20000000E+00
  1.50000000E+00  1.20000000E+00  1.20000000E+00  1.50000000E+00  1.20000000E+00
  1.20000000E+00  1.50000000E+00  1.20000000E+00  1.20000000E+00  1.50000000E+00
  1.20000000E+00  1.20000000E+00  1.50000000E+00  1.20000000E+00  1.20000000E+00
  1.50000000E+00  1.20000000E+00  1.20000000E+00  1.50000000E+00  1.20000000E+00
  1.20000000E+00  1.50000000E+00  1.20000000E+00  1.20000000E+00  1.50000000E+00
  1.20000000E+00  1.20000000E+00  1.50000000E+00  1.20000000E+00  1.20000000E+00
  1.50000000E+00  1.20000000E+00  1.20000000E+00  1.50000000E+00  1.20000000E+00
  1.20000000E+00  1.50000000E+00  1.20000000E+00  1.20000000E+00  1.50000000E+00
  1.20000000E+00  1.20000000E+00  1.50000000E+00  1.20000000E+00  1.20000000E+00
  1.50000000E+00  1.20000000E+00  1.20000000E+00  1.50000000E+00  1.20000000E+00
  1.20000000E+00  1.50000000E+00  1.20000000E+00  1.20000000E+00  1.50000000E+00
  1.20000000E+00  1.20000000E+00  1.50000000E+00  1.20000000E+00  1.20000000E+00
  1.50000000E+00  1.20000000E+00  1.20000000E+00  1.50000000E+00  1.20000000E+00
  1.20000000E+00  1.50000000E+00  1.20000000E+00  1.20000000E+00  1.50000000E+00
  1.20000000E+00  1.20000000E+00  1.50000000E+00  1.20000000E+00  1.20000000E+00
  1.50000000E+00  1.20000000E+00  1.20000000E+00  1.50000000E+00  1.20000000E+00
  1.20000000E+00  1.50000000E+00  1.20000000E+00  1.20000000E+00  1.50000000E+00
  1.20000000E+00  1.20000000E+00  1.50000000E+00  1.20000000E+00  1.20000000E+00
  1.50000000E+00  1.20000000E+00  1.20000000E+00  1.50000000E+00  1.20000000E+00
  1.20000000E+00  1.50000000E+00  1.20000000E+00  1.20000000E+00  1.50000000E+00
  1.20000000E+00  1.20000000E+00  1.50000000E+00  1.20000000E+00  1.20000000E+00
  1.50000000E+00  1.20000000E+00  1.20000000E+00  1.50000000E+00  1.20000000E+00
  1.20000000E+00  1.50000000E+00  1.20000000E+00  1.20000000E+00  1.50000000E+00
  1.20000000E+00  1.20000000E+00  1.50000000E+00  1.20000000E+00  1.20000000E+00
  1.50000000E+00  1.20000000E+00  1.20000000E+00  1.50000000E+00  1.20000000E+00
  1.20000000E+00  1.50000000E+00  1.20000000E+00  1.20000000E+00  1.50000000E+00
  1.20000000E+00  1.20000000E+00  1.50000000E+00  1.20000000E+00  1.20000000E+00
  1.50000000E+00  1.20000000E+00  1.20000000E+00  1.50000000E+00  1.20000000E+00
  1.20000000E+00  1.50000000E+00  1.20000000E+00  1.20000000E+00  1.50000000E+00
  1.20000000E+00  1.20000000E+00  1.50000000E+00  1.20000000E+00  1.20000000E+00
  1.50000000E+00  1.20000000E+00  1.20000000E+00  1.50000000E+00  1.20000000E+00
  1.20000000E+00  1.50000000E+00  1.20000000E+00  1.20000000E+00  1.50000000E+00
  1.20000000E+00  1.20000000E+00  1.50000000E+00  1.20000000E+00  1.20000000E+00
  1.50000000E+00  1.20000000E+00  1.20000000E+00  1.50000000E+00  1.20000000E+00
  1.20000000E+00  1.50000000E+00  1.20000000E+00  1.20000000E+00  1.50000000E+00
  1.20000000E+00  1.20000000E+00  1.50000000E+00  1.20000000E+00  1.20000000E+00
  1.50000000E+00  1.20000000E+00  1.20000000E+00  1.50000000E+00  1.20000000E+00
  1.20000000E+00  1.50000000E+00  1.20000000E+00  1.20000000E+00  1.50000000E+00
  1.20000000E+00  1.20000000E+00  1.50000000E+00  1.20000000E+00  1.20000000E+00
  1.50000000E+00  1.20000000E+00  1.20000000E+00  1.50000000E+00  1.20000000E+00
  1.20000000E+00  1.50000000E+00  1.20000000E+00  1.20000000E+00  1.50000000E+00
  1.20000000E+00  1.20000000E+00  1.50000000E+00  1.20000000E+00  1.20000000E+00
  1.50000000E+00  1.20000000E+00  1.20000000E+00  1.50000000E+00  1.20000000E+00
  1.20000000E+00  1.50000000E+00  1.20000000E+00  1.20000000E+00  1.50000000E+00
  1.20000000E+00  1.20000000E+00  1.50000000E+00  1.20000000E+00  1.20000000E+00
  1.50000000E+00  1.20000000E+00  1.20000000E+00  1.50000000E+00  1.20000000E+00
  1.20000000E+00  1.50000000E+00  1.20000000E+00  1.20000000E+00  1.50000000E+00
  1.20000000E+00  1.20000000E+00  1.50000000E+00  1.20000000E+00  1.20000000E+00
  1.50000000E+00  1.20000000E+00  1.20000000E+00  1.50000000E+00  1.20000000E+00
  1.20000000E+00  1.50000000E+00  1.20000000E+00  1.20000000E+00  1.50000000E+00
  1.20000000E+00  1.20000000E+00  1.50000000E+00  1.20000000E+00  1.20000000E+00
  1.50000000E+00  1.20000000E+00  1.20000000E+00  1.50000000E+00  1.20000000E+00
  1.20000000E+00  1.50000000E+00  1.20000000E+00  1.20000000E+00  1.50000000E+00
  1.20000000E+00  1.20000000E+00  1.50000000E+00  1.20000000E+00  1.20000000E+00
  1.50000000E+00  1.20000000E+00  1.20000000E+00  1.50000000E+00  1.20000000E+00
  1.20000000E+00  1.50000000E+00  1.20000000E+00  1.20000000E+00  1.50000000E+00
  1.20000000E+00  1.20000000E+00  1.50000000E+00  1.20000000E+00  1.20000000E+00
  1.50000000E+00  1.20000000E+00  1.20000000E+00  1.50000000E+00  1.20000000E+00
  1.20000000E+00  1.50000000E+00  1.20000000E+00  1.20000000E+00  1.50000000E+00
  1.20000000E+00  1.20000000E+00  1.50000000E+00  1.20000000E+00  1.20000000E+00
  1.50000000E+00  1.20000000E+00  1.20000000E+00  1.50000000E+00  1.20000000E+00
  1.20000000E+00  1.50000000E+00  1.20000000E+00  1.20000000E+00  1.50000000E+00
  1.20000000E+00  1.20000000E+00  1.50000000E+00  1.20000000E+00  1.20000000E+00
  1.50000000E+00  1.20000000E+00  1.20000000E+00  1.50000000E+00  1.20000000E+00
  1.20000000E+00  1.50000000E+00  1.20000000E+00  1.20000000E+00  1.50000000E+00
  1.20000000E+00  1.20000000E+00  1.50000000E+00  1.20000000E+00  1.20000000E+00
  1.50000000E+00  1.20000000E+00  1.20000000E+00  1.50000000E+00  1.20000000E+00
  1.20000000E+00  1.50000000E+00  1.20000000E+00  1.20000000E+00  1.50000000E+00
  1.20000000E+00  1.20000000E+00  1.50000000E+00  1.20000000E+00  1.20000000E+00
  1.50000000E+00  1.20000000E+00  1.20000000E+00  1.50000000E+00  1.20000000E+00
  1.20000000E+00  1.50000000E+00  1.20000000E+00  1.20000000E+00  1.50000000E+00
  1.20000000E+00  1.20000000E+00  1.50000000E+00  1.20000000E+00  1.20000000E+00
  1.50000000E+00  1.20000000E+00  1.20000000E+00  1.50000000E+00  1.20000000E+00
  1.20000000E+00  1.50000000E+00  1.20000000E+00  1.20000000E+00  1.50000000E+00
  1.20000000E+00  1.20000000E+00  1.50000000E+00  1.20000000E+00  1.20000000E+00
  1.50000000E+00  1.20000000E+00  1.20000000E+00  1.50000000E+00  1.20000000E+00
  1.20000000E+00  1.50000000E+00  1.20000000E+00  1.20000000E+00  1.50000000E+00
  1.20000000E+00  1.20000000E+00  1.50000000E+00  1.20000000E+00  1.20000000E+00
  1.50000000E+00  1.20000000E+00  1.20000000E+00  1.50000000E+00  1.20000000E+00
  1.20000000E+00  1.50000000E+00  1.20000000E+00  1.20000000E+00  1.50000000E+00
  1.20000000E+00  1.20000000E+00  1.50000000E+00  1.20000000E+00  1.20000000E+00
  1.50000000E+00  1.20000000E+00  1.20000000E+00  1.50000000E+00  1.20000000E+00
  1.20000000E+00  1.50000000E+00  1.20000000E+00  1.20000000E+00  1.50000000E+00
  1.20000000E+00  1.20000000E+00  1.50000000E+00  1.20000000E+00  1.20000000E+00
  1.50000000E+00  1.20000000E+00  1.20000000E+00  1.50000000E+00  1.20000000E+00
  1.20000000E+00  1.50000000E+00  1.20000000E+00  1.20000000E+00  1.50000000E+00
  1.20000000E+00  1.20000000E+00  1.50000000E+00  1.20000000E+00  1.20000000E+00
  1.50000000E+00  1.20000000E+00  1.20000000E+00  1.50000000E+00  1.20000000E+00
  1.20000000E+00  1.50000000E+00  1.20000000E+00  1.20000000E+00  1.50000000E+00
  1.20000000E+00  1.20000000E+00  1.50000000E+00  1.20000000E+00  1.20000000E+00
  1.50000000E+00  1.20000000E+00  1.20000000E+00  1.50000000E+00  1.20000000E+00
  1.20000000E+00  1.50000000E+00  1.20000000E+00  1.20000000E+00  1.50000000E+00
  1.20000000E+00  1.20000000E+00  1.50000000E+00  1.20000000E+00  1.20000000E+00
  1.50000000E+00  1.20000000E+00  1.20000000E+00  1.50000000E+00  1.20000000E+00
  1.20000000E+00  1.50000000E+00  1.20000000E+00  1.20000000E+00  1.50000000E+00
  1.20000000E+00  1.20000000E+00  1.50000000E+00  1.20000000E+00  1.20000000E+00
  1.50000000E+00  1.20000000E+00  1.20000000E+00  1.50000000E+00  1.20000000E+00
  1.20000000E+00  1.50000000E+00  1.20000000E+00  1.20000000E+00  1.50000000E+00
  1.20000000E+00  1.20000000E+00  1.50000000E+00  1.20000000E+00  1.20000000E+00
  1.50000000E+00  1.20000000E+00  1.20000000E+00  1.50000000E+00  1.20000000E+00
  1.20000000E+00  1.50000000E+00  1.20000000E+00  1.20000000E+00  1.50000000E+00
  1.20000000E+00  1.20000000E+00  1.50000000E+00  1.20000000E+00  1.20000000E+00
  1.50000000E+00  1.20000000E+00  1.20000000E+00  1.50000000E+00  1.20000000E+00
  1.20000000E+00  1.50000000E+00  1.20000000E+00  1.20000000E+00  1.50000000E+00
  1.20000000E+00  1.20000000E+00  1.50000000E+00  1.20000000E+00  1.20000000E+00
  1.50000000E+00  1.20000000E+00  1.20000000E+00  1.50000000E+00  1.20000000E+00
  1.20000000E+00  1.50000000E+00  1.20000000E+00  1.20000000E+00  1.50000000E+00
  1.20000000E+00  1.20000000E+00  1.50000000E+00  1.20000000E+00  1.20000000E+00
  1.50000000E+00  1.20000000E+00  1.20000000E+00  1.50000000E+00  1.20000000E+00
  1.20000000E+00  1.50000000E+00  1.20000000E+00  1.20000000E+00  1.50000000E+00
  1.20000000E+00  1.20000000E+00  1.50000000E+00  1.20000000E+00  1.20000000E+00
  1.50000000E+00  1.20000000E+00  1.20000000E+00  1.50000000E+00  1.20000000E+00
  1.20000000E+00  1.50000000E+00  1.20000000E+00  1.20000000E+00  1.50000000E+00
  1.20000000E+00  1.20000000E+00  1.50000000E+00  1.20000000E+00  1.20000000E+00
  1.50000000E+00  1.20000000E+00  1.20000000E+00  1.50000000E+00  1.20000000E+00
  1.20000000E+00  1.50000000E+00  1.20000000E+00  1.20000000E+00  1.50000000E+00
  1.20000000E+00  1.20000000E+00  1.50000000E+00  1.20000000E+00  1.20000000E+00
  1.50000000E+00  1.20000000E+00  1.20000000E+00  1.50000000E+00  1.20000000E+00
  1.20000000E+00  1.50000000E+00  1.20000000E+00  1.20000000E+00  1.50000000E+00
  1.20000000E+00  1.20000000E+00  1.50000000E+00  1.20000000E+00  1.20000000E+00
  1.50000000E+00  1.20000000E+00  1.20000000E+00  1.50000000E+00  1.20000000E+00
  1.20000000E+00  1.50000000E+00  1.20000000E+00  1.20000000E+00  1.50000000E+00
  1.20000000E+00  1.20000000E+00  1.50000000E+00  1.20000000E+00  1.20000000E+00
  1.50000000E+00  1.20000000E+00  1.20000000E+00  1.50000000E+00  1.20000000E+00
  1.20000000E+00  1.50000000E+00  1.20000000E+00  1.20000000E+00  1.50000000E+00
  1.20000000E+00  1.20000000E+00  1.50000000E+00  1.20000000E+00  1.20000000E+00
  1.50000000E+00  1.20000000E+00  1.20000000E+00  1.50000000E+00  1.20000000E+00
  1.20000000E+00  1.50000000E+00  1.20000000E+00  1.20000000E+00  1.50000000E+00
  1.20000000E+00  1.20000000E+00  1.50000000E+00  1.20000000E+00  1.20000000E+00
  1.50000000E+00  1.20000000E+00  1.20000000E+00  1.50000000E+00  1.20000000E+00
  1.20000000E+00  1.50000000E+00  1.20000000E+00  1.20000000E+00  1.50000000E+00
  1.20000000E+00  1.20000000E+00  1.50000000E+00  1.20000000E+00  1.20000000E+00
  1.50000000E+00  1.20000000E+00  1.20000000E+00  1.50000000E+00  1.20000000E+00
  1.20000000E+00  1.50000000E+00  1.20000000E+00  1.20000000E+00  1.50000000E+00
  1.20000000E+00  1.20000000E+00  1.50000000E+00  1.20000000E+00  1.20000000E+00
  1.50000000E+00  1.20000000E+00  1.20000000E+00  1.50000000E+00  1.20000000E+00
  1.20000000E+00  1.50000000E+00  1.20000000E+00  1.20000000E+00  1.50000000E+00
  1.20000000E+00  1.20000000E+00  1.50000000E+00  1.20000000E+00  1.20000000E+00
  1.50000000E+00  1.20000000E+00  1.20000000E+00  1.50000000E+00  1.20000000E+00
  1.20000000E+00  1.50000000E+00  1.20000000E+00  1.20000000E+00  1.50000000E+00
  1.20000000E+00  1.20000000E+00  1.50000000E+00  1.20000000E+00  1.20000000E+00
  1.50000000E+00  1.20000000E+00  1.20000000E+00  1.50000000E+00  1.20000000E+00
  1.20000000E+00  1.50000000E+00  1.20000000E+00  1.20000000E+00  1.50000000E+00
  1.20000000E+00  1.20000000E+00  1.50000000E+00  1.20000000E+00  1.20000000E+00
  1.50000000E+00  1.20000000E+00  1.20000000E+00  1.50000000E+00  1.20000000E+00
  1.20000000E+00  1.50000000E+00  1.20000000E+00  1.20000000E+00  1.50000000E+00
  1.20000000E+00  1.20000000E+00  1.50000000E+00  1.20000000E+00  1.20000000E+00
  1.50000000E+00  1.20000000E+00  1.20000000E+00  1.50000000E+00  1.20000000E+00
  1.20000000E+00  1.50000000E+00  1.20000000E+00  1.20000000E+00  1.50000000E+00
  1.20000000E+00  1.20000000E+00  1.50000000E+00  1.20000000E+00  1.20000000E+00
  1.50000000E+00  1.20000000E+00  1.20000000E+00  1.50000000E+00  1.20000000E+00
  1.20000000E+00  1.50000000E+00  1.20000000E+00  1.20000000E+00  1.50000000E+00
  1.20000000E+00  1.20000000E+00  1.50000000E+00  1.20000000E+00  1.20000000E+00
  1.50000000E+00  1.20000000E+00  1.20000000E+00  1.50000000E+00  1.20000000E+00
  1.20000000E+00  1.50000000E+00  1.20000000E+00  1.20000000E+00  1.50000000E+00
  1.20000000E+00  1.20000000E+00  1.50000000E+00  1.20000000E+00  1.20000000E+00
  1.50000000E+00  1.20000000E+00  1.20000000E+00  1.50000000E+00  1.20000000E+00
  1.20000000E+00  1.50000000E+00  1.20000000E+00  1.20000000E+00  1.50000000E+00
  1.20000000E+00  1.20000000E+00  1.50000000E+00  1.20000000E+00  1.20000000E+00
  1.50000000E+00  1.20000000E+00  1.20000000E+00  1.50000000E+00  1.20000000E+00
  1.20000000E+00  1.50000000E+00  1.20000000E+00  1.20000000E+00  1.50000000E+00
  1.20000000E+00  1.20000000E+00  1.50000000E+00  1.20000000E+00  1.20000000E+00
  1.50000000E+00  1.20000000E+00  1.20000000E+00  1.50000000E+00  1.20000000E+00
  1.20000000E+00  1.50000000E+00  1.20000000E+00  1.20000000E+00  1.50000000E+00
  1.20000000E+00  1.20000000E+00  1.50000000E+00  1.20000000E+00  1.20000000E+00
  1.50000000E+00  1.20000000E+00  1.20000000E+00  1.50000000E+00  1.20000000E+00
  1.20000000E+00  1.50000000E+00  1.20000000E+00  1.20000000E+00  1.50000000E+00
  1.20000000E+00  1.20000000E+00  1.50000000E+00  1.20000000E+00  1.20000000E+00
  1.50000000E+00  1.20000000E+00  1.20000000E+00  1.50000000E+00  1.20000000E+00
  1.20000000E+00  1.50000000E+00  1.20000000E+00  1.20000000E+00  1.50000000E+00
  1.20000000E+00  1.20000000E+00  1.50000000E+00  1.20000000E+00  1.20000000E+00
  1.50000000E+00  1.20000000E+00  1.20000000E+00  1.50000000E+00  1.20000000E+00
  1.20000000E+00  1.50000000E+00  1.20000000E+00  1.20000000E+00  1.50000000E+00
  1.20000000E+00  1.20000000E+00  1.50000000E+00  1.20000000E+00  1.20000000E+00
  1.50000000E+00  1.20000000E+00  1.20000000E+00  1.50000000E+00  1.20000000E+00
  1.20000000E+00  1.50000000E+00  1.20000000E+00  1.20000000E+00  1.50000000E+00
  1.20000000E+00  1.20000000E+00  1.50000000E+00  1.20000000E+00  1.20000000E+00
  1.50000000E+00  1.20000000E+00  1.20000000E+00  1.50000000E+00  1.20000000E+00
  1.20000000E+00  1.50000000E+00  1.20000000E+00  1.20000000E+00  1.50000000E+00
  1.20000000E+00  1.20000000E+00  1.50000000E+00  1.20000000E+00  1.20000000E+00
  1.50000000E+00  1.20000000E+00  1.20000000E+00  1.50000000E+00  1.20000000E+00
  1.20000000E+00  1.50000000E+00  1.20000000E+00  1.20000000E+00  1.50000000E+00
  1.20000000E+00  1.20000000E+00  1.50000000E+00  1.20000000E+00  1.20000000E+00
  1.50000000E+00  1.20000000E+00  1.20000000E+00  1.50000000E+00  1.20000000E+00
  1.20000000E+00  1.50000000E+00  1.20000000E+00  1.20000000E+00  1.50000000E+00
  1.20000000E+00  1.20000000E+00  1.50000000E+00  1.20000000E+00  1.20000000E+00
  1.50000000E+00  1.20000000E+00  1.20000000E+00  1.50000000E+00  1.20000000E+00
  1.20000000E+00  1.50000000E+00  1.20000000E+00  1.20000000E+00  1.50000000E+00
  1.20000000E+00  1.20000000E+00  1.50000000E+00  1.20000000E+00  1.20000000E+00
  1.50000000E+00  1.20000000E+00  1.20000000E+00  1.50000000E+00  1.20000000E+00
  1.20000000E+00  1.50000000E+00  1.20000000E+00  1.20000000E+00  1.50000000E+00
  1.20000000E+00  1.20000000E+00  1.50000000E+00  1.20000000E+00  1.20000000E+00
  1.50000000E+00  1.20000000E+00  1.20000000E+00  1.50000000E+00  1.20000000E+00
  1.20000000E+00  1.50000000E+00  1.20000000E+00  1.20000000E+00  1.50000000E+00
  1.20000000E+00  1.20000000E+00  1.50000000E+00  1.20000000E+00  1.20000000E+00
  1.50000000E+00  1.20000000E+00  1.20000000E+00  1.50000000E+00  1.20000000E+00
  1.20000000E+00  1.50000000E+00  1.20000000E+00  1.20000000E+00  1.50000000E+00
  1.20000000E+00  1.20000000E+00  1.50000000E+00  1.20000000E+00  1.20000000E+00
  1.50000000E+00  1.20000000E+00  1.20000000E+00  1.50000000E+00  1.20000000E+00
  1.20000000E+00  1.50000000E+00  1.20000000E+00  1.20000000E+00  1.50000000E+00
  1.20000000E+00  1.20000000E+00  1.50000000E+00  1.20000000E+00  1.20000000E+00
  1.50000000E+00  1.20000000E+00  1.20000000E+00  1.50000000E+00  1.20000000E+00
  1.20000000E+00  1.50000000E+00  1.20000000E+00  1.20000000E+00  1.50000000E+00
  1.20000000E+00  1.20000000E+00  1.50000000E+00  1.20000000E+00  1.20000000E+00
  1.50000000E+00  1.20000000E+00  1.20000000E+00  1.50000000E+00  1.20000000E+00
  1.20000000E+00  1.50000000E+00  1.20000000E+00  1.20000000E+00  1.50000000E+00
  1.20000000E+00  1.20000000E+00  1.50000000E+00  1.20000000E+00  1.20000000E+00
  1.50000000E+00  1.20000000E+00  1.20000000E+00  1.50000000E+00  1.20000000E+00
  1.20000000E+00  1.50000000E+00  1.20000000E+00  1.20000000E+00  1.50000000E+00
  1.20000000E+00  1.20000000E+00  1.50000000E+00  1.20000000E+00  1.20000000E+00
  1.50000000E+00  1.20000000E+00  1.20000000E+00  1.50000000E+00  1.20000000E+00
  1.20000000E+00  1.50000000E+00  1.20000000E+00  1.20000000E+00  1.50000000E+00
  1.20000000E+00  1.20000000E+00  1.50000000E+00  1.20000000E+00  1.20000000E+00
  1.50000000E+00  1.20000000E+00  1.20000000E+00  1.50000000E+00  1.20000000E+00
  1.20000000E+00  1.50000000E+00  1.20000000E+00  1.20000000E+00  1.50000000E+00
  1.20000000E+00  1.20000000E+00  1.50000000E+00  1.20000000E+00  1.20000000E+00
  1.50000000E+00  1.20000000E+00  1.20000000E+00  1.50000000E+00  1.20000000E+00
  1.20000000E+00  1.50000000E+00  1.20000000E+00  1.20000000E+00  1.50000000E+00
  1.20000000E+00  1.20000000E+00  1.50000000E+00  1.20000000E+00  1.20000000E+00
  1.50000000E+00  1.20000000E+00  1.20000000E+00  1.50000000E+00  1.20000000E+00
  1.20000000E+00  1.50000000E+00  1.20000000E+00  1.20000000E+00  1.50000000E+00
  1.20000000E+00  1.20000000E+00  1.50000000E+00  1.20000000E+00  1.20000000E+00
  1.50000000E+00  1.20000000E+00  1.20000000E+00  1.50000000E+00  1.20000000E+00
  1.20000000E+00  1.50000000E+00  1.20000000E+00  1.20000000E+00  1.50000000E+00
  1.20000000E+00  1.20000000E+00  1.50000000E+00  1.20000000E+00  1.20000000E+00
  1.50000000E+00  1.20000000E+00  1.20000000E+00  1.50000000E+00  1.20000000E+00
  1.20000000E+00  1.50000000E+00  1.20000000E+00  1.20000000E+00  1.50000000E+00
  1.20000000E+00  1.20000000E+00  1.50000000E+00  1.20000000E+00  1.20000000E+00
  1.50000000E+00  1.20000000E+00  1.20000000E+00  1.50000000E+00  1.20000000E+00
  1.20000000E+00  1.50000000E+00  1.20000000E+00  1.20000000E+00  1.50000000E+00
  1.20000000E+00  1.20000000E+00  1.50000000E+00  1.20000000E+00  1.20000000E+00
  1.50000000E+00  1.20000000E+00  1.20000000E+00  1.50000000E+00  1.20000000E+00
  1.20000000E+00  1.50000000E+00  1.20000000E+00  1.20000000E+00  1.50000000E+00
  1.20000000E+00  1.20000000E+00  1.50000000E+00  1.20000000E+00  1.20000000E+00
  1.50000000E+00  1.20000000E+00  1.20000000E+00  1.50000000E+00  1.20000000E+00
  1.20000000E+00  1.50000000E+00  1.20000000E+00  1.20000000E+00  1.50000000E+00
  1.20000000E+00  1.20000000E+00  1.50000000E+00  1.20000000E+00  1.20000000E+00
  1.50000000E+00  1.20000000E+00  1.20000000E+00  1.50000000E+00  1.20000000E+00
  1.20000000E+00  1.50000000E+00  1.20000000E+00  1.20000000E+00  1.50000000E+00
  1.20000000E+00  1.20000000E+00  1.50000000E+00  1.20000000E+00  1.20000000E+00
  1.50000000E+00  1.20000000E+00  1.20000000E+00  1.50000000E+00  1.20000000E+00
  1.20000000E+00  1.50000000E+00  1.20000000E+00  1.20000000E+00  1.50000000E+00
  1.20000000E+00  1.20000000E+00  1.50000000E+00  1.20000000E+00  1.20000000E+00
  1.50000000E+00  1.20000000E+00  1.20000000E+00  1.50000000E+00  1.20000000E+00
  1.20000000E+00  1.50000000E+00  1.20000000E+00  1.20000000E+00  1.50000000E+00
  1.20000000E+00  1.20000000E+00  1.50000000E+00  1.20000000E+00  1.20000000E+00
  1.50000000E+00  1.20000000E+00  1.20000000E+00  1.50000000E+00  1.20000000E+00
  1.20000000E+00  1.50000000E+00  1.20000000E+00  1.20000000E+00  1.50000000E+00
  1.20000000E+00  1.20000000E+00  1.50000000E+00  1.20000000E+00  1.20000000E+00
  1.50000000E+00  1.20000000E+00  1.20000000E+00  1.50000000E+00  1.20000000E+00
  1.20000000E+00  1.50000000E+00  1.20000000E+00  1.20000000E+00  1.50000000E+00
  1.20000000E+00  1.20000000E+00  1.50000000E+00  1.20000000E+00  1.20000000E+00
  1.50000000E+00  1.20000000E+00  1.20000000E+00  1.50000000E+00  1.20000000E+00
  1.20000000E+00  1.50000000E+00  1.20000000E+00  1.20000000E+00  1.50000000E+00
  1.20000000E+00  1.20000000E+00  1.50000000E+00  1.20000000E+00  1.20000000E+00
  1.50000000E+00  1.20000000E+00  1.20000000E+00  1.50000000E+00  1.20000000E+00
  1.20000000E+00  1.50000000E+00  1.20000000E+00  1.20000000E+00  1.50000000E+00
  1.20000000E+00  1.20000000E+00  1.50000000E+00  1.20000000E+00  1.20000000E+00
  1.50000000E+00  1.20000000E+00  1.20000000E+00  1.50000000E+00  1.20000000E+00
  1.20000000E+00  1.50000000E+00  1.20000000E+00  1.20000000E+00  1.50000000E+00
  1.20000000E+00  1.20000000E+00  1.50000000E+00  1.20000000E+00  1.20000000E+00
  1.50000000E+00  1.20000000E+00  1.20000000E+00  1.50000000E+00  1.20000000E+00
  1.20000000E+00  1.50000000E+00  1.20000000E+00  1.20000000E+00  1.50000000E+00
  1.20000000E+00  1.20000000E+00  1.50000000E+00  1.20000000E+00  1.20000000E+00
  1.50000000E+00  1.20000000E+00  1.20000000E+00  1.50000000E+00  1.20000000E+00
  1.20000000E+00  1.50000000E+00  1.20000000E+00  1.20000000E+00  1.50000000E+00
  1.20000000E+00  1.20000000E+00  1.50000000E+00  1.20000000E+00  1.20000000E+00
  1.50000000E+00  1.20000000E+00  1.20000000E+00  1.50000000E+00  1.20000000E+00
  1.20000000E+00  1.50000000E+00  1.20000000E+00  1.20000000E+00  1.50000000E+00
  1.20000000E+00  1.20000000E+00  1.50000000E+00  1.20000000E+00  1.20000000E+00
  1.50000000E+00  1.20000000E+00  1.20000000E+00  1.50000000E+00  1.20000000E+00
  1.20000000E+00  1.50000000E+00  1.20000000E+00  1.20000000E+00  1.50000000E+00
  1.20000000E+00  1.20000000E+00  1.50000000E+00  1.20000000E+00  1.20000000E+00
  1.50000000E+00  1.20000000E+00  1.20000000E+00  1.50000000E+00  1.20000000E+00
  1.20000000E+00  1.50000000E+00  1.20000000E+00  1.20000000E+00  1.50000000E+00
  1.20000000E+00  1.20000000E+00  1.50000000E+00  1.20000000E+00  1.20000000E+00
  1.50000000E+00  1.20000000E+00  1.20000000E+00  1.50000000E+00  1.20000000E+00
  1.20000000E+00  1.50000000E+00  1.20000000E+00  1.20000000E+00  1.50000000E+00
  1.20000000E+00  1.20000000E+00  1.50000000E+00  1.20000000E+00  1.20000000E+00
  1.50000000E+00  1.20000000E+00  1.20000000E+00  1.50000000E+00  1.20000000E+00
  1.20000000E+00  1.50000000E+00  1.20000000E+00  1.20000000E+00  1.50000000E+00
  1.20000000E+00  1.20000000E+00  1.50000000E+00  1.20000000E+00  1.20000000E+00
  1.50000000E+00  1.20000000E+00  1.20000000E+00  1.50000000E+00  1.20000000E+00
  1.20000000E+00  1.50000000E+00  1.20000000E+00  1.20000000E+00  1.50000000E+00
  1.20000000E+00  1.20000000E+00  1.50000000E+00  1.20000000E+00  1.20000000E+00
  1.50000000E+00  1.20000000E+00  1.20000000E+00  1.50000000E+00  1.20000000E+00
  1.20000000E+00  1.50000000E+00  1.20000000E+00  1.20000000E+00  1.50000000E+00
  1.20000000E+00  1.20000000E+00  1.50000000E+00  1.20000000E+00  1.20000000E+00
  1.50000000E+00  1.20000000E+00  1.20000000E+00  1.50000000E+00  1.20000000E+00
  1.20000000E+00  1.50000000E+00  1.20000000E+00  1.20000000E+00  1.50000000E+00
  1.20000000E+00  1.20000000E+00  1.50000000E+00  1.20000000E+00  1.20000000E+00
  1.50000000E+00  1.20000000E+00  1.20000000E+00  1.50000000E+00  1.20000000E+00
  1.20000000E+00  1.50000000E+00  1.20000000E+00  1.20000000E+00  1.50000000E+00
  1.20000000E+00  1.20000000E+00  1.50000000E+00  1.20000000E+00  1.20000000E+00
  1.50000000E+00  1.20000000E+00  1.20000000E+00  1.50000000E+00  1.20000000E+00
  1.20000000E+00  1.50000000E+00  1.20000000E+00  1.20000000E+00  1.50000000E+00
  1.20000000E+00  1.20000000E+00  1.50000000E+00  1.20000000E+00  1.20000000E+00
  1.50000000E+00  1.20000000E+00  1.20000000E+00  1.50000000E+00  1.20000000E+00
  1.20000000E+00  1.50000000E+00  1.20000000E+00  1.20000000E+00  1.50000000E+00
  1.20000000E+00  1.20000000E+00  1.50000000E+00  1.20000000E+00  1.20000000E+00
  1.50000000E+00  1.20000000E+00  1.20000000E+00  1.50000000E+00  1.20000000E+00
  1.20000000E+00  1.50000000E+00  1.20000000E+00  1.20000000E+00  1.50000000E+00
  1.20000000E+00  1.20000000E+00  1.50000000E+00  1.20000000E+00  1.20000000E+00
  1.50000000E+00  1.20000000E+00  1.20000000E+00  1.50000000E+00  1.20000000E+00
  1.20000000E+00  1.50000000E+00  1.20000000E+00  1.20000000E+00  1.50000000E+00
  1.20000000E+00  1.20000000E+00  1.50000000E+00  1.20000000E+00  1.20000000E+00
  1.50000000E+00  1.20000000E+00  1.20000000E+00  1.50000000E+00  1.20000000E+00
  1.20000000E+00  1.50000000E+00  1.20000000E+00  1.20000000E+00  1.50000000E+00
  1.20000000E+00  1.20000000E+00  1.50000000E+00  1.20000000E+00  1.20000000E+00
  1.50000000E+00  1.20000000E+00  1.20000000E+00  1.50000000E+00  1.20000000E+00
  1.20000000E+00  1.50000000E+00  1.20000000E+00  1.20000000E+00  1.50000000E+00
  1.20000000E+00  1.20000000E+00  1.50000000E+00  1.20000000E+00  1.20000000E+00
  1.50000000E+00  1.20000000E+00  1.20000000E+00  1.50000000E+00  1.20000000E+00
  1.20000000E+00  1.50000000E+00  1.20000000E+00  1.20000000E+00  1.50000000E+00
  1.20000000E+00  1.20000000E+00  1.50000000E+00  1.20000000E+00  1.20000000E+00
  1.50000000E+00  1.20000000E+00  1.20000000E+00  1.50000000E+00  1.20000000E+00
  1.20000000E+00  1.50000000E+00  1.20000000E+00  1.20000000E+00  1.50000000E+00
  1.20000000E+00  1.20000000E+00  1.50000000E+00  1.20000000E+00  1.20000000E+00
  1.50000000E+00  1.20000000E+00  1.20000000E+00  1.50000000E+00  1.20000000E+00
  1.20000000E+00  1.50000000E+00  1.20000000E+00  1.20000000E+00  1.50000000E+00
  1.20000000E+00  1.20000000E+00  1.50000000E+00  1.20000000E+00  1.20000000E+00
  1.50000000E+00  1.20000000E+00  1.20000000E+00  1.50000000E+00  1.20000000E+00
  1.20000000E+00  1.50000000E+00  1.20000000E+00  1.20000000E+00  1.50000000E+00
  1.20000000E+00  1.20000000E+00  1.50000000E+00  1.20000000E+00  1.20000000E+00
  1.50000000E+00  1.20000000E+00  1.20000000E+00  1.50000000E+00  1.20000000E+00
  1.20000000E+00  1.50000000E+00  1.20000000E+00  1.20000000E+00  1.50000000E+00
  1.20000000E+00  1.20000000E+00  1.50000000E+00  1.20000000E+00  1.20000000E+00
  1.50000000E+00  1.20000000E+00  1.20000000E+00  1.50000000E+00  1.20000000E+00
  1.20000000E+00  1.50000000E+00  1.20000000E+00  1.20000000E+00  1.50000000E+00
  1.20000000E+00  1.20000000E+00  1.50000000E+00  1.20000000E+00  1.20000000E+00
  1.50000000E+00  1.20000000E+00  1.20000000E+00  1.50000000E+00  1.20000000E+00
  1.20000000E+00  1.50000000E+00  1.20000000E+00  1.20000000E+00  1.50000000E+00
  1.20000000E+00  1.20000000E+00  1.50000000E+00  1.20000000E+00  1.20000000E+00
  1.50000000E+00  1.20000000E+00  1.20000000E+00  1.50000000E+00  1.20000000E+00
  1.20000000E+00  1.50000000E+00  1.20000000E+00  1.20000000E+00  1.50000000E+00
  1.20000000E+00  1.20000000E+00  1.50000000E+00  1.20000000E+00  1.20000000E+00
  1.50000000E+00  1.20000000E+00  1.20000000E+00  1.50000000E+00  1.20000000E+00
  1.20000000E+00  1.50000000E+00  1.20000000E+00  1.20000000E+00  1.50000000E+00
  1.20000000E+00  1.20000000E+00  1.50000000E+00  1.20000000E+00  1.20000000E+00
  1.50000000E+00  1.20000000E+00  1.20000000E+00  1.50000000E+00  1.20000000E+00
  1.20000000E+00  1.50000000E+00  1.20000000E+00  1.20000000E+00  1.50000000E+00
  1.20000000E+00  1.20000000E+00  1.50000000E+00  1.20000000E+00  1.20000000E+00
  1.50000000E+00  1.20000000E+00  1.20000000E+00  1.50000000E+00  1.20000000E+00
  1.20000000E+00  1.50000000E+00  1.20000000E+00  1.20000000E+00  1.50000000E+00
  1.20000000E+00  1.20000000E+00  1.50000000E+00  1.20000000E+00  1.20000000E+00
  1.50000000E+00  1.20000000E+00  1.20000000E+00  1.50000000E+00  1.20000000E+00
  1.20000000E+00  1.50000000E+00  1.20000000E+00  1.20000000E+00  1.50000000E+00
  1.20000000E+00  1.20000000E+00  1.50000000E+00  1.20000000E+00  1.20000000E+00
  1.50000000E+00  1.20000000E+00  1.20000000E+00  1.50000000E+00  1.20000000E+00
  1.20000000E+00  1.50000000E+00  1.20000000E+00  1.20000000E+00  1.50000000E+00
  1.20000000E+00  1.20000000E+00  1.50000000E+00  1.20000000E+00  1.20000000E+00
  1.50000000E+00  1.20000000E+00  1.20000000E+00  1.50000000E+00  1.20000000E+00
  1.20000000E+00  1.50000000E+00  1.20000000E+00  1.20000000E+00  1.50000000E+00
  1.20000000E+00  1.20000000E+00  1.50000000E+00  1.20000000E+00  1.20000000E+00
  1.50000000E+00  1.20000000E+00  1.20000000E+00  1.50000000E+00  1.20000000E+00
  1.20000000E+00  1.50000000E+00  1.20000000E+00  1.20000000E+00  1.50000000E+00
  1.20000000E+00  1.20000000E+00  1.50000000E+00  1.20000000E+00  1.20000000E+00
  1.50000000E+00  1.20000000E+00  1.20000000E+00  1.50000000E+00  1.20000000E+00
  1.20000000E+00  1.50000000E+00  1.20000000E+00  1.20000000E+00  1.50000000E+00
  1.20000000E+00  1.20000000E+00  1.50000000E+00  1.20000000E+00  1.20000000E+00
  1.50000000E+00  1.20000000E+00  1.20000000E+00  1.50000000E+00  1.20000000E+00
  1.20000000E+00  1.50000000E+00  1.20000000E+00  1.20000000E+00  1.50000000E+00
  1.20000000E+00  1.20000000E+00  1.50000000E+00  1.20000000E+00  1.20000000E+00
  1.50000000E+00  1.20000000E+00  1.20000000E+00  1.50000000E+00  1.20000000E+00
  1.20000000E+00  1.50000000E+00  1.20000000E+00  1.20000000E+00  1.50000000E+00
  1.20000000E+00  1.20000000E+00  1.50000000E+00  1.20000000E+00  1.20000000E+00
  1.50000000E+00  1.20000000E+00  1.20000000E+00  1.50000000E+00  1.20000000E+00
  1.20000000E+00  1.50000000E+00  1.20000000E+00  1.20000000E+00  1.50000000E+00
  1.20000000E+00  1.20000000E+00  1.50000000E+00  1.20000000E+00  1.20000000E+00
  1.50000000E+00  1.20000000E+00  1.20000000E+00  1.50000000E+00  1.20000000E+00
  1.20000000E+00  1.50000000E+00  1.20000000E+00  1.20000000E+00  1.50000000E+00
  1.20000000E+00  1.20000000E+00  1.50000000E+00  1.20000000E+00  1.20000000E+00
  1.50000000E+00  1.20000000E+00  1.20000000E+00  1.50000000E+00  1.20000000E+00
  1.20000000E+00  1.50000000E+00  1.20000000E+00  1.20000000E+00  1.50000000E+00
  1.20000000E+00  1.20000000E+00  1.50000000E+00  1.20000000E+00  1.20000000E+00
  1.50000000E+00  1.20000000E+00  1.20000000E+00  1.50000000E+00  1.20000000E+00
  1.20000000E+00  1.50000000E+00  1.20000000E+00  1.20000000E+00  1.50000000E+00
  1.20000000E+00  1.20000000E+00  1.50000000E+00  1.20000000E+00  1.20000000E+00
  1.50000000E+00  1.20000000E+00  1.20000000E+00  1.50000000E+00  1.20000000E+00
  1.20000000E+00  1.50000000E+00  1.20000000E+00  1.20000000E+00  1.50000000E+00
  1.20000000E+00  1.20000000E+00  1.50000000E+00  1.20000000E+00  1.20000000E+00
  1.50000000E+00  1.20000000E+00  1.20000000E+00  1.50000000E+00  1.20000000E+00
  1.20000000E+00  1.50000000E+00  1.20000000E+00  1.20000000E+00  1.50000000E+00
  1.20000000E+00  1.20000000E+00  1.50000000E+00  1.20000000E+00  1.20000000E+00
  1.50000000E+00  1.20000000E+00  1.20000000E+00  1.50000000E+00  1.20000000E+00
  1.20000000E+00  1.50000000E+00  1.20000000E+00  1.20000000E+00  1.50000000E+00
  1.20000000E+00  1.20000000E+00  1.50000000E+00  1.20000000E+00  1.20000000E+00
  1.50000000E+00  1.20000000E+00  1.20000000E+00  1.50000000E+00  1.20000000E+00
  1.20000000E+00  1.50000000E+00  1.20000000E+00  1.20000000E+00  1.50000000E+00
  1.20000000E+00  1.20000000E+00  1.50000000E+00  1.20000000E+00  1.20000000E+00
  1.50000000E+00  1.20000000E+00  1.20000000E+00  1.50000000E+00  1.20000000E+00
  1.20000000E+00  1.50000000E+00  1.20000000E+00  1.20000000E+00  1.50000000E+00
  1.20000000E+00  1.20000000E+00  1.50000000E+00  1.20000000E+00  1.20000000E+00
  1.50000000E+00  1.20000000E+00  1.20000000E+00  1.50000000E+00  1.20000000E+00
  1.20000000E+00  1.50000000E+00  1.20000000E+00  1.20000000E+00  1.50000000E+00
  1.20000000E+00  1.20000000E+00  1.50000000E+00  1.20000000E+00  1.20000000E+00
  1.50000000E+00  1.20000000E+00  1.20000000E+00  1.50000000E+00  1.20000000E+00
  1.20000000E+00  1.50000000E+00  1.20000000E+00  1.20000000E+00  1.50000000E+00
  1.20000000E+00  1.20000000E+00  1.50000000E+00  1.20000000E+00  1.20000000E+00
  1.50000000E+00  1.20000000E+00  1.20000000E+00  1.50000000E+00  1.20000000E+00
  1.20000000E+00  1.50000000E+00  1.20000000E+00  1.20000000E+00  1.50000000E+00
  1.20000000E+00  1.20000000E+00  1.50000000E+00  1.20000000E+00  1.20000000E+00
  1.50000000E+00  1.20000000E+00  1.20000000E+00  1.50000000E+00  1.20000000E+00
  1.20000000E+00  1.50000000E+00  1.20000000E+00  1.20000000E+00  1.50000000E+00
  1.20000000E+00  1.20000000E+00  1.50000000E+00  1.20000000E+00  1.20000000E+00
  1.50000000E+00  1.20000000E+00  1.20000000E+00  1.50000000E+00  1.20000000E+00
  1.20000000E+00  1.50000000E+00  1.20000000E+00  1.20000000E+00  1.50000000E+00
  1.20000000E+00  1.20000000E+00  1.50000000E+00  1.20000000E+00  1.20000000E+00
  1.50000000E+00  1.20000000E+00  1.20000000E+00  1.50000000E+00  1.20000000E+00
  1.20000000E+00  1.50000000E+00  1.20000000E+00  1.20000000E+00  1.50000000E+00
  1.20000000E+00  1.20000000E+00  1.50000000E+00  1.20000000E+00  1.20000000E+00
  1.50000000E+00  1.20000000E+00  1.20000000E+00  1.50000000E+00  1.20000000E+00
  1.20000000E+00  1.50000000E+00  1.20000000E+00  1.20000000E+00  1.50000000E+00
  1.20000000E+00  1.20000000E+00  1.50000000E+00  1.20000000E+00  1.20000000E+00
  1.50000000E+00  1.20000000E+00  1.20000000E+00  1.50000000E+00  1.20000000E+00
  1.20000000E+00  1.50000000E+00  1.20000000E+00  1.20000000E+00  1.50000000E+00
  1.20000000E+00  1.20000000E+00  1.50000000E+00  1.20000000E+00  1.20000000E+00
  1.50000000E+00  1.20000000E+00  1.20000000E+00  1.50000000E+00  1.20000000E+00
  1.20000000E+00  1.50000000E+00  1.20000000E+00  1.20000000E+00  1.50000000E+00
  1.20000000E+00  1.20000000E+00  1.50000000E+00  1.20000000E+00  1.20000000E+00
  1.50000000E+00  1.20000000E+00  1.20000000E+00  1.50000000E+00  1.20000000E+00
  1.20000000E+00  1.50000000E+00  1.20000000E+00  1.20000000E+00  1.50000000E+00
  1.20000000E+00  1.20000000E+00  1.50000000E+00  1.20000000E+00  1.20000000E+00
  1.50000000E+00  1.20000000E+00  1.20000000E+00  1.50000000E+00  1.20000000E+00
  1.20000000E+00  1.50000000E+00  1.20000000E+00  1.20000000E+00  1.50000000E+00
  1.20000000E+00  1.20000000E+00  1.50000000E+00  1.20000000E+00  1.20000000E+00
  1.50000000E+00  1.20000000E+00  1.20000000E+00  1.50000000E+00  1.20000000E+00
  1.20000000E+00  1.50000000E+00  1.20000000E+00  1.20000000E+00  1.50000000E+00
  1.20000000E+00  1.20000000E+00  1.50000000E+00  1.20000000E+00  1.20000000E+00
  1.50000000E+00  1.20000000E+00  1.20000000E+00  1.50000000E+00  1.20000000E+00
  1.20000000E+00  1.50000000E+00  1.20000000E+00  1.20000000E+00  1.50000000E+00
  1.20000000E+00  1.20000000E+00  1.50000000E+00  1.20000000E+00  1.20000000E+00
  1.50000000E+00  1.20000000E+00  1.20000000E+00  1.50000000E+00  1.20000000E+00
  1.20000000E+00  1.50000000E+00  1.20000000E+00  1.20000000E+00  1.50000000E+00
  1.20000000E+00  1.20000000E+00  1.50000000E+00  1.20000000E+00  1.20000000E+00
  1.50000000E+00  1.20000000E+00  1.20000000E+00  1.50000000E+00  1.20000000E+00
  1.20000000E+00  1.50000000E+00  1.20000000E+00  1.20000000E+00  1.50000000E+00
  1.20000000E+00  1.20000000E+00  1.50000000E+00  1.20000000E+00  1.20000000E+00
  1.50000000E+00  1.20000000E+00  1.20000000E+00  1.50000000E+00  1.20000000E+00
  1.20000000E+00  1.50000000E+00  1.20000000E+00  1.20000000E+00  1.50000000E+00
  1.20000000E+00  1.20000000E+00  1.50000000E+00  1.20000000E+00  1.20000000E+00
  1.50000000E+00  1.20000000E+00  1.20000000E+00  1.50000000E+00  1.20000000E+00
  1.20000000E+00  1.50000000E+00  1.20000000E+00  1.20000000E+00  1.50000000E+00
  1.20000000E+00  1.20000000E+00  1.50000000E+00  1.20000000E+00  1.20000000E+00
  1.50000000E+00  1.20000000E+00  1.20000000E+00  1.50000000E+00  1.20000000E+00
  1.20000000E+00  1.50000000E+00  1.20000000E+00  1.20000000E+00  1.50000000E+00
  1.20000000E+00  1.20000000E+00  1.50000000E+00  1.20000000E+00  1.20000000E+00
  1.50000000E+00  1.20000000E+00  1.20000000E+00  1.50000000E+00  1.20000000E+00
  1.20000000E+00  1.50000000E+00  1.20000000E+00  1.20000000E+00  1.50000000E+00
  1.20000000E+00  1.20000000E+00  1.50000000E+00  1.20000000E+00  1.20000000E+00
  1.50000000E+00  1.20000000E+00  1.20000000E+00  1.50000000E+00  1.20000000E+00
  1.20000000E+00  1.50000000E+00  1.20000000E+00  1.20000000E+00  1.50000000E+00
  1.20000000E+00  1.20000000E+00  1.50000000E+00  1.20000000E+00  1.20000000E+00
  1.50000000E+00  1.20000000E+00  1.20000000E+00  1.50000000E+00  1.20000000E+00
  1.20000000E+00  1.50000000E+00  1.20000000E+00  1.20000000E+00  1.50000000E+00
  1.20000000E+00  1.20000000E+00  1.50000000E+00  1.20000000E+00  1.20000000E+00
  1.50000000E+00  1.20000000E+00  1.20000000E+00  1.50000000E+00  1.20000000E+00
  1.20000000E+00  1.50000000E+00  1.20000000E+00  1.20000000E+00  1.50000000E+00
  1.20000000E+00  1.20000000E+00  1.50000000E+00  1.20000000E+00  1.20000000E+00
  1.50000000E+00  1.20000000E+00  1.20000000E+00  1.50000000E+00  1.20000000E+00
  1.20000000E+00  1.50000000E+00  1.20000000E+00  1.20000000E+00  1.50000000E+00
  1.20000000E+00  1.20000000E+00  1.50000000E+00  1.20000000E+00  1.20000000E+00
  1.50000000E+00  1.20000000E+00  1.20000000E+00  1.50000000E+00  1.20000000E+00
  1.20000000E+00  1.50000000E+00  1.20000000E+00  1.20000000E+00  1.50000000E+00
  1.20000000E+00  1.20000000E+00  1.50000000E+00  1.20000000E+00  1.20000000E+00
  1.50000000E+00  1.20000000E+00  1.20000000E+00  1.50000000E+00  1.20000000E+00
  1.20000000E+00  1.50000000E+00  1.20000000E+00  1.20000000E+00  1.50000000E+00
  1.20000000E+00  1.20000000E+00  1.50000000E+00  1.20000000E+00  1.20000000E+00
  1.50000000E+00  1.20000000E+00  1.20000000E+00  1.50000000E+00  1.20000000E+00
  1.20000000E+00  1.50000000E+00  1.20000000E+00  1.20000000E+00  1.50000000E+00
  1.20000000E+00  1.20000000E+00  1.50000000E+00  1.20000000E+00  1.20000000E+00
  1.50000000E+00  1.20000000E+00  1.20000000E+00  1.50000000E+00  1.20000000E+00
  1.20000000E+00  1.50000000E+00  1.20000000E+00  1.20000000E+00  1.50000000E+00
  1.20000000E+00  1.20000000E+00  1.50000000E+00  1.20000000E+00  1.20000000E+00
  1.50000000E+00  1.20000000E+00  1.20000000E+00  1.50000000E+00  1.20000000E+00
  1.20000000E+00  1.50000000E+00  1.20000000E+00  1.20000000E+00  1.50000000E+00
  1.20000000E+00  1.20000000E+00  1.50000000E+00  1.20000000E+00  1.20000000E+00
  1.50000000E+00  1.20000000E+00  1.20000000E+00  1.50000000E+00  1.20000000E+00
  1.20000000E+00  1.50000000E+00  1.20000000E+00  1.20000000E+00  1.50000000E+00
  1.20000000E+00  1.20000000E+00  1.50000000E+00  1.20000000E+00  1.20000000E+00
  1.50000000E+00  1.20000000E+00  1.20000000E+00  1.50000000E+00  1.20000000E+00
  1.20000000E+00  1.50000000E+00  1.20000000E+00  1.20000000E+00  1.50000000E+00
  1.20000000E+00  1.20000000E+00  1.50000000E+00  1.20000000E+00  1.20000000E+00
  1.50000000E+00  1.20000000E+00  1.20000000E+00  1.50000000E+00  1.20000000E+00
  1.20000000E+00  1.50000000E+00  1.20000000E+00  1.20000000E+00  1.50000000E+00
  1.20000000E+00  1.20000000E+00  1.50000000E+00  1.20000000E+00  1.20000000E+00
  1.50000000E+00  1.20000000E+00  1.20000000E+00  1.50000000E+00  1.20000000E+00
  1.20000000E+00  1.50000000E+00  1.20000000E+00  1.20000000E+00  1.50000000E+00
  1.20000000E+00  1.20000000E+00  1.50000000E+00  1.20000000E+00  1.20000000E+00
  1.50000000E+00  1.20000000E+00  1.20000000E+00  1.50000000E+00  1.20000000E+00
  1.20000000E+00  1.50000000E+00  1.20000000E+00  1.20000000E+00  1.50000000E+00
  1.20000000E+00  1.20000000E+00  1.50000000E+00  1.20000000E+00  1.20000000E+00
  1.50000000E+00  1.20000000E+00  1.20000000E+00  1.50000000E+00  1.20000000E+00
  1.20000000E+00  1.50000000E+00  1.20000000E+00  1.20000000E+00  1.50000000E+00
  1.20000000E+00  1.20000000E+00  1.50000000E+00  1.20000000E+00  1.20000000E+00
  1.50000000E+00  1.20000000E+00  1.20000000E+00  1.50000000E+00  1.20000000E+00
  1.20000000E+00  1.50000000E+00  1.20000000E+00  1.20000000E+00  1.50000000E+00
  1.20000000E+00  1.20000000E+00  1.50000000E+00  1.20000000E+00  1.20000000E+00
  1.50000000E+00  1.20000000E+00  1.20000000E+00  1.50000000E+00  1.20000000E+00
  1.20000000E+00  1.50000000E+00  1.20000000E+00  1.20000000E+00  1.50000000E+00
  1.20000000E+00  1.20000000E+00  1.50000000E+00  1.20000000E+00  1.20000000E+00
  1.50000000E+00  1.20000000E+00  1.20000000E+00  1.50000000E+00  1.20000000E+00
  1.20000000E+00  1.50000000E+00  1.20000000E+00  1.20000000E+00  1.50000000E+00
  1.20000000E+00  1.20000000E+00  1.50000000E+00  1.20000000E+00  1.20000000E+00
  1.50000000E+00  1.20000000E+00  1.20000000E+00  1.50000000E+00  1.20000000E+00
  1.20000000E+00  1.50000000E+00  1.20000000E+00  1.20000000E+00  1.50000000E+00
  1.20000000E+00  1.20000000E+00  1.50000000E+00  1.20000000E+00  1.20000000E+00
  1.50000000E+00  1.20000000E+00  1.20000000E+00  1.50000000E+00  1.20000000E+00
  1.20000000E+00  1.50000000E+00  1.20000000E+00  1.20000000E+00  1.50000000E+00
  1.20000000E+00  1.20000000E+00  1.50000000E+00  1.20000000E+00  1.20000000E+00
  1.50000000E+00  1.20000000E+00  1.20000000E+00  1.50000000E+00  1.20000000E+00
  1.20000000E+00  1.50000000E+00  1.20000000E+00  1.20000000E+00  1.50000000E+00
  1.20000000E+00  1.20000000E+00  1.50000000E+00  1.20000000E+00  1.20000000E+00
  1.50000000E+00  1.20000000E+00  1.20000000E+00  1.50000000E+00  1.20000000E+00
  1.20000000E+00  1.50000000E+00  1.20000000E+00  1.20000000E+00  1.50000000E+00
  1.20000000E+00  1.20000000E+00  1.50000000E+00  1.20000000E+00  1.20000000E+00
  1.50000000E+00  1.20000000E+00  1.20000000E+00  1.50000000E+00  1.20000000E+00
  1.20000000E+00  1.50000000E+00  1.20000000E+00  1.20000000E+00  1.50000000E+00
  1.20000000E+00  1.20000000E+00  1.50000000E+00  1.20000000E+00  1.20000000E+00
  1.50000000E+00  1.20000000E+00  1.20000000E+00  1.50000000E+00  1.20000000E+00
  1.20000000E+00  1.50000000E+00  1.20000000E+00  1.20000000E+00  1.50000000E+00
  1.20000000E+00  1.20000000E+00  1.50000000E+00  1.20000000E+00  1.20000000E+00
  1.50000000E+00  1.20000000E+00  1.20000000E+00  1.50000000E+00  1.20000000E+00
  1.20000000E+00  1.50000000E+00  1.20000000E+00  1.20000000E+00  1.50000000E+00
  1.20000000E+00  1.20000000E+00  1.50000000E+00  1.20000000E+00  1.20000000E+00
  1.50000000E+00  1.20000000E+00  1.20000000E+00  1.50000000E+00  1.20000000E+00
  1.20000000E+00  1.50000000E+00  1.20000000E+00  1.20000000E+00  1.50000000E+00
  1.20000000E+00  1.20000000E+00  1.50000000E+00  1.20000000E+00  1.20000000E+00
  1.50000000E+00  1.20000000E+00  1.20000000E+00  1.50000000E+00  1.20000000E+00
  1.20000000E+00  1.50000000E+00  1.20000000E+00  1.20000000E+00  1.50000000E+00
  1.20000000E+00  1.20000000E+00  1.50000000E+00  1.20000000E+00  1.20000000E+00
  1.50000000E+00  1.20000000E+00  1.20000000E+00  1.50000000E+00  1.20000000E+00
  1.20000000E+00  1.50000000E+00  1.20000000E+00  1.20000000E+00  1.50000000E+00
  1.20000000E+00  1.20000000E+00  1.50000000E+00  1.20000000E+00  1.20000000E+00
  1.50000000E+00  1.20000000E+00  1.20000000E+00  1.50000000E+00  1.20000000E+00
  1.20000000E+00  1.50000000E+00  1.20000000E+00  1.20000000E+00  1.50000000E+00
  1.20000000E+00  1.20000000E+00  1.50000000E+00  1.20000000E+00  1.20000000E+00
  1.50000000E+00  1.20000000E+00  1.20000000E+00  1.50000000E+00  1.20000000E+00
  1.20000000E+00  1.50000000E+00  1.20000000E+00  1.20000000E+00  1.50000000E+00
  1.20000000E+00  1.20000000E+00  1.50000000E+00  1.20000000E+00  1.20000000E+00
  1.50000000E+00  1.20000000E+00  1.20000000E+00  1.50000000E+00  1.20000000E+00
  1.20000000E+00  1.50000000E+00  1.20000000E+00  1.20000000E+00  1.50000000E+00
  1.20000000E+00  1.20000000E+00  1.50000000E+00  1.20000000E+00  1.20000000E+00
  1.50000000E+00  1.20000000E+00  1.20000000E+00  1.50000000E+00  1.20000000E+00
  1.20000000E+00  1.50000000E+00  1.20000000E+00  1.20000000E+00  1.50000000E+00
  1.20000000E+00  1.20000000E+00  1.50000000E+00  1.20000000E+00  1.20000000E+00
  1.50000000E+00  1.20000000E+00  1.20000000E+00  1.50000000E+00  1.20000000E+00
  1.20000000E+00  1.50000000E+00  1.20000000E+00  1.20000000E+00  1.50000000E+00
  1.20000000E+00  1.20000000E+00  1.50000000E+00  1.20000000E+00  1.20000000E+00
  1.50000000E+00  1.20000000E+00  1.20000000E+00  1.50000000E+00  1.20000000E+00
  1.20000000E+00  1.50000000E+00  1.20000000E+00  1.20000000E+00  1.50000000E+00
  1.20000000E+00  1.20000000E+00  1.50000000E+00  1.20000000E+00  1.20000000E+00
  1.50000000E+00  1.20000000E+00  1.20000000E+00  1.50000000E+00  1.20000000E+00
  1.20000000E+00  1.50000000E+00  1.20000000E+00  1.20000000E+00  1.50000000E+00
  1.20000000E+00  1.20000000E+00  1.50000000E+00  1.20000000E+00  1.20000000E+00
  1.50000000E+00  1.20000000E+00  1.20000000E+00  1.50000000E+00  1.20000000E+00
  1.20000000E+00  1.50000000E+00  1.20000000E+00  1.20000000E+00  1.50000000E+00
  1.20000000E+00  1.20000000E+00  1.50000000E+00  1.20000000E+00  1.20000000E+00
  1.50000000E+00  1.20000000E+00  1.20000000E+00  1.50000000E+00  1.20000000E+00
  1.20000000E+00  1.50000000E+00  1.20000000E+00  1.20000000E+00  1.50000000E+00
  1.20000000E+00  1.20000000E+00  1.50000000E+00  1.20000000E+00  1.20000000E+00
  1.50000000E+00  1.20000000E+00  1.20000000E+00  1.50000000E+00  1.20000000E+00
  1.20000000E+00  1.50000000E+00  1.20000000E+00  1.20000000E+00  1.50000000E+00
  1.20000000E+00  1.20000000E+00  1.50000000E+00  1.20000000E+00  1.20000000E+00
  1.50000000E+00  1.20000000E+00  1.20000000E+00  1.50000000E+00  1.20000000E+00
  1.20000000E+00  1.50000000E+00  1.20000000E+00  1.20000000E+00  1.50000000E+00
  1.20000000E+00  1.20000000E+00  1.50000000E+00  1.20000000E+00  1.20000000E+00
  1.50000000E+00  1.20000000E+00  1.20000000E+00  1.50000000E+00  1.20000000E+00
  1.20000000E+00  1.50000000E+00  1.20000000E+00  1.20000000E+00  1.50000000E+00
  1.20000000E+00  1.20000000E+00  1.50000000E+00  1.20000000E+00  1.20000000E+00
  1.50000000E+00  1.20000000E+00  1.20000000E+00  1.50000000E+00  1.20000000E+00
  1.20000000E+00  1.50000000E+00  1.20000000E+00  1.20000000E+00  1.50000000E+00
  1.20000000E+00  1.20000000E+00  1.50000000E+00  1.20000000E+00  1.20000000E+00
  1.50000000E+00  1.20000000E+00  1.20000000E+00  1.50000000E+00  1.20000000E+00
  1.20000000E+00  1.50000000E+00  1.20000000E+00  1.20000000E+00  1.50000000E+00
  1.20000000E+00  1.20000000E+00  1.50000000E+00  1.20000000E+00  1.20000000E+00
  1.50000000E+00  1.20000000E+00  1.20000000E+00  1.50000000E+00  1.20000000E+00
  1.20000000E+00  1.50000000E+00  1.20000000E+00  1.20000000E+00  1.50000000E+00
  1.20000000E+00  1.20000000E+00  1.50000000E+00  1.20000000E+00  1.20000000E+00
  1.50000000E+00  1.20000000E+00  1.20000000E+00  1.50000000E+00  1.20000000E+00
  1.20000000E+00  1.50000000E+00  1.20000000E+00  1.20000000E+00  1.50000000E+00
  1.20000000E+00  1.20000000E+00  1.50000000E+00  1.20000000E+00  1.20000000E+00
  1.50000000E+00  1.20000000E+00  1.20000000E+00  1.50000000E+00  1.20000000E+00
  1.20000000E+00  1.50000000E+00  1.20000000E+00  1.20000000E+00  1.50000000E+00
  1.20000000E+00  1.20000000E+00  1.50000000E+00  1.20000000E+00  1.20000000E+00
  1.50000000E+00  1.20000000E+00  1.20000000E+00  1.50000000E+00  1.20000000E+00
  1.20000000E+00  1.50000000E+00  1.20000000E+00  1.20000000E+00  1.50000000E+00
  1.20000000E+00  1.20000000E+00  1.50000000E+00  1.20000000E+00  1.20000000E+00
  1.50000000E+00  1.20000000E+00  1.20000000E+00  1.50000000E+00  1.20000000E+00
  1.20000000E+00  1.50000000E+00  1.20000000E+00  1.20000000E+00  1.50000000E+00
  1.20000000E+00  1.20000000E+00  1.50000000E+00  1.20000000E+00  1.20000000E+00
  1.50000000E+00  1.20000000E+00  1.20000000E+00  1.50000000E+00  1.20000000E+00
  1.20000000E+00  1.50000000E+00  1.20000000E+00  1.20000000E+00  1.50000000E+00
  1.20000000E+00  1.20000000E+00  1.50000000E+00  1.20000000E+00  1.20000000E+00
  1.50000000E+00  1.20000000E+00  1.20000000E+00  1.50000000E+00  1.20000000E+00
  1.20000000E+00  1.50000000E+00  1.20000000E+00  1.20000000E+00  1.50000000E+00
  1.20000000E+00  1.20000000E+00  1.50000000E+00  1.20000000E+00  1.20000000E+00
  1.50000000E+00  1.20000000E+00  1.20000000E+00  1.50000000E+00  1.20000000E+00
  1.20000000E+00  1.50000000E+00  1.20000000E+00  1.20000000E+00  1.50000000E+00
  1.20000000E+00  1.20000000E+00  1.50000000E+00  1.20000000E+00  1.20000000E+00
  1.50000000E+00  1.20000000E+00  1.20000000E+00  1.50000000E+00  1.20000000E+00
  1.20000000E+00  1.50000000E+00  1.20000000E+00  1.20000000E+00  1.50000000E+00
  1.20000000E+00  1.20000000E+00  1.50000000E+00  1.20000000E+00  1.20000000E+00
  1.50000000E+00  1.20000000E+00  1.20000000E+00  1.50000000E+00  1.20000000E+00
  1.20000000E+00  1.50000000E+00  1.20000000E+00  1.20000000E+00  1.50000000E+00
  1.20000000E+00  1.20000000E+00  1.50000000E+00  1.20000000E+00  1.20000000E+00
  1.50000000E+00  1.20000000E+00  1.20000000E+00  1.50000000E+00  1.20000000E+00
  1.20000000E+00  1.50000000E+00  1.20000000E+00  1.20000000E+00  1.50000000E+00
  1.20000000E+00  1.20000000E+00  1.50000000E+00  1.20000000E+00  1.20000000E+00
  1.50000000E+00  1.20000000E+00  1.20000000E+00  1.50000000E+00  1.20000000E+00
  1.20000000E+00  1.50000000E+00  1.20000000E+00  1.20000000E+00  1.50000000E+00
  1.20000000E+00  1.20000000E+00  1.50000000E+00  1.20000000E+00  1.20000000E+00
  1.50000000E+00  1.20000000E+00  1.20000000E+00  1.50000000E+00  1.20000000E+00
  1.20000000E+00  1.50000000E+00  1.20000000E+00  1.20000000E+00  1.50000000E+00
  1.20000000E+00  1.20000000E+00  1.50000000E+00  1.20000000E+00  1.20000000E+00
  1.50000000E+00  1.20000000E+00  1.20000000E+00  1.50000000E+00  1.20000000E+00
  1.20000000E+00  1.50000000E+00  1.20000000E+00  1.20000000E+00  1.50000000E+00
  1.20000000E+00  1.20000000E+00  1.50000000E+00  1.20000000E+00  1.20000000E+00
  1.50000000E+00  1.20000000E+00  1.20000000E+00  1.50000000E+00  1.20000000E+00
  1.20000000E+00  1.50000000E+00  1.20000000E+00  1.20000000E+00  1.50000000E+00
  1.20000000E+00  1.20000000E+00  1.50000000E+00  1.20000000E+00  1.20000000E+00
  1.50000000E+00  1.20000000E+00  1.20000000E+00  1.50000000E+00  1.20000000E+00
  1.20000000E+00  1.50000000E+00  1.20000000E+00  1.20000000E+00  1.50000000E+00
  1.20000000E+00  1.20000000E+00  1.50000000E+00  1.20000000E+00  1.20000000E+00
  1.50000000E+00  1.20000000E+00  1.20000000E+00  1.50000000E+00  1.20000000E+00
  1.20000000E+00  1.50000000E+00  1.20000000E+00  1.20000000E+00  1.50000000E+00
  1.20000000E+00  1.20000000E+00  1.50000000E+00  1.20000000E+00  1.20000000E+00
  1.50000000E+00  1.20000000E+00  1.20000000E+00  1.50000000E+00  1.20000000E+00
  1.20000000E+00  1.50000000E+00  1.20000000E+00  1.20000000E+00  1.50000000E+00
  1.20000000E+00  1.20000000E+00  1.50000000E+00  1.20000000E+00  1.20000000E+00
  1.50000000E+00  1.20000000E+00  1.20000000E+00  1.50000000E+00  1.20000000E+00
  1.20000000E+00  1.50000000E+00  1.20000000E+00  1.20000000E+00  1.50000000E+00
  1.20000000E+00  1.20000000E+00  1.50000000E+00  1.20000000E+00  1.20000000E+00
  1.50000000E+00  1.20000000E+00  1.20000000E+00  1.50000000E+00  1.20000000E+00
  1.20000000E+00  1.50000000E+00  1.20000000E+00  1.20000000E+00  1.50000000E+00
  1.20000000E+00  1.20000000E+00  1.50000000E+00  1.20000000E+00  1.20000000E+00
  1.50000000E+00  1.20000000E+00  1.20000000E+00  1.50000000E+00  1.20000000E+00
  1.20000000E+00  1.50000000E+00  1.20000000E+00  1.20000000E+00  1.50000000E+00
  1.20000000E+00  1.20000000E+00  1.50000000E+00  1.20000000E+00  1.20000000E+00
  1.50000000E+00  1.20000000E+00  1.20000000E+00  1.50000000E+00  1.20000000E+00
  1.20000000E+00  1.50000000E+00  1.20000000E+00  1.20000000E+00  1.50000000E+00
  1.20000000E+00  1.20000000E+00  1.50000000E+00  1.20000000E+00  1.20000000E+00
  1.50000000E+00  1.20000000E+00  1.20000000E+00  1.50000000E+00  1.20000000E+00
  1.20000000E+00  1.50000000E+00  1.20000000E+00  1.20000000E+00  1.50000000E+00
  1.20000000E+00  1.20000000E+00  1.50000000E+00  1.20000000E+00  1.20000000E+00
  1.50000000E+00  1.20000000E+00  1.20000000E+00  1.50000000E+00  1.20000000E+00
  1.20000000E+00  1.50000000E+00  1.20000000E+00  1.20000000E+00  1.50000000E+00
  1.20000000E+00  1.20000000E+00  1.50000000E+00  1.20000000E+00  1.20000000E+00
  1.50000000E+00  1.20000000E+00  1.20000000E+00  1.50000000E+00  1.20000000E+00
  1.20000000E+00  1.50000000E+00  1.20000000E+00  1.20000000E+00  1.50000000E+00
  1.20000000E+00  1.20000000E+00  1.50000000E+00  1.20000000E+00  1.20000000E+00
  1.50000000E+00  1.20000000E+00  1.20000000E+00  1.50000000E+00  1.20000000E+00
  1.20000000E+00  1.50000000E+00  1.20000000E+00  1.20000000E+00  1.50000000E+00
  1.20000000E+00  1.20000000E+00  1.50000000E+00  1.20000000E+00  1.20000000E+00
  1.50000000E+00  1.20000000E+00  1.20000000E+00  1.50000000E+00  1.20000000E+00
  1.20000000E+00  1.50000000E+00  1.20000000E+00  1.20000000E+00  1.50000000E+00
  1.20000000E+00  1.20000000E+00  1.50000000E+00  1.20000000E+00  1.20000000E+00
  1.50000000E+00  1.20000000E+00  1.20000000E+00  1.50000000E+00  1.20000000E+00
  1.20000000E+00  1.50000000E+00  1.20000000E+00  1.20000000E+00  1.50000000E+00
  1.20000000E+00  1.20000000E+00  1.50000000E+00  1.20000000E+00  1.20000000E+00
  1.50000000E+00  1.20000000E+00  1.20000000E+00  1.50000000E+00  1.20000000E+00
  1.20000000E+00  1.50000000E+00  1.20000000E+00  1.20000000E+00  1.50000000E+00
  1.20000000E+00  1.20000000E+00  1.50000000E+00  1.20000000E+00  1.20000000E+00
  1.50000000E+00  1.20000000E+00  1.20000000E+00  1.50000000E+00  1.20000000E+00
  1.20000000E+00  1.50000000E+00  1.20000000E+00  1.20000000E+00  1.50000000E+00
  1.20000000E+00  1.20000000E+00  1.50000000E+00  1.20000000E+00  1.20000000E+00
  1.50000000E+00  1.20000000E+00  1.20000000E+00  1.50000000E+00  1.20000000E+00
  1.20000000E+00  1.50000000E+00  1.20000000E+00  1.20000000E+00  1.50000000E+00
  1.20000000E+00  1.20000000E+00  1.50000000E+00  1.20000000E+00  1.20000000E+00
  1.50000000E+00  1.20000000E+00  1.20000000E+00  1.50000000E+00  1.20000000E+00
  1.20000000E+00  1.50000000E+00  1.20000000E+00  1.20000000E+00  1.50000000E+00
  1.20000000E+00  1.20000000E+00  1.50000000E+00  1.20000000E+00  1.20000000E+00
  1.50000000E+00  1.20000000E+00  1.20000000E+00  1.50000000E+00  1.20000000E+00
  1.20000000E+00  1.50000000E+00  1.20000000E+00  1.20000000E+00  1.50000000E+00
  1.20000000E+00  1.20000000E+00  1.50000000E+00  1.20000000E+00  1.20000000E+00
  1.50000000E+00  1.20000000E+00  1.20000000E+00  1.50000000E+00  1.20000000E+00
  1.20000000E+00  1.50000000E+00  1.20000000E+00  1.20000000E+00  1.50000000E+00
  1.20000000E+00  1.20000000E+00  1.50000000E+00  1.20000000E+00  1.20000000E+00
  1.50000000E+00  1.20000000E+00  1.20000000E+00  1.50000000E+00  1.20000000E+00
  1.20000000E+00  1.50000000E+00  1.20000000E+00  1.20000000E+00  1.50000000E+00
  1.20000000E+00  1.20000000E+00  1.50000000E+00  1.20000000E+00  1.20000000E+00
  1.50000000E+00  1.20000000E+00  1.20000000E+00  1.50000000E+00  1.20000000E+00
  1.20000000E+00  1.50000000E+00  1.20000000E+00  1.20000000E+00  1.50000000E+00
  1.20000000E+00  1.20000000E+00  1.50000000E+00  1.20000000E+00  1.20000000E+00
  1.50000000E+00  1.20000000E+00  1.20000000E+00  1.50000000E+00  1.20000000E+00
  1.20000000E+00  1.50000000E+00  1.20000000E+00  1.20000000E+00  1.50000000E+00
  1.20000000E+00  1.20000000E+00  1.50000000E+00  1.20000000E+00  1.20000000E+00
  1.50000000E+00  1.20000000E+00  1.20000000E+00  1.50000000E+00  1.20000000E+00
  1.20000000E+00  1.50000000E+00  1.20000000E+00  1.20000000E+00  1.50000000E+00
  1.20000000E+00  1.20000000E+00  1.50000000E+00  1.20000000E+00  1.20000000E+00
  1.50000000E+00  1.20000000E+00  1.20000000E+00  1.50000000E+00  1.20000000E+00
  1.20000000E+00  1.50000000E+00  1.20000000E+00  1.20000000E+00  1.50000000E+00
  1.20000000E+00  1.20000000E+00  1.50000000E+00  1.20000000E+00  1.20000000E+00
  1.50000000E+00  1.20000000E+00  1.20000000E+00  1.50000000E+00  1.20000000E+00
  1.20000000E+00  1.50000000E+00  1.20000000E+00  1.20000000E+00  1.50000000E+00
  1.20000000E+00  1.20000000E+00  1.50000000E+00  1.20000000E+00  1.20000000E+00
  1.50000000E+00  1.20000000E+00  1.20000000E+00  1.50000000E+00  1.20000000E+00
  1.20000000E+00  1.50000000E+00  1.20000000E+00  1.20000000E+00  1.50000000E+00
  1.20000000E+00  1.20000000E+00  1.50000000E+00  1.20000000E+00  1.20000000E+00
  1.50000000E+00  1.20000000E+00  1.20000000E+00  1.50000000E+00  1.20000000E+00
  1.20000000E+00  1.50000000E+00  1.20000000E+00  1.20000000E+00  1.50000000E+00
  1.20000000E+00  1.20000000E+00  1.50000000E+00  1.20000000E+00  1.20000000E+00
  1.50000000E+00  1.20000000E+00  1.20000000E+00  1.50000000E+00  1.20000000E+00
  1.20000000E+00  1.50000000E+00  1.20000000E+00  1.20000000E+00  1.50000000E+00
  1.20000000E+00  1.20000000E+00  1.50000000E+00  1.20000000E+00  1.20000000E+00
  1.50000000E+00  1.20000000E+00  1.20000000E+00  1.50000000E+00  1.20000000E+00
  1.20000000E+00  1.50000000E+00  1.20000000E+00  1.20000000E+00  1.50000000E+00
  1.20000000E+00  1.20000000E+00  1.50000000E+00  1.20000000E+00  1.20000000E+00
  1.50000000E+00  1.20000000E+00  1.20000000E+00  1.50000000E+00  1.20000000E+00
  1.20000000E+00  1.50000000E+00  1.20000000E+00  1.20000000E+00  1.50000000E+00
  1.20000000E+00  1.20000000E+00  1.50000000E+00  1.20000000E+00  1.20000000E+00
  1.50000000E+00  1.20000000E+00  1.20000000E+00  1.50000000E+00  1.20000000E+00
  1.20000000E+00  1.50000000E+00  1.20000000E+00  1.20000000E+00  1.50000000E+00
  1.20000000E+00  1.20000000E+00  1.50000000E+00  1.20000000E+00  1.20000000E+00
  1.50000000E+00  1.20000000E+00  1.20000000E+00  1.50000000E+00  1.20000000E+00
  1.20000000E+00  1.50000000E+00  1.20000000E+00  1.20000000E+00  1.50000000E+00
  1.20000000E+00  1.20000000E+00  1.50000000E+00  1.20000000E+00  1.20000000E+00
  1.50000000E+00  1.20000000E+00  1.20000000E+00  1.50000000E+00  1.20000000E+00
  1.20000000E+00  1.50000000E+00  1.20000000E+00  1.20000000E+00  1.50000000E+00
  1.20000000E+00  1.20000000E+00  1.50000000E+00  1.20000000E+00  1.20000000E+00
  1.50000000E+00  1.20000000E+00  1.20000000E+00  1.50000000E+00  1.20000000E+00
  1.20000000E+00  1.50000000E+00  1.20000000E+00  1.20000000E+00  1.50000000E+00
  1.20000000E+00  1.20000000E+00  1.50000000E+00  1.20000000E+00  1.20000000E+00
  1.50000000E+00  1.20000000E+00  1.20000000E+00  1.50000000E+00  1.20000000E+00
  1.20000000E+00  1.50000000E+00  1.20000000E+00  1.20000000E+00  1.50000000E+00
  1.20000000E+00  1.20000000E+00  1.50000000E+00  1.20000000E+00  1.20000000E+00
  1.50000000E+00  1.20000000E+00  1.20000000E+00  1.50000000E+00  1.20000000E+00
  1.20000000E+00  1.50000000E+00  1.20000000E+00  1.20000000E+00  1.50000000E+00
  1.20000000E+00  1.20000000E+00  1.50000000E+00  1.20000000E+00  1.20000000E+00
  1.50000000E+00  1.20000000E+00  1.20000000E+00  1.50000000E+00  1.20000000E+00
  1.20000000E+00  1.50000000E+00  1.20000000E+00  1.20000000E+00  1.50000000E+00
  1.20000000E+00  1.20000000E+00  1.50000000E+00  1.20000000E+00  1.20000000E+00
  1.50000000E+00  1.20000000E+00  1.20000000E+00  1.50000000E+00  1.20000000E+00
  1.20000000E+00  1.50000000E+00  1.20000000E+00  1.20000000E+00  1.50000000E+00
  1.20000000E+00  1.20000000E+00  1.50000000E+00  1.20000000E+00  1.20000000E+00
  1.50000000E+00  1.20000000E+00  1.20000000E+00  1.50000000E+00  1.20000000E+00
  1.20000000E+00  1.50000000E+00  1.20000000E+00  1.20000000E+00  1.50000000E+00
  1.20000000E+00  1.20000000E+00  1.50000000E+00  1.20000000E+00  1.20000000E+00
  1.50000000E+00  1.20000000E+00  1.20000000E+00  1.50000000E+00  1.20000000E+00
  1.20000000E+00  1.50000000E+00  1.20000000E+00  1.20000000E+00  1.50000000E+00
  1.20000000E+00  1.20000000E+00  1.50000000E+00  1.20000000E+00  1.20000000E+00
  1.50000000E+00  1.20000000E+00  1.20000000E+00  1.50000000E+00  1.20000000E+00
  1.20000000E+00  1.50000000E+00  1.20000000E+00  1.20000000E+00  1.50000000E+00
  1.20000000E+00  1.20000000E+00  1.50000000E+00  1.20000000E+00  1.20000000E+00
  1.50000000E+00  1.20000000E+00  1.20000000E+00  1.50000000E+00  1.20000000E+00
  1.20000000E+00  1.50000000E+00  1.20000000E+00  1.20000000E+00  1.50000000E+00
  1.20000000E+00  1.20000000E+00  1.50000000E+00  1.20000000E+00  1.20000000E+00
  1.50000000E+00  1.20000000E+00  1.20000000E+00  1.50000000E+00  1.20000000E+00
  1.20000000E+00  1.50000000E+00  1.20000000E+00  1.20000000E+00  1.50000000E+00
  1.20000000E+00  1.20000000E+00  1.50000000E+00  1.20000000E+00  1.20000000E+00
  1.50000000E+00  1.20000000E+00  1.20000000E+00  1.50000000E+00  1.20000000E+00
  1.20000000E+00  1.50000000E+00  1.20000000E+00  1.20000000E+00  1.50000000E+00
  1.20000000E+00  1.20000000E+00  1.50000000E+00  1.20000000E+00  1.20000000E+00
  1.50000000E+00  1.20000000E+00  1.20000000E+00  1.50000000E+00  1.20000000E+00
  1.20000000E+00  1.50000000E+00  1.20000000E+00  1.20000000E+00  1.50000000E+00
  1.20000000E+00  1.20000000E+00  1.50000000E+00  1.20000000E+00  1.20000000E+00
  1.50000000E+00  1.20000000E+00  1.20000000E+00  1.50000000E+00  1.20000000E+00
  1.20000000E+00  1.50000000E+00  1.20000000E+00  1.20000000E+00  1.50000000E+00
  1.20000000E+00  1.20000000E+00  1.50000000E+00  1.20000000E+00  1.20000000E+00
  1.50000000E+00  1.20000000E+00  1.20000000E+00  1.50000000E+00  1.20000000E+00
  1.20000000E+00  1.50000000E+00  1.20000000E+00  1.20000000E+00  1.50000000E+00
  1.20000000E+00  1.20000000E+00  1.50000000E+00  1.20000000E+00  1.20000000E+00
  1.50000000E+00  1.20000000E+00  1.20000000E+00  1.50000000E+00  1.20000000E+00
  1.20000000E+00  1.50000000E+00  1.20000000E+00  1.20000000E+00  1.50000000E+00
  1.20000000E+00  1.20000000E+00  1.50000000E+00  1.20000000E+00  1.20000000E+00
  1.50000000E+00  1.20000000E+00  1.20000000E+00  1.50000000E+00  1.20000000E+00
  1.20000000E+00  1.50000000E+00  1.20000000E+00  1.20000000E+00  1.50000000E+00
  1.20000000E+00  1.20000000E+00  1.50000000E+00  1.20000000E+00  1.20000000E+00
  1.50000000E+00  1.20000000E+00  1.20000000E+00  1.50000000E+00  1.20000000E+00
  1.20000000E+00  1.50000000E+00  1.20000000E+00  1.20000000E+00  1.50000000E+00
  1.20000000E+00  1.20000000E+00  1.50000000E+00  1.20000000E+00  1.20000000E+00
  1.50000000E+00  1.20000000E+00  1.20000000E+00  1.50000000E+00  1.20000000E+00
  1.20000000E+00  1.50000000E+00  1.20000000E+00  1.20000000E+00  1.50000000E+00
  1.20000000E+00  1.20000000E+00  1.50000000E+00  1.20000000E+00  1.20000000E+00
  1.50000000E+00  1.20000000E+00  1.20000000E+00  1.50000000E+00  1.20000000E+00
  1.20000000E+00  1.50000000E+00  1.20000000E+00  1.20000000E+00  1.50000000E+00
  1.20000000E+00  1.20000000E+00  1.50000000E+00  1.20000000E+00  1.20000000E+00
  1.50000000E+00  1.20000000E+00  1.20000000E+00  1.50000000E+00  1.20000000E+00
  1.20000000E+00  1.50000000E+00  1.20000000E+00  1.20000000E+00  1.50000000E+00
  1.20000000E+00  1.20000000E+00  1.50000000E+00  1.20000000E+00  1.20000000E+00
  1.50000000E+00  1.20000000E+00  1.20000000E+00  1.50000000E+00  1.20000000E+00
  1.20000000E+00  1.50000000E+00  1.20000000E+00  1.20000000E+00  1.50000000E+00
  1.20000000E+00  1.20000000E+00  1.50000000E+00  1.20000000E+00  1.20000000E+00
  1.50000000E+00  1.20000000E+00  1.20000000E+00  1.50000000E+00  1.20000000E+00
  1.20000000E+00  1.50000000E+00  1.20000000E+00  1.20000000E+00  1.50000000E+00
  1.20000000E+00  1.20000000E+00  1.50000000E+00  1.20000000E+00  1.20000000E+00
  1.50000000E+00  1.20000000E+00  1.20000000E+00  1.50000000E+00  1.20000000E+00
  1.20000000E+00  1.50000000E+00  1.20000000E+00  1.20000000E+00  1.50000000E+00
  1.20000000E+00  1.20000000E+00  1.50000000E+00  1.20000000E+00  1.20000000E+00
  1.50000000E+00  1.20000000E+00  1.20000000E+00  1.50000000E+00  1.20000000E+00
  1.20000000E+00  1.50000000E+00  1.20000000E+00  1.20000000E+00  1.50000000E+00
  1.20000000E+00  1.20000000E+00  1.50000000E+00  1.20000000E+00  1.20000000E+00
  1.50000000E+00  1.20000000E+00  1.20000000E+00  1.50000000E+00  1.20000000E+00
  1.20000000E+00  1.50000000E+00  1.20000000E+00  1.20000000E+00  1.50000000E+00
  1.20000000E+00  1.20000000E+00  1.50000000E+00  1.20000000E+00  1.20000000E+00
  1.50000000E+00  1.20000000E+00  1.20000000E+00  1.50000000E+00  1.20000000E+00
  1.20000000E+00  1.50000000E+00  1.20000000E+00  1.20000000E+00  1.50000000E+00
  1.20000000E+00  1.20000000E+00  1.50000000E+00  1.20000000E+00  1.20000000E+00
  1.50000000E+00  1.20000000E+00  1.20000000E+00  1.50000000E+00  1.20000000E+00
  1.20000000E+00  1.50000000E+00  1.20000000E+00  1.20000000E+00  1.50000000E+00
  1.20000000E+00  1.20000000E+00  1.50000000E+00  1.20000000E+00  1.20000000E+00
  1.50000000E+00  1.20000000E+00  1.20000000E+00  1.50000000E+00  1.20000000E+00
  1.20000000E+00  1.50000000E+00  1.20000000E+00  1.20000000E+00  1.50000000E+00
  1.20000000E+00  1.20000000E+00  1.50000000E+00  1.20000000E+00  1.20000000E+00
  1.50000000E+00  1.20000000E+00  1.20000000E+00  1.50000000E+00  1.20000000E+00
  1.20000000E+00  1.50000000E+00  1.20000000E+00  1.20000000E+00  1.50000000E+00
  1.20000000E+00  1.20000000E+00  1.50000000E+00  1.20000000E+00  1.20000000E+00
  1.50000000E+00  1.20000000E+00  1.20000000E+00  1.50000000E+00  1.20000000E+00
  1.20000000E+00  1.50000000E+00  1.20000000E+00  1.20000000E+00  1.50000000E+00
  1.20000000E+00  1.20000000E+00  1.50000000E+00  1.20000000E+00  1.20000000E+00
  1.50000000E+00  1.20000000E+00  1.20000000E+00  1.50000000E+00  1.20000000E+00
  1.20000000E+00  1.50000000E+00  1.20000000E+00  1.20000000E+00  1.50000000E+00
  1.20000000E+00  1.20000000E+00  1.50000000E+00  1.20000000E+00  1.20000000E+00
  1.50000000E+00  1.20000000E+00  1.20000000E+00  1.50000000E+00  1.20000000E+00
  1.20000000E+00  1.50000000E+00  1.20000000E+00  1.20000000E+00  1.50000000E+00
  1.20000000E+00  1.20000000E+00  1.50000000E+00  1.20000000E+00  1.20000000E+00
  1.50000000E+00  1.20000000E+00  1.20000000E+00  1.50000000E+00  1.20000000E+00
  1.20000000E+00  1.50000000E+00  1.20000000E+00  1.20000000E+00  1.50000000E+00
  1.20000000E+00  1.20000000E+00  1.50000000E+00  1.20000000E+00  1.20000000E+00
  1.50000000E+00  1.20000000E+00  1.20000000E+00  1.50000000E+00  1.20000000E+00
  1.20000000E+00  1.50000000E+00  1.20000000E+00  1.20000000E+00  1.50000000E+00
  1.20000000E+00  1.20000000E+00  1.50000000E+00  1.20000000E+00  1.20000000E+00
  1.50000000E+00  1.20000000E+00  1.20000000E+00  1.50000000E+00  1.20000000E+00
  1.20000000E+00  1.50000000E+00  1.20000000E+00  1.20000000E+00  1.50000000E+00
  1.20000000E+00  1.20000000E+00  1.50000000E+00  1.20000000E+00  1.20000000E+00
  1.50000000E+00  1.20000000E+00  1.20000000E+00  1.50000000E+00  1.20000000E+00
  1.20000000E+00  1.50000000E+00  1.20000000E+00  1.20000000E+00  1.50000000E+00
  1.20000000E+00  1.20000000E+00  1.50000000E+00  1.20000000E+00  1.20000000E+00
  1.50000000E+00  1.20000000E+00  1.20000000E+00  1.50000000E+00  1.20000000E+00
  1.20000000E+00  1.50000000E+00  1.20000000E+00  1.20000000E+00  1.50000000E+00
  1.20000000E+00  1.20000000E+00  1.50000000E+00  1.20000000E+00  1.20000000E+00
  1.50000000E+00  1.20000000E+00  1.20000000E+00  1.50000000E+00  1.20000000E+00
  1.20000000E+00  1.50000000E+00  1.20000000E+00  1.20000000E+00  1.50000000E+00
  1.20000000E+00  1.20000000E+00  1.50000000E+00  1.20000000E+00  1.20000000E+00
  1.50000000E+00  1.20000000E+00  1.20000000E+00  1.50000000E+00  1.20000000E+00
  1.20000000E+00  1.50000000E+00  1.20000000E+00  1.20000000E+00  1.50000000E+00
  1.20000000E+00  1.20000000E+00  1.50000000E+00  1.20000000E+00  1.20000000E+00
  1.50000000E+00  1.20000000E+00  1.20000000E+00  1.50000000E+00  1.20000000E+00
  1.20000000E+00  1.50000000E+00  1.20000000E+00  1.20000000E+00  1.50000000E+00
  1.20000000E+00  1.20000000E+00  1.50000000E+00  1.20000000E+00  1.20000000E+00
  1.50000000E+00  1.20000000E+00  1.20000000E+00  1.50000000E+00  1.20000000E+00
  1.20000000E+00  1.50000000E+00  1.20000000E+00  1.20000000E+00  1.50000000E+00
  1.20000000E+00  1.20000000E+00  1.50000000E+00  1.20000000E+00  1.20000000E+00
  1.50000000E+00  1.20000000E+00  1.20000000E+00  1.50000000E+00  1.20000000E+00
  1.20000000E+00  1.50000000E+00  1.20000000E+00  1.20000000E+00  1.50000000E+00
  1.20000000E+00  1.20000000E+00  1.50000000E+00  1.20000000E+00  1.20000000E+00
  1.50000000E+00  1.20000000E+00  1.20000000E+00  1.50000000E+00  1.20000000E+00
  1.20000000E+00  1.50000000E+00  1.20000000E+00  1.20000000E+00  1.50000000E+00
  1.20000000E+00  1.20000000E+00  1.50000000E+00  1.20000000E+00  1.20000000E+00
  1.50000000E+00  1.20000000E+00  1.20000000E+00  1.50000000E+00  1.20000000E+00
  1.20000000E+00  1.50000000E+00  1.20000000E+00  1.20000000E+00  1.50000000E+00
  1.20000000E+00  1.20000000E+00  1.50000000E+00  1.20000000E+00  1.20000000E+00
  1.50000000E+00  1.20000000E+00  1.20000000E+00  1.50000000E+00  1.20000000E+00
  1.20000000E+00  1.50000000E+00  1.20000000E+00  1.20000000E+00  1.50000000E+00
  1.20000000E+00  1.20000000E+00  1.50000000E+00  1.20000000E+00  1.20000000E+00
  1.50000000E+00  1.20000000E+00  1.20000000E+00  1.50000000E+00  1.20000000E+00
  1.20000000E+00  1.50000000E+00  1.20000000E+00  1.20000000E+00  1.50000000E+00
  1.20000000E+00  1.20000000E+00  1.50000000E+00  1.20000000E+00  1.20000000E+00
  1.50000000E+00  1.20000000E+00  1.20000000E+00  1.50000000E+00  1.20000000E+00
  1.20000000E+00  1.50000000E+00  1.20000000E+00  1.20000000E+00  1.50000000E+00
  1.20000000E+00  1.20000000E+00  1.50000000E+00  1.20000000E+00  1.20000000E+00
  1.50000000E+00  1.20000000E+00  1.20000000E+00  1.50000000E+00  1.20000000E+00
  1.20000000E+00  1.50000000E+00  1.20000000E+00  1.20000000E+00  1.50000000E+00
  1.20000000E+00  1.20000000E+00  1.50000000E+00  1.20000000E+00  1.20000000E+00
  1.50000000E+00  1.20000000E+00  1.20000000E+00  1.50000000E+00  1.20000000E+00
  1.20000000E+00  1.50000000E+00  1.20000000E+00  1.20000000E+00  1.50000000E+00
  1.20000000E+00  1.20000000E+00  1.50000000E+00  1.20000000E+00  1.20000000E+00
  1.50000000E+00  1.20000000E+00  1.20000000E+00  1.50000000E+00  1.20000000E+00
  1.20000000E+00  1.50000000E+00  1.20000000E+00  1.20000000E+00  1.50000000E+00
  1.20000000E+00  1.20000000E+00  1.50000000E+00  1.20000000E+00  1.20000000E+00
  1.50000000E+00  1.20000000E+00  1.20000000E+00  1.50000000E+00  1.20000000E+00
  1.20000000E+00  1.50000000E+00  1.20000000E+00  1.20000000E+00  1.50000000E+00
  1.20000000E+00  1.20000000E+00  1.50000000E+00  1.20000000E+00  1.20000000E+00
  1.50000000E+00  1.20000000E+00  1.20000000E+00  1.50000000E+00  1.20000000E+00
  1.20000000E+00  1.50000000E+00  1.20000000E+00  1.20000000E+00  1.50000000E+00
  1.20000000E+00  1.20000000E+00  1.50000000E+00  1.20000000E+00  1.20000000E+00
  1.50000000E+00  1.20000000E+00  1.20000000E+00  1.50000000E+00  1.20000000E+00
  1.20000000E+00  1.50000000E+00  1.20000000E+00  1.20000000E+00  1.50000000E+00
  1.20000000E+00  1.20000000E+00  1.50000000E+00  1.20000000E+00  1.20000000E+00
  1.50000000E+00  1.20000000E+00  1.20000000E+00  1.50000000E+00  1.20000000E+00
  1.20000000E+00  1.50000000E+00  1.20000000E+00  1.20000000E+00  1.50000000E+00
  1.20000000E+00  1.20000000E+00  1.50000000E+00  1.20000000E+00  1.20000000E+00
  1.50000000E+00  1.20000000E+00  1.20000000E+00  1.50000000E+00  1.20000000E+00
  1.20000000E+00  1.50000000E+00  1.20000000E+00  1.20000000E+00  1.50000000E+00
  1.20000000E+00  1.20000000E+00  1.50000000E+00  1.20000000E+00  1.20000000E+00
  1.50000000E+00  1.20000000E+00  1.20000000E+00  1.50000000E+00  1.20000000E+00
  1.20000000E+00  1.50000000E+00  1.20000000E+00  1.20000000E+00  1.50000000E+00
  1.20000000E+00  1.20000000E+00  1.50000000E+00  1.20000000E+00  1.20000000E+00
  1.50000000E+00  1.20000000E+00  1.20000000E+00  1.50000000E+00  1.20000000E+00
  1.20000000E+00  1.50000000E+00  1.20000000E+00  1.20000000E+00  1.50000000E+00
  1.20000000E+00  1.20000000E+00  1.50000000E+00  1.20000000E+00  1.20000000E+00
  1.50000000E+00  1.20000000E+00  1.20000000E+00  1.50000000E+00  1.20000000E+00
  1.20000000E+00  1.50000000E+00  1.20000000E+00  1.20000000E+00  1.50000000E+00
  1.20000000E+00  1.20000000E+00  1.50000000E+00  1.20000000E+00  1.20000000E+00
  1.50000000E+00  1.20000000E+00  1.20000000E+00  1.50000000E+00  1.20000000E+00
  1.20000000E+00  1.50000000E+00  1.20000000E+00  1.20000000E+00  1.50000000E+00
  1.20000000E+00  1.20000000E+00  1.50000000E+00  1.20000000E+00  1.20000000E+00
  1.50000000E+00  1.20000000E+00  1.20000000E+00  1.50000000E+00  1.20000000E+00
  1.20000000E+00  1.50000000E+00  1.20000000E+00  1.20000000E+00  1.50000000E+00
  1.20000000E+00  1.20000000E+00  1.50000000E+00  1.20000000E+00  1.20000000E+00
  1.50000000E+00  1.20000000E+00  1.20000000E+00  1.50000000E+00  1.20000000E+00
  1.20000000E+00  1.50000000E+00  1.20000000E+00  1.20000000E+00  1.50000000E+00
  1.20000000E+00  1.20000000E+00  1.50000000E+00  1.20000000E+00  1.20000000E+00
  1.50000000E+00  1.20000000E+00  1.20000000E+00  1.50000000E+00  1.20000000E+00
  1.20000000E+00  1.50000000E+00  1.20000000E+00  1.20000000E+00  1.50000000E+00
  1.20000000E+00  1.20000000E+00  1.50000000E+00  1.20000000E+00  1.20000000E+00
  1.50000000E+00  1.20000000E+00  1.20000000E+00  1.50000000E+00  1.20000000E+00
  1.20000000E+00  1.50000000E+00  1.20000000E+00  1.20000000E+00  1.50000000E+00
  1.20000000E+00  1.20000000E+00  1.50000000E+00  1.20000000E+00  1.20000000E+00
  1.50000000E+00  1.20000000E+00  1.20000000E+00  1.50000000E+00  1.20000000E+00
  1.20000000E+00  1.50000000E+00  1.20000000E+00  1.20000000E+00  1.50000000E+00
  1.20000000E+00  1.20000000E+00  1.50000000E+00  1.20000000E+00  1.20000000E+00
  1.50000000E+00  1.20000000E+00  1.20000000E+00  1.50000000E+00  1.20000000E+00
  1.20000000E+00  1.50000000E+00  1.20000000E+00  1.20000000E+00  1.50000000E+00
  1.20000000E+00  1.20000000E+00  1.50000000E+00  1.20000000E+00  1.20000000E+00
  1.50000000E+00  1.20000000E+00  1.20000000E+00  1.50000000E+00  1.20000000E+00
  1.20000000E+00  1.50000000E+00  1.20000000E+00  1.20000000E+00  1.50000000E+00
  1.20000000E+00  1.20000000E+00  1.50000000E+00  1.20000000E+00  1.20000000E+00
  1.50000000E+00  1.20000000E+00  1.20000000E+00  1.50000000E+00  1.20000000E+00
  1.20000000E+00  1.50000000E+00  1.20000000E+00  1.20000000E+00  1.50000000E+00
  1.20000000E+00  1.20000000E+00  1.50000000E+00  1.20000000E+00  1.20000000E+00
  1.50000000E+00  1.20000000E+00  1.20000000E+00  1.50000000E+00  1.20000000E+00
  1.20000000E+00  1.50000000E+00  1.20000000E+00  1.20000000E+00  1.50000000E+00
  1.20000000E+00  1.20000000E+00  1.50000000E+00  1.20000000E+00  1.20000000E+00
  1.50000000E+00  1.20000000E+00  1.20000000E+00  1.50000000E+00  1.20000000E+00
  1.20000000E+00  1.50000000E+00  1.20000000E+00  1.20000000E+00  1.50000000E+00
  1.20000000E+00  1.20000000E+00  1.50000000E+00  1.20000000E+00  1.20000000E+00
  1.50000000E+00  1.20000000E+00  1.20000000E+00  1.50000000E+00  1.20000000E+00
  1.20000000E+00  1.50000000E+00  1.20000000E+00  1.20000000E+00  1.50000000E+00
  1.20000000E+00  1.20000000E+00  1.50000000E+00  1.20000000E+00  1.20000000E+00
  1.50000000E+00  1.20000000E+00  1.20000000E+00  1.50000000E+00  1.20000000E+00
  1.20000000E+00  1.50000000E+00  1.20000000E+00  1.20000000E+00  1.50000000E+00
  1.20000000E+00  1.20000000E+00  1.50000000E+00  1.20000000E+00  1.20000000E+00
  1.50000000E+00  1.20000000E+00  1.20000000E+00  1.50000000E+00  1.20000000E+00
  1.20000000E+00  1.50000000E+00  1.20000000E+00  1.20000000E+00  1.50000000E+00
  1.20000000E+00  1.20000000E+00  1.50000000E+00  1.20000000E+00  1.20000000E+00
  1.50000000E+00  1.20000000E+00  1.20000000E+00  1.50000000E+00  1.20000000E+00
  1.20000000E+00  1.50000000E+00  1.20000000E+00  1.20000000E+00  1.50000000E+00
  1.20000000E+00  1.20000000E+00  1.50000000E+00  1.20000000E+00  1.20000000E+00
  1.50000000E+00  1.20000000E+00  1.20000000E+00  1.50000000E+00  1.20000000E+00
  1.20000000E+00  1.50000000E+00  1.20000000E+00  1.20000000E+00  1.50000000E+00
  1.20000000E+00  1.20000000E+00  1.50000000E+00  1.20000000E+00  1.20000000E+00
  1.50000000E+00  1.20000000E+00  1.20000000E+00  1.50000000E+00  1.20000000E+00
  1.20000000E+00  1.50000000E+00  1.20000000E+00  1.20000000E+00  1.50000000E+00
  1.20000000E+00  1.20000000E+00  1.50000000E+00  1.20000000E+00  1.20000000E+00
  1.50000000E+00  1.20000000E+00  1.20000000E+00  1.50000000E+00  1.20000000E+00
  1.20000000E+00  1.50000000E+00  1.20000000E+00  1.20000000E+00  1.50000000E+00
  1.20000000E+00  1.20000000E+00  1.50000000E+00  1.20000000E+00  1.20000000E+00
  1.50000000E+00  1.20000000E+00  1.20000000E+00  1.50000000E+00  1.20000000E+00
  1.20000000E+00  1.50000000E+00  1.20000000E+00  1.20000000E+00  1.50000000E+00
  1.20000000E+00  1.20000000E+00  1.50000000E+00  1.20000000E+00  1.20000000E+00
  1.50000000E+00  1.20000000E+00  1.20000000E+00  1.50000000E+00  1.20000000E+00
  1.20000000E+00  1.50000000E+00  1.20000000E+00  1.20000000E+00  1.50000000E+00
  1.20000000E+00  1.20000000E+00  1.50000000E+00  1.20000000E+00  1.20000000E+00
  1.50000000E+00  1.20000000E+00  1.20000000E+00  1.50000000E+00  1.20000000E+00
  1.20000000E+00  1.50000000E+00  1.20000000E+00  1.20000000E+00  1.50000000E+00
  1.20000000E+00  1.20000000E+00  1.50000000E+00  1.20000000E+00  1.20000000E+00
  1.50000000E+00  1.20000000E+00  1.20000000E+00  1.50000000E+00  1.20000000E+00
  1.20000000E+00  1.50000000E+00  1.20000000E+00  1.20000000E+00  1.50000000E+00
  1.20000000E+00  1.20000000E+00  1.50000000E+00  1.20000000E+00  1.20000000E+00
  1.50000000E+00  1.20000000E+00  1.20000000E+00  1.50000000E+00  1.20000000E+00
  1.20000000E+00  1.50000000E+00  1.20000000E+00  1.20000000E+00  1.50000000E+00
  1.20000000E+00  1.20000000E+00  1.50000000E+00  1.20000000E+00  1.20000000E+00
  1.50000000E+00  1.20000000E+00  1.20000000E+00  1.50000000E+00  1.20000000E+00
  1.20000000E+00  1.50000000E+00  1.20000000E+00  1.20000000E+00  1.50000000E+00
  1.20000000E+00  1.20000000E+00  1.50000000E+00  1.20000000E+00  1.20000000E+00
  1.50000000E+00  1.20000000E+00  1.20000000E+00  1.50000000E+00  1.20000000E+00
  1.20000000E+00  1.50000000E+00  1.20000000E+00  1.20000000E+00  1.50000000E+00
  1.20000000E+00  1.20000000E+00  1.50000000E+00  1.20000000E+00  1.20000000E+00
  1.50000000E+00  1.20000000E+00  1.20000000E+00  1.50000000E+00  1.20000000E+00
  1.20000000E+00  1.50000000E+00  1.20000000E+00  1.20000000E+00  1.50000000E+00
  1.20000000E+00  1.20000000E+00  1.50000000E+00  1.20000000E+00  1.20000000E+00
  1.50000000E+00  1.20000000E+00  1.20000000E+00  1.50000000E+00  1.20000000E+00
  1.20000000E+00  1.50000000E+00  1.20000000E+00  1.20000000E+00  1.50000000E+00
  1.20000000E+00  1.20000000E+00  1.50000000E+00  1.20000000E+00  1.20000000E+00
  1.50000000E+00  1.20000000E+00  1.20000000E+00  1.50000000E+00  1.20000000E+00
  1.20000000E+00  1.50000000E+00  1.20000000E+00  1.20000000E+00  1.50000000E+00
  1.20000000E+00  1.20000000E+00  1.50000000E+00  1.20000000E+00  1.20000000E+00
  1.50000000E+00  1.20000000E+00  1.20000000E+00  1.50000000E+00  1.20000000E+00
  1.20000000E+00  1.50000000E+00  1.20000000E+00  1.20000000E+00  1.50000000E+00
  1.20000000E+00  1.20000000E+00  1.50000000E+00  1.20000000E+00  1.20000000E+00
  1.50000000E+00  1.20000000E+00  1.20000000E+00  1.50000000E+00  1.20000000E+00
  1.20000000E+00  1.50000000E+00  1.20000000E+00  1.20000000E+00  1.50000000E+00
  1.20000000E+00  1.20000000E+00  1.50000000E+00  1.20000000E+00  1.20000000E+00
  1.50000000E+00  1.20000000E+00  1.20000000E+00  1.50000000E+00  1.20000000E+00
  1.20000000E+00  1.50000000E+00  1.20000000E+00  1.20000000E+00  1.50000000E+00
  1.20000000E+00  1.20000000E+00  1.50000000E+00  1.20000000E+00  1.20000000E+00
  1.50000000E+00  1.20000000E+00  1.20000000E+00  1.50000000E+00  1.20000000E+00
  1.20000000E+00  1.50000000E+00  1.20000000E+00  1.20000000E+00  1.50000000E+00
  1.20000000E+00  1.20000000E+00  1.50000000E+00  1.20000000E+00  1.20000000E+00
  1.50000000E+00  1.20000000E+00  1.20000000E+00  1.50000000E+00  1.20000000E+00
  1.20000000E+00  1.50000000E+00  1.20000000E+00  1.20000000E+00  1.50000000E+00
  1.20000000E+00  1.20000000E+00  1.50000000E+00  1.20000000E+00  1.20000000E+00
  1.50000000E+00  1.20000000E+00  1.20000000E+00  1.50000000E+00  1.20000000E+00
  1.20000000E+00  1.50000000E+00  1.20000000E+00  1.20000000E+00  1.50000000E+00
  1.20000000E+00  1.20000000E+00  1.50000000E+00  1.20000000E+00  1.20000000E+00
  1.50000000E+00  1.20000000E+00  1.20000000E+00  1.50000000E+00  1.20000000E+00
  1.20000000E+00  1.50000000E+00  1.20000000E+00  1.20000000E+00  1.50000000E+00
  1.20000000E+00  1.20000000E+00  1.50000000E+00  1.20000000E+00  1.20000000E+00
  1.50000000E+00  1.20000000E+00  1.20000000E+00  1.50000000E+00  1.20000000E+00
  1.20000000E+00  1.50000000E+00  1.20000000E+00  1.20000000E+00  1.50000000E+00
  1.20000000E+00  1.20000000E+00  1.50000000E+00  1.20000000E+00  1.20000000E+00
  1.50000000E+00  1.20000000E+00  1.20000000E+00  1.50000000E+00  1.20000000E+00
  1.20000000E+00  1.50000000E+00  1.20000000E+00  1.20000000E+00  1.50000000E+00
  1.20000000E+00  1.20000000E+00  1.50000000E+00  1.20000000E+00  1.20000000E+00
  1.50000000E+00  1.20000000E+00  1.20000000E+00  1.50000000E+00  1.20000000E+00
  1.20000000E+00  1.50000000E+00  1.20000000E+00  1.20000000E+00  1.50000000E+00
  1.20000000E+00  1.20000000E+00  1.50000000E+00  1.20000000E+00  1.20000000E+00
  1.50000000E+00  1.20000000E+00  1.20000000E+00  1.50000000E+00  1.20000000E+00
  1.20000000E+00  1.50000000E+00  1.20000000E+00  1.20000000E+00  1.50000000E+00
  1.20000000E+00  1.20000000E+00  1.50000000E+00  1.20000000E+00  1.20000000E+00
  1.50000000E+00  1.20000000E+00  1.20000000E+00  1.50000000E+00  1.20000000E+00
  1.20000000E+00  1.50000000E+00  1.20000000E+00  1.20000000E+00  1.50000000E+00
  1.20000000E+00  1.20000000E+00  1.50000000E+00  1.20000000E+00  1.20000000E+00
  1.50000000E+00  1.20000000E+00  1.20000000E+00  1.50000000E+00  1.20000000E+00
  1.20000000E+00  1.50000000E+00  1.20000000E+00  1.20000000E+00  1.50000000E+00
  1.20000000E+00  1.20000000E+00  1.50000000E+00  1.20000000E+00  1.20000000E+00
  1.50000000E+00  1.20000000E+00  1.20000000E+00  1.50000000E+00  1.20000000E+00
  1.20000000E+00  1.50000000E+00  1.20000000E+00  1.20000000E+00  1.50000000E+00
  1.20000000E+00  1.20000000E+00  1.50000000E+00  1.20000000E+00  1.20000000E+00
  1.50000000E+00  1.20000000E+00  1.20000000E+00  1.50000000E+00  1.20000000E+00
  1.20000000E+00  1.50000000E+00  1.20000000E+00  1.20000000E+00  1.50000000E+00
  1.20000000E+00  1.20000000E+00  1.50000000E+00  1.20000000E+00  1.20000000E+00
  1.50000000E+00  1.20000000E+00  1.20000000E+00  1.50000000E+00  1.20000000E+00
  1.20000000E+00  1.50000000E+00  1.20000000E+00  1.20000000E+00  1.50000000E+00
  1.20000000E+00  1.20000000E+00  1.50000000E+00  1.20000000E+00  1.20000000E+00
  1.50000000E+00  1.20000000E+00  1.20000000E+00  1.50000000E+00  1.20000000E+00
  1.20000000E+00  1.50000000E+00  1.20000000E+00  1.20000000E+00  1.50000000E+00
  1.20000000E+00  1.20000000E+00  1.50000000E+00  1.20000000E+00  1.20000000E+00
  1.50000000E+00  1.20000000E+00  1.20000000E+00  1.50000000E+00  1.20000000E+00
  1.20000000E+00  1.50000000E+00  1.20000000E+00  1.20000000E+00  1.50000000E+00
  1.20000000E+00  1.20000000E+00  1.50000000E+00  1.20000000E+00  1.20000000E+00
  1.50000000E+00  1.20000000E+00  1.20000000E+00  1.50000000E+00  1.20000000E+00
  1.20000000E+00  1.50000000E+00  1.20000000E+00  1.20000000E+00  1.50000000E+00
  1.20000000E+00  1.20000000E+00  1.50000000E+00  1.20000000E+00  1.20000000E+00
  1.50000000E+00  1.20000000E+00  1.20000000E+00  1.50000000E+00  1.20000000E+00
  1.20000000E+00  1.50000000E+00  1.20000000E+00  1.20000000E+00  1.50000000E+00
  1.20000000E+00  1.20000000E+00  1.50000000E+00  1.20000000E+00  1.20000000E+00
  1.50000000E+00  1.20000000E+00  1.20000000E+00  1.50000000E+00  1.20000000E+00
  1.20000000E+00  1.50000000E+00  1.20000000E+00  1.20000000E+00  1.50000000E+00
  1.20000000E+00  1.20000000E+00  1.50000000E+00  1.20000000E+00  1.20000000E+00
  1.50000000E+00  1.20000000E+00  1.20000000E+00  1.50000000E+00  1.20000000E+00
  1.20000000E+00  1.50000000E+00  1.20000000E+00  1.20000000E+00  1.50000000E+00
  1.20000000E+00  1.20000000E+00  1.50000000E+00  1.20000000E+00  1.20000000E+00
  1.50000000E+00  1.20000000E+00  1.20000000E+00  1.50000000E+00  1.20000000E+00
  1.20000000E+00  1.50000000E+00  1.20000000E+00  1.20000000E+00  1.50000000E+00
  1.20000000E+00  1.20000000E+00  1.50000000E+00  1.20000000E+00  1.20000000E+00
  1.50000000E+00  1.20000000E+00  1.20000000E+00  1.50000000E+00  1.20000000E+00
  1.20000000E+00  1.50000000E+00  1.20000000E+00  1.20000000E+00  1.50000000E+00
  1.20000000E+00  1.20000000E+00  1.50000000E+00  1.20000000E+00  1.20000000E+00
  1.50000000E+00  1.20000000E+00  1.20000000E+00  1.50000000E+00  1.20000000E+00
  1.20000000E+00  1.50000000E+00  1.20000000E+00  1.20000000E+00  1.50000000E+00
  1.20000000E+00  1.20000000E+00  1.50000000E+00  1.20000000E+00  1.20000000E+00
  1.50000000E+00  1.20000000E+00  1.20000000E+00  1.50000000E+00  1.20000000E+00
  1.20000000E+00  1.50000000E+00  1.20000000E+00  1.20000000E+00  1.50000000E+00
  1.20000000E+00  1.20000000E+00  1.50000000E+00  1.20000000E+00  1.20000000E+00
  1.50000000E+00  1.20000000E+00  1.20000000E+00  1.50000000E+00  1.20000000E+00
  1.20000000E+00  1.50000000E+00  1.20000000E+00  1.20000000E+00  1.50000000E+00
  1.20000000E+00  1.20000000E+00  1.50000000E+00  1.20000000E+00  1.20000000E+00
  1.50000000E+00  1.20000000E+00  1.20000000E+00  1.50000000E+00  1.20000000E+00
  1.20000000E+00  1.50000000E+00  1.20000000E+00  1.20000000E+00  1.50000000E+00
  1.20000000E+00  1.20000000E+00  1.50000000E+00  1.20000000E+00  1.20000000E+00
  1.50000000E+00  1.20000000E+00  1.20000000E+00  1.50000000E+00  1.20000000E+00
  1.20000000E+00  1.50000000E+00  1.20000000E+00  1.20000000E+00  1.50000000E+00
  1.20000000E+00  1.20000000E+00  1.50000000E+00  1.20000000E+00  1.20000000E+00
  1.50000000E+00  1.20000000E+00  1.20000000E+00  1.50000000E+00  1.20000000E+00
  1.20000000E+00  1.50000000E+00  1.20000000E+00  1.20000000E+00  1.50000000E+00
  1.20000000E+00  1.20000000E+00  1.50000000E+00  1.20000000E+00  1.20000000E+00
  1.50000000E+00  1.20000000E+00  1.20000000E+00  1.50000000E+00  1.20000000E+00
  1.20000000E+00  1.50000000E+00  1.20000000E+00  1.20000000E+00  1.50000000E+00
  1.20000000E+00  1.20000000E+00  1.50000000E+00  1.20000000E+00  1.20000000E+00
  1.50000000E+00  1.20000000E+00  1.20000000E+00  1.50000000E+00  1.20000000E+00
  1.20000000E+00  1.50000000E+00  1.20000000E+00  1.20000000E+00  1.50000000E+00
  1.20000000E+00  1.20000000E+00  1.50000000E+00  1.20000000E+00  1.20000000E+00
  1.50000000E+00  1.20000000E+00  1.20000000E+00  1.50000000E+00  1.20000000E+00
  1.20000000E+00  1.50000000E+00  1.20000000E+00  1.20000000E+00  1.50000000E+00
  1.20000000E+00  1.20000000E+00  1.50000000E+00  1.20000000E+00  1.20000000E+00
  1.50000000E+00  1.20000000E+00  1.20000000E+00  1.50000000E+00  1.20000000E+00
  1.20000000E+00  1.50000000E+00  1.20000000E+00  1.20000000E+00  1.50000000E+00
  1.20000000E+00  1.20000000E+00  1.50000000E+00  1.20000000E+00  1.20000000E+00
  1.50000000E+00  1.20000000E+00  1.20000000E+00  1.50000000E+00  1.20000000E+00
  1.20000000E+00  1.50000000E+00  1.20000000E+00  1.20000000E+00  1.50000000E+00
  1.20000000E+00  1.20000000E+00  1.50000000E+00  1.20000000E+00  1.20000000E+00
  1.50000000E+00  1.20000000E+00  1.20000000E+00  1.50000000E+00  1.20000000E+00
  1.20000000E+00  1.50000000E+00  1.20000000E+00  1.20000000E+00  1.50000000E+00
  1.20000000E+00  1.20000000E+00  1.50000000E+00  1.20000000E+00  1.20000000E+00
  1.50000000E+00  1.20000000E+00  1.20000000E+00  1.50000000E+00  1.20000000E+00
  1.20000000E+00  1.50000000E+00  1.20000000E+00  1.20000000E+00  1.50000000E+00
  1.20000000E+00  1.20000000E+00  1.50000000E+00  1.20000000E+00  1.20000000E+00
  1.50000000E+00  1.20000000E+00  1.20000000E+00  1.50000000E+00  1.20000000E+00
  1.20000000E+00  1.50000000E+00  1.20000000E+00  1.20000000E+00  1.50000000E+00
  1.20000000E+00  1.20000000E+00  1.50000000E+00  1.20000000E+00  1.20000000E+00
  1.50000000E+00  1.20000000E+00  1.20000000E+00  1.50000000E+00  1.20000000E+00
  1.20000000E+00  1.50000000E+00  1.20000000E+00  1.20000000E+00  1.50000000E+00
  1.20000000E+00  1.20000000E+00  1.50000000E+00  1.20000000E+00  1.20000000E+00
  1.50000000E+00  1.20000000E+00  1.20000000E+00  1.50000000E+00  1.20000000E+00
  1.20000000E+00  1.50000000E+00  1.20000000E+00  1.20000000E+00  1.50000000E+00
  1.20000000E+00  1.20000000E+00  1.50000000E+00  1.20000000E+00  1.20000000E+00
  1.50000000E+00  1.20000000E+00  1.20000000E+00  1.50000000E+00  1.20000000E+00
  1.20000000E+00  1.50000000E+00  1.20000000E+00  1.20000000E+00  1.50000000E+00
  1.20000000E+00  1.20000000E+00  1.50000000E+00  1.20000000E+00  1.20000000E+00
  1.50000000E+00  1.20000000E+00  1.20000000E+00  1.50000000E+00  1.20000000E+00
  1.20000000E+00  1.50000000E+00  1.20000000E+00  1.20000000E+00  1.50000000E+00
  1.20000000E+00  1.20000000E+00  1.50000000E+00  1.20000000E+00  1.20000000E+00
  1.50000000E+00  1.20000000E+00  1.20000000E+00  1.50000000E+00  1.20000000E+00
  1.20000000E+00  1.50000000E+00  1.20000000E+00  1.20000000E+00  1.50000000E+00
  1.20000000E+00  1.20000000E+00  1.50000000E+00  1.20000000E+00  1.20000000E+00
  1.50000000E+00  1.20000000E+00  1.20000000E+00  1.50000000E+00  1.20000000E+00
  1.20000000E+00  1.50000000E+00  1.20000000E+00  1.20000000E+00  1.50000000E+00
  1.20000000E+00  1.20000000E+00  1.50000000E+00  1.20000000E+00  1.20000000E+00
  1.50000000E+00  1.20000000E+00  1.20000000E+00  1.50000000E+00  1.20000000E+00
  1.20000000E+00  1.50000000E+00  1.20000000E+00  1.20000000E+00  1.50000000E+00
  1.20000000E+00  1.20000000E+00  1.50000000E+00  1.20000000E+00  1.20000000E+00
  1.50000000E+00  1.20000000E+00  1.20000000E+00  1.50000000E+00  1.20000000E+00
  1.20000000E+00  1.50000000E+00  1.20000000E+00  1.20000000E+00  1.50000000E+00
  1.20000000E+00  1.20000000E+00  1.50000000E+00  1.20000000E+00  1.20000000E+00
  1.50000000E+00  1.20000000E+00  1.20000000E+00  1.50000000E+00  1.20000000E+00
  1.20000000E+00  1.50000000E+00  1.20000000E+00  1.20000000E+00  1.50000000E+00
  1.20000000E+00  1.20000000E+00  1.50000000E+00  1.20000000E+00  1.20000000E+00
  1.50000000E+00  1.20000000E+00  1.20000000E+00  1.50000000E+00  1.20000000E+00
  1.20000000E+00  1.50000000E+00  1.20000000E+00  1.20000000E+00  1.50000000E+00
  1.20000000E+00  1.20000000E+00  1.50000000E+00  1.20000000E+00  1.20000000E+00
  1.50000000E+00  1.20000000E+00  1.20000000E+00  1.50000000E+00  1.20000000E+00
  1.20000000E+00  1.50000000E+00  1.20000000E+00  1.20000000E+00  1.50000000E+00
  1.20000000E+00  1.20000000E+00  1.50000000E+00  1.20000000E+00  1.20000000E+00
  1.50000000E+00  1.20000000E+00  1.20000000E+00  1.50000000E+00  1.20000000E+00
  1.20000000E+00  1.50000000E+00  1.20000000E+00  1.20000000E+00  1.50000000E+00
  1.20000000E+00  1.20000000E+00  1.50000000E+00  1.20000000E+00  1.20000000E+00
  1.50000000E+00  1.20000000E+00  1.20000000E+00  1.50000000E+00  1.20000000E+00
  1.20000000E+00  1.50000000E+00  1.20000000E+00  1.20000000E+00  1.50000000E+00
  1.20000000E+00  1.20000000E+00  1.50000000E+00  1.20000000E+00  1.20000000E+00
  1.50000000E+00  1.20000000E+00  1.20000000E+00  1.50000000E+00  1.20000000E+00
  1.20000000E+00  1.50000000E+00  1.20000000E+00  1.20000000E+00  1.50000000E+00
  1.20000000E+00  1.20000000E+00  1.50000000E+00  1.20000000E+00  1.20000000E+00
  1.50000000E+00  1.20000000E+00  1.20000000E+00  1.50000000E+00  1.20000000E+00
  1.20000000E+00  1.50000000E+00  1.20000000E+00  1.20000000E+00  1.50000000E+00
  1.20000000E+00  1.20000000E+00  1.50000000E+00  1.20000000E+00  1.20000000E+00
  1.50000000E+00  1.20000000E+00  1.20000000E+00  1.50000000E+00  1.20000000E+00
  1.20000000E+00  1.50000000E+00  1.20000000E+00  1.20000000E+00  1.50000000E+00
  1.20000000E+00  1.20000000E+00  1.50000000E+00  1.20000000E+00  1.20000000E+00
  1.50000000E+00  1.20000000E+00  1.20000000E+00  1.50000000E+00  1.20000000E+00
  1.20000000E+00  1.50000000E+00  1.20000000E+00  1.20000000E+00  1.50000000E+00
  1.20000000E+00  1.20000000E+00  1.50000000E+00  1.20000000E+00  1.20000000E+00
  1.50000000E+00  1.20000000E+00  1.20000000E+00  1.50000000E+00  1.20000000E+00
  1.20000000E+00  1.50000000E+00  1.20000000E+00  1.20000000E+00  1.50000000E+00
  1.20000000E+00  1.20000000E+00  1.50000000E+00  1.20000000E+00  1.20000000E+00
  1.50000000E+00  1.20000000E+00  1.20000000E+00  1.50000000E+00  1.20000000E+00
  1.20000000E+00  1.50000000E+00  1.20000000E+00  1.20000000E+00  1.50000000E+00
  1.20000000E+00  1.20000000E+00  1.50000000E+00  1.20000000E+00  1.20000000E+00
  1.50000000E+00  1.20000000E+00  1.20000000E+00  1.50000000E+00  1.20000000E+00
  1.20000000E+00  1.50000000E+00  1.20000000E+00  1.20000000E+00  1.50000000E+00
  1.20000000E+00  1.20000000E+00  1.50000000E+00  1.20000000E+00  1.20000000E+00
  1.50000000E+00  1.20000000E+00  1.20000000E+00  1.50000000E+00  1.20000000E+00
  1.20000000E+00  1.50000000E+00  1.20000000E+00  1.20000000E+00  1.50000000E+00
  1.20000000E+00  1.20000000E+00  1.50000000E+00  1.20000000E+00  1.20000000E+00
  1.50000000E+00  1.20000000E+00  1.20000000E+00  1.50000000E+00  1.20000000E+00
  1.20000000E+00  1.50000000E+00  1.20000000E+00  1.20000000E+00  1.50000000E+00
  1.20000000E+00  1.20000000E+00  1.50000000E+00  1.20000000E+00  1.20000000E+00
  1.50000000E+00  1.20000000E+00  1.20000000E+00  1.50000000E+00  1.20000000E+00
  1.20000000E+00  1.50000000E+00  1.20000000E+00  1.20000000E+00  1.50000000E+00
  1.20000000E+00  1.20000000E+00  1.50000000E+00  1.20000000E+00  1.20000000E+00
  1.50000000E+00  1.20000000E+00  1.20000000E+00  1.50000000E+00  1.20000000E+00
  1.20000000E+00  1.50000000E+00  1.20000000E+00  1.20000000E+00  1.50000000E+00
  1.20000000E+00  1.20000000E+00  1.50000000E+00  1.20000000E+00  1.20000000E+00
  1.50000000E+00  1.20000000E+00  1.20000000E+00  1.50000000E+00  1.20000000E+00
  1.20000000E+00  1.50000000E+00  1.20000000E+00  1.20000000E+00  1.50000000E+00
  1.20000000E+00  1.20000000E+00  1.50000000E+00  1.20000000E+00  1.20000000E+00
  1.50000000E+00  1.20000000E+00  1.20000000E+00  1.50000000E+00  1.20000000E+00
  1.20000000E+00  1.50000000E+00  1.20000000E+00  1.20000000E+00  1.50000000E+00
  1.20000000E+00  1.20000000E+00  1.50000000E+00  1.20000000E+00  1.20000000E+00
  1.50000000E+00  1.20000000E+00  1.20000000E+00  1.50000000E+00  1.20000000E+00
  1.20000000E+00  1.50000000E+00  1.20000000E+00  1.20000000E+00  1.50000000E+00
  1.20000000E+00  1.20000000E+00  1.50000000E+00  1.20000000E+00  1.20000000E+00
  1.50000000E+00  1.20000000E+00  1.20000000E+00  1.50000000E+00  1.20000000E+00
  1.20000000E+00  1.50000000E+00  1.20000000E+00  1.20000000E+00  1.50000000E+00
  1.20000000E+00  1.20000000E+00  1.50000000E+00  1.20000000E+00  1.20000000E+00
  1.50000000E+00  1.20000000E+00  1.20000000E+00  1.50000000E+00  1.20000000E+00
  1.20000000E+00  1.50000000E+00  1.20000000E+00  1.20000000E+00  1.50000000E+00
  1.20000000E+00  1.20000000E+00  1.50000000E+00  1.20000000E+00  1.20000000E+00
  1.50000000E+00  1.20000000E+00  1.20000000E+00  1.50000000E+00  1.20000000E+00
  1.20000000E+00  1.50000000E+00  1.20000000E+00  1.20000000E+00  1.50000000E+00
  1.20000000E+00  1.20000000E+00  1.50000000E+00  1.20000000E+00  1.20000000E+00
  1.50000000E+00  1.20000000E+00  1.20000000E+00  1.50000000E+00  1.20000000E+00
  1.20000000E+00  1.50000000E+00  1.20000000E+00  1.20000000E+00  1.50000000E+00
  1.20000000E+00  1.20000000E+00  1.50000000E+00  1.20000000E+00  1.20000000E+00
  1.50000000E+00  1.20000000E+00  1.20000000E+00  1.50000000E+00  1.20000000E+00
  1.20000000E+00  1.50000000E+00  1.20000000E+00  1.20000000E+00  1.50000000E+00
  1.20000000E+00  1.20000000E+00  1.50000000E+00  1.20000000E+00  1.20000000E+00
  1.50000000E+00  1.20000000E+00  1.20000000E+00  1.50000000E+00  1.20000000E+00
  1.20000000E+00  1.50000000E+00  1.20000000E+00  1.20000000E+00  1.50000000E+00
  1.20000000E+00  1.20000000E+00  1.50000000E+00  1.20000000E+00  1.20000000E+00
  1.50000000E+00  1.20000000E+00  1.20000000E+00  1.50000000E+00  1.20000000E+00
  1.20000000E+00  1.50000000E+00  1.20000000E+00  1.20000000E+00  1.50000000E+00
  1.20000000E+00  1.20000000E+00  1.50000000E+00  1.20000000E+00  1.20000000E+00
  1.50000000E+00  1.20000000E+00  1.20000000E+00  1.50000000E+00  1.20000000E+00
  1.20000000E+00  1.50000000E+00  1.20000000E+00  1.20000000E+00  1.50000000E+00
  1.20000000E+00  1.20000000E+00  1.50000000E+00  1.20000000E+00  1.20000000E+00
  1.50000000E+00  1.20000000E+00  1.20000000E+00  1.50000000E+00  1.20000000E+00
  1.20000000E+00  1.50000000E+00  1.20000000E+00  1.20000000E+00  1.50000000E+00
  1.20000000E+00  1.20000000E+00  1.50000000E+00  1.20000000E+00  1.20000000E+00
  1.50000000E+00  1.20000000E+00  1.20000000E+00  1.50000000E+00  1.20000000E+00
  1.20000000E+00  1.50000000E+00  1.20000000E+00  1.20000000E+00  1.50000000E+00
  1.20000000E+00  1.20000000E+00  1.50000000E+00  1.20000000E+00  1.20000000E+00
  1.50000000E+00  1.20000000E+00  1.20000000E+00  1.50000000E+00  1.20000000E+00
  1.20000000E+00  1.50000000E+00  1.20000000E+00  1.20000000E+00  1.50000000E+00
  1.20000000E+00  1.20000000E+00  1.50000000E+00  1.20000000E+00  1.20000000E+00
  1.50000000E+00  1.20000000E+00  1.20000000E+00  1.50000000E+00  1.20000000E+00
  1.20000000E+00  1.50000000E+00  1.20000000E+00  1.20000000E+00  1.50000000E+00
  1.20000000E+00  1.20000000E+00  1.50000000E+00  1.20000000E+00  1.20000000E+00
  1.50000000E+00  1.20000000E+00  1.20000000E+00  1.50000000E+00  1.20000000E+00
  1.20000000E+00  1.50000000E+00  1.20000000E+00  1.20000000E+00  1.50000000E+00
  1.20000000E+00  1.20000000E+00  1.50000000E+00  1.20000000E+00  1.20000000E+00
  1.50000000E+00  1.20000000E+00  1.20000000E+00  1.50000000E+00  1.20000000E+00
  1.20000000E+00  1.50000000E+00  1.20000000E+00  1.20000000E+00  1.50000000E+00
  1.20000000E+00  1.20000000E+00  1.50000000E+00  1.20000000E+00  1.20000000E+00
  1.50000000E+00  1.20000000E+00  1.20000000E+00  1.50000000E+00  1.20000000E+00
  1.20000000E+00  1.50000000E+00  1.20000000E+00  1.20000000E+00  1.50000000E+00
  1.20000000E+00  1.20000000E+00  1.50000000E+00  1.20000000E+00  1.20000000E+00
  1.50000000E+00  1.20000000E+00  1.20000000E+00  1.50000000E+00  1.20000000E+00
  1.20000000E+00  1.50000000E+00  1.20000000E+00  1.20000000E+00  1.50000000E+00
  1.20000000E+00  1.20000000E+00  1.50000000E+00  1.20000000E+00  1.20000000E+00
  1.50000000E+00  1.20000000E+00  1.20000000E+00  1.50000000E+00  1.20000000E+00
  1.20000000E+00  1.50000000E+00  1.20000000E+00  1.20000000E+00  1.50000000E+00
  1.20000000E+00  1.20000000E+00  1.50000000E+00  1.20000000E+00  1.20000000E+00
  1.50000000E+00  1.20000000E+00  1.20000000E+00  1.50000000E+00  1.20000000E+00
  1.20000000E+00  1.50000000E+00  1.20000000E+00  1.20000000E+00  1.50000000E+00
  1.20000000E+00  1.20000000E+00  1.50000000E+00  1.20000000E+00  1.20000000E+00
  1.50000000E+00  1.20000000E+00  1.20000000E+00  1.50000000E+00  1.20000000E+00
  1.20000000E+00  1.50000000E+00  1.20000000E+00  1.20000000E+00  1.50000000E+00
  1.20000000E+00  1.20000000E+00  1.50000000E+00  1.20000000E+00  1.20000000E+00
  1.50000000E+00  1.20000000E+00  1.20000000E+00  1.50000000E+00  1.20000000E+00
  1.20000000E+00  1.50000000E+00  1.20000000E+00  1.20000000E+00  1.50000000E+00
  1.20000000E+00  1.20000000E+00  1.50000000E+00  1.20000000E+00  1.20000000E+00
  1.50000000E+00  1.20000000E+00  1.20000000E+00  1.50000000E+00  1.20000000E+00
  1.20000000E+00  1.50000000E+00  1.20000000E+00  1.20000000E+00  1.50000000E+00
  1.20000000E+00  1.20000000E+00  1.50000000E+00  1.20000000E+00  1.20000000E+00
  1.50000000E+00  1.20000000E+00  1.20000000E+00  1.50000000E+00  1.20000000E+00
  1.20000000E+00  1.50000000E+00  1.20000000E+00  1.20000000E+00  1.50000000E+00
  1.20000000E+00  1.20000000E+00  1.50000000E+00  1.20000000E+00  1.20000000E+00
  1.50000000E+00  1.20000000E+00  1.20000000E+00  1.50000000E+00  1.20000000E+00
  1.20000000E+00  1.50000000E+00  1.20000000E+00  1.20000000E+00  1.50000000E+00
  1.20000000E+00  1.20000000E+00  1.50000000E+00  1.20000000E+00  1.20000000E+00
  1.50000000E+00  1.20000000E+00  1.20000000E+00  1.50000000E+00  1.20000000E+00
  1.20000000E+00  1.50000000E+00  1.20000000E+00  1.20000000E+00  1.50000000E+00
  1.20000000E+00  1.20000000E+00  1.50000000E+00  1.20000000E+00  1.20000000E+00
  1.50000000E+00  1.20000000E+00  1.20000000E+00  1.50000000E+00  1.20000000E+00
  1.20000000E+00  1.50000000E+00  1.20000000E+00  1.20000000E+00  1.50000000E+00
  1.20000000E+00  1.20000000E+00  1.50000000E+00  1.20000000E+00  1.20000000E+00
  1.50000000E+00  1.20000000E+00  1.20000000E+00  1.50000000E+00  1.20000000E+00
  1.20000000E+00  1.50000000E+00  1.20000000E+00  1.20000000E+00  1.50000000E+00
  1.20000000E+00  1.20000000E+00  1.50000000E+00  1.20000000E+00  1.20000000E+00
  1.50000000E+00  1.20000000E+00  1.20000000E+00  1.50000000E+00  1.20000000E+00
  1.20000000E+00  1.50000000E+00  1.20000000E+00  1.20000000E+00  1.50000000E+00
  1.20000000E+00  1.20000000E+00  1.50000000E+00  1.20000000E+00  1.20000000E+00
  1.50000000E+00  1.20000000E+00  1.20000000E+00  1.50000000E+00  1.20000000E+00
  1.20000000E+00  1.50000000E+00  1.20000000E+00  1.20000000E+00  1.50000000E+00
  1.20000000E+00  1.20000000E+00  1.50000000E+00  1.20000000E+00  1.20000000E+00
  1.50000000E+00  1.20000000E+00  1.20000000E+00  1.50000000E+00  1.20000000E+00
  1.20000000E+00  1.50000000E+00  1.20000000E+00  1.20000000E+00  1.50000000E+00
  1.20000000E+00  1.20000000E+00  1.50000000E+00  1.20000000E+00  1.20000000E+00
  1.50000000E+00  1.20000000E+00  1.20000000E+00  1.50000000E+00  1.20000000E+00
  1.20000000E+00  1.50000000E+00  1.20000000E+00  1.20000000E+00  1.50000000E+00
  1.20000000E+00  1.20000000E+00  1.50000000E+00  1.20000000E+00  1.20000000E+00
  1.50000000E+00  1.20000000E+00  1.20000000E+00  1.50000000E+00  1.20000000E+00
  1.20000000E+00  1.50000000E+00  1.20000000E+00  1.20000000E+00  1.50000000E+00
  1.20000000E+00  1.20000000E+00  1.50000000E+00  1.20000000E+00  1.20000000E+00
  1.50000000E+00  1.20000000E+00  1.20000000E+00  1.50000000E+00  1.20000000E+00
  1.20000000E+00  1.50000000E+00  1.20000000E+00  1.20000000E+00  1.50000000E+00
  1.20000000E+00  1.20000000E+00  1.50000000E+00  1.20000000E+00  1.20000000E+00
  1.50000000E+00  1.20000000E+00  1.20000000E+00  1.50000000E+00  1.20000000E+00
  1.20000000E+00  1.50000000E+00  1.20000000E+00  1.20000000E+00  1.50000000E+00
  1.20000000E+00  1.20000000E+00  1.50000000E+00  1.20000000E+00  1.20000000E+00
  1.50000000E+00  1.20000000E+00  1.20000000E+00  1.50000000E+00  1.20000000E+00
  1.20000000E+00  1.50000000E+00  1.20000000E+00  1.20000000E+00  1.50000000E+00
  1.20000000E+00  1.20000000E+00  1.50000000E+00  1.20000000E+00  1.20000000E+00
  1.50000000E+00  1.20000000E+00  1.20000000E+00  1.50000000E+00  1.20000000E+00
  1.20000000E+00  1.50000000E+00  1.20000000E+00  1.20000000E+00  1.50000000E+00
  1.20000000E+00  1.20000000E+00  1.50000000E+00  1.20000000E+00  1.20000000E+00
  1.50000000E+00  1.20000000E+00  1.20000000E+00  1.50000000E+00  1.20000000E+00
  1.20000000E+00  1.50000000E+00  1.20000000E+00  1.20000000E+00  1.50000000E+00
  1.20000000E+00  1.20000000E+00  1.50000000E+00  1.20000000E+00  1.20000000E+00
  1.50000000E+00  1.20000000E+00  1.20000000E+00  1.50000000E+00  1.20000000E+00
  1.20000000E+00  1.50000000E+00  1.20000000E+00  1.20000000E+00  1.50000000E+00
  1.20000000E+00  1.20000000E+00  1.50000000E+00  1.20000000E+00  1.20000000E+00
  1.50000000E+00  1.20000000E+00  1.20000000E+00  1.50000000E+00  1.20000000E+00
  1.20000000E+00  1.50000000E+00  1.20000000E+00  1.20000000E+00  1.50000000E+00
  1.20000000E+00  1.20000000E+00  1.50000000E+00  1.20000000E+00  1.20000000E+00
  1.50000000E+00  1.20000000E+00  1.20000000E+00  1.50000000E+00  1.20000000E+00
  1.20000000E+00  1.50000000E+00  1.20000000E+00  1.20000000E+00  1.50000000E+00
  1.20000000E+00  1.20000000E+00  1.50000000E+00  1.20000000E+00  1.20000000E+00
  1.50000000E+00  1.20000000E+00  1.20000000E+00  1.50000000E+00  1.20000000E+00
  1.20000000E+00  1.50000000E+00  1.20000000E+00  1.20000000E+00  1.50000000E+00
  1.20000000E+00  1.20000000E+00  1.50000000E+00  1.20000000E+00  1.20000000E+00
  1.50000000E+00  1.20000000E+00  1.20000000E+00  1.50000000E+00  1.20000000E+00
  1.20000000E+00  1.50000000E+00  1.20000000E+00  1.20000000E+00  1.50000000E+00
  1.20000000E+00  1.20000000E+00  1.50000000E+00  1.20000000E+00  1.20000000E+00
  1.50000000E+00  1.20000000E+00  1.20000000E+00  1.50000000E+00  1.20000000E+00
  1.20000000E+00  1.50000000E+00  1.20000000E+00  1.20000000E+00  1.50000000E+00
  1.20000000E+00  1.20000000E+00  1.50000000E+00  1.20000000E+00  1.20000000E+00
  1.50000000E+00  1.20000000E+00  1.20000000E+00  1.50000000E+00  1.20000000E+00
  1.20000000E+00  1.50000000E+00  1.20000000E+00  1.20000000E+00  1.50000000E+00
  1.20000000E+00  1.20000000E+00  1.50000000E+00  1.20000000E+00  1.20000000E+00
  1.50000000E+00  1.20000000E+00  1.20000000E+00  1.50000000E+00  1.20000000E+00
  1.20000000E+00  1.50000000E+00  1.20000000E+00  1.20000000E+00  1.50000000E+00
  1.20000000E+00  1.20000000E+00  1.50000000E+00  1.20000000E+00  1.20000000E+00
  1.50000000E+00  1.20000000E+00  1.20000000E+00  1.50000000E+00  1.20000000E+00
  1.20000000E+00  1.50000000E+00  1.20000000E+00  1.20000000E+00  1.50000000E+00
  1.20000000E+00  1.20000000E+00  1.50000000E+00  1.20000000E+00  1.20000000E+00
  1.50000000E+00  1.20000000E+00  1.20000000E+00  1.50000000E+00  1.20000000E+00
  1.20000000E+00  1.50000000E+00  1.20000000E+00  1.20000000E+00  1.50000000E+00
  1.20000000E+00  1.20000000E+00  1.50000000E+00  1.20000000E+00  1.20000000E+00
  1.50000000E+00  1.20000000E+00  1.20000000E+00  1.50000000E+00  1.20000000E+00
  1.20000000E+00  1.50000000E+00  1.20000000E+00  1.20000000E+00  1.50000000E+00
  1.20000000E+00  1.20000000E+00  1.50000000E+00  1.20000000E+00  1.20000000E+00
  1.50000000E+00  1.20000000E+00  1.20000000E+00  1.50000000E+00  1.20000000E+00
  1.20000000E+00  1.50000000E+00  1.20000000E+00  1.20000000E+00  1.50000000E+00
  1.20000000E+00  1.20000000E+00  1.50000000E+00  1.20000000E+00  1.20000000E+00
  1.50000000E+00  1.20000000E+00  1.20000000E+00  1.50000000E+00  1.20000000E+00
  1.20000000E+00  1.50000000E+00  1.20000000E+00  1.20000000E+00  1.50000000E+00
  1.20000000E+00  1.20000000E+00  1.50000000E+00  1.20000000E+00  1.20000000E+00
  1.50000000E+00  1.20000000E+00  1.20000000E+00  1.50000000E+00  1.20000000E+00
  1.20000000E+00  1.50000000E+00  1.20000000E+00  1.20000000E+00  1.50000000E+00
  1.20000000E+00  1.20000000E+00  1.50000000E+00  1.20000000E+00  1.20000000E+00
  1.50000000E+00  1.20000000E+00  1.20000000E+00  1.50000000E+00  1.20000000E+00
  1.20000000E+00  1.50000000E+00  1.20000000E+00  1.20000000E+00  1.50000000E+00
  1.20000000E+00  1.20000000E+00  1.50000000E+00  1.20000000E+00  1.20000000E+00
  1.50000000E+00  1.20000000E+00  1.20000000E+00  1.50000000E+00  1.20000000E+00
  1.20000000E+00  1.50000000E+00  1.20000000E+00  1.20000000E+00  1.50000000E+00
  1.20000000E+00  1.20000000E+00  1.50000000E+00  1.20000000E+00  1.20000000E+00
  1.50000000E+00  1.20000000E+00  1.20000000E+00  1.50000000E+00  1.20000000E+00
  1.20000000E+00  1.50000000E+00  1.20000000E+00  1.20000000E+00  1.50000000E+00
  1.20000000E+00  1.20000000E+00  1.50000000E+00  1.20000000E+00  1.20000000E+00
  1.50000000E+00  1.20000000E+00  1.20000000E+00  1.50000000E+00  1.20000000E+00
  1.20000000E+00  1.50000000E+00  1.20000000E+00  1.20000000E+00  1.50000000E+00
  1.20000000E+00  1.20000000E+00  1.50000000E+00  1.20000000E+00  1.20000000E+00
  1.50000000E+00  1.20000000E+00  1.20000000E+00  1.50000000E+00  1.20000000E+00
  1.20000000E+00  1.50000000E+00  1.20000000E+00  1.20000000E+00  1.50000000E+00
  1.20000000E+00  1.20000000E+00  1.50000000E+00  1.20000000E+00  1.20000000E+00
  1.50000000E+00  1.20000000E+00  1.20000000E+00  1.50000000E+00  1.20000000E+00
  1.20000000E+00  1.50000000E+00  1.20000000E+00  1.20000000E+00  1.50000000E+00
  1.20000000E+00  1.20000000E+00  1.50000000E+00  1.20000000E+00  1.20000000E+00
  1.50000000E+00  1.20000000E+00  1.20000000E+00  1.50000000E+00  1.20000000E+00
  1.20000000E+00  1.50000000E+00  1.20000000E+00  1.20000000E+00  1.50000000E+00
  1.20000000E+00  1.20000000E+00  1.50000000E+00  1.20000000E+00  1.20000000E+00
  1.50000000E+00  1.20000000E+00  1.20000000E+00  1.50000000E+00  1.20000000E+00
  1.20000000E+00  1.50000000E+00  1.20000000E+00  1.20000000E+00  1.50000000E+00
  1.20000000E+00  1.20000000E+00  1.50000000E+00  1.20000000E+00  1.20000000E+00
  1.50000000E+00  1.20000000E+00  1.20000000E+00  1.50000000E+00  1.20000000E+00
  1.20000000E+00  1.50000000E+00  1.20000000E+00  1.20000000E+00  1.50000000E+00
  1.20000000E+00  1.20000000E+00  1.50000000E+00  1.20000000E+00  1.20000000E+00
  1.50000000E+00  1.20000000E+00  1.20000000E+00  1.50000000E+00  1.20000000E+00
  1.20000000E+00  1.50000000E+00  1.20000000E+00  1.20000000E+00  1.50000000E+00
  1.20000000E+00  1.20000000E+00  1.50000000E+00  1.20000000E+00  1.20000000E+00
  1.50000000E+00  1.20000000E+00  1.20000000E+00  1.50000000E+00  1.20000000E+00
  1.20000000E+00  1.50000000E+00  1.20000000E+00  1.20000000E+00  1.50000000E+00
  1.20000000E+00  1.20000000E+00  1.50000000E+00  1.20000000E+00  1.20000000E+00
  1.50000000E+00  1.20000000E+00  1.20000000E+00  1.50000000E+00  1.20000000E+00
  1.20000000E+00  1.50000000E+00  1.20000000E+00  1.20000000E+00  1.50000000E+00
  1.20000000E+00  1.20000000E+00  1.50000000E+00  1.20000000E+00  1.20000000E+00
  1.50000000E+00  1.20000000E+00  1.20000000E+00  1.50000000E+00  1.20000000E+00
  1.20000000E+00  1.50000000E+00  1.20000000E+00  1.20000000E+00  1.50000000E+00
  1.20000000E+00  1.20000000E+00  1.50000000E+00  1.20000000E+00  1.20000000E+00
  1.50000000E+00  1.20000000E+00  1.20000000E+00  1.50000000E+00  1.20000000E+00
  1.20000000E+00  1.50000000E+00  1.20000000E+00  1.20000000E+00  1.50000000E+00
  1.20000000E+00  1.20000000E+00  1.50000000E+00  1.20000000E+00  1.20000000E+00
  1.50000000E+00  1.20000000E+00  1.20000000E+00  1.50000000E+00  1.20000000E+00
  1.20000000E+00  1.50000000E+00  1.20000000E+00  1.20000000E+00  1.50000000E+00
  1.20000000E+00  1.20000000E+00  1.50000000E+00  1.20000000E+00  1.20000000E+00
  1.50000000E+00  1.20000000E+00  1.20000000E+00  1.50000000E+00  1.20000000E+00
  1.20000000E+00  1.50000000E+00  1.20000000E+00  1.20000000E+00  1.50000000E+00
  1.20000000E+00  1.20000000E+00  1.50000000E+00  1.20000000E+00  1.20000000E+00
  1.50000000E+00  1.20000000E+00  1.20000000E+00  1.50000000E+00  1.20000000E+00
  1.20000000E+00  1.50000000E+00  1.20000000E+00  1.20000000E+00  1.50000000E+00
  1.20000000E+00  1.20000000E+00  1.50000000E+00  1.20000000E+00  1.20000000E+00
  1.50000000E+00  1.20000000E+00  1.20000000E+00  1.50000000E+00  1.20000000E+00
  1.20000000E+00  1.50000000E+00  1.20000000E+00  1.20000000E+00  1.50000000E+00
  1.20000000E+00  1.20000000E+00  1.50000000E+00  1.20000000E+00  1.20000000E+00
  1.50000000E+00  1.20000000E+00  1.20000000E+00  1.50000000E+00  1.20000000E+00
  1.20000000E+00  1.50000000E+00  1.20000000E+00  1.20000000E+00  1.50000000E+00
  1.20000000E+00  1.20000000E+00  1.50000000E+00  1.20000000E+00  1.20000000E+00
  1.50000000E+00  1.20000000E+00  1.20000000E+00  1.50000000E+00  1.20000000E+00
  1.20000000E+00  1.50000000E+00  1.20000000E+00  1.20000000E+00  1.50000000E+00
  1.20000000E+00  1.20000000E+00  1.50000000E+00  1.20000000E+00  1.20000000E+00
  1.50000000E+00  1.20000000E+00  1.20000000E+00  1.50000000E+00  1.20000000E+00
  1.20000000E+00  1.50000000E+00  1.20000000E+00  1.20000000E+00  1.50000000E+00
  1.20000000E+00  1.20000000E+00  1.50000000E+00  1.20000000E+00  1.20000000E+00
  1.50000000E+00  1.20000000E+00  1.20000000E+00  1.50000000E+00  1.20000000E+00
  1.20000000E+00  1.50000000E+00  1.20000000E+00  1.20000000E+00  1.50000000E+00
  1.20000000E+00  1.20000000E+00  1.50000000E+00  1.20000000E+00  1.20000000E+00
  1.50000000E+00  1.20000000E+00  1.20000000E+00  1.50000000E+00  1.20000000E+00
  1.20000000E+00  1.50000000E+00  1.20000000E+00  1.20000000E+00  1.50000000E+00
  1.20000000E+00  1.20000000E+00  1.50000000E+00  1.20000000E+00  1.20000000E+00
  1.50000000E+00  1.20000000E+00  1.20000000E+00  1.50000000E+00  1.20000000E+00
  1.20000000E+00  1.50000000E+00  1.20000000E+00  1.20000000E+00  1.50000000E+00
  1.20000000E+00  1.20000000E+00  1.50000000E+00  1.20000000E+00  1.20000000E+00
  1.50000000E+00  1.20000000E+00  1.20000000E+00  1.50000000E+00  1.20000000E+00
  1.20000000E+00  1.50000000E+00  1.20000000E+00  1.20000000E+00  1.50000000E+00
  1.20000000E+00  1.20000000E+00  1.50000000E+00  1.20000000E+00  1.20000000E+00
  1.50000000E+00  1.20000000E+00  1.20000000E+00  1.50000000E+00  1.20000000E+00
  1.20000000E+00  1.50000000E+00  1.20000000E+00  1.20000000E+00  1.50000000E+00
  1.20000000E+00  1.20000000E+00  1.50000000E+00  1.20000000E+00  1.20000000E+00
  1.50000000E+00  1.20000000E+00  1.20000000E+00  1.50000000E+00  1.20000000E+00
  1.20000000E+00  1.50000000E+00  1.20000000E+00  1.20000000E+00  1.50000000E+00
  1.20000000E+00  1.20000000E+00  1.50000000E+00  1.20000000E+00  1.20000000E+00
  1.50000000E+00  1.20000000E+00  1.20000000E+00  1.50000000E+00  1.20000000E+00
  1.20000000E+00  1.50000000E+00  1.20000000E+00  1.20000000E+00  1.50000000E+00
  1.20000000E+00  1.20000000E+00  1.50000000E+00  1.20000000E+00  1.20000000E+00
  1.50000000E+00  1.20000000E+00  1.20000000E+00  1.50000000E+00  1.20000000E+00
  1.20000000E+00  1.50000000E+00  1.20000000E+00  1.20000000E+00  1.50000000E+00
  1.20000000E+00  1.20000000E+00  1.50000000E+00  1.20000000E+00  1.20000000E+00
  1.50000000E+00  1.20000000E+00  1.20000000E+00  1.50000000E+00  1.20000000E+00
  1.20000000E+00  1.50000000E+00  1.20000000E+00  1.20000000E+00  1.50000000E+00
  1.20000000E+00  1.20000000E+00  1.50000000E+00  1.20000000E+00  1.20000000E+00
  1.50000000E+00  1.20000000E+00  1.20000000E+00  1.50000000E+00  1.20000000E+00
  1.20000000E+00  1.50000000E+00  1.20000000E+00  1.20000000E+00  1.50000000E+00
  1.20000000E+00  1.20000000E+00  1.50000000E+00  1.20000000E+00  1.20000000E+00
  1.50000000E+00  1.20000000E+00  1.20000000E+00  1.50000000E+00  1.20000000E+00
  1.20000000E+00  1.50000000E+00  1.20000000E+00  1.20000000E+00  1.50000000E+00
  1.20000000E+00  1.20000000E+00  1.50000000E+00  1.20000000E+00  1.20000000E+00
  1.50000000E+00  1.20000000E+00  1.20000000E+00  1.50000000E+00  1.20000000E+00
  1.20000000E+00  1.50000000E+00  1.20000000E+00  1.20000000E+00  1.50000000E+00
  1.20000000E+00  1.20000000E+00  1.50000000E+00  1.20000000E+00  1.20000000E+00
  1.50000000E+00  1.20000000E+00  1.20000000E+00  1.50000000E+00  1.20000000E+00
  1.20000000E+00  1.50000000E+00  1.20000000E+00  1.20000000E+00  1.50000000E+00
  1.20000000E+00  1.20000000E+00  1.50000000E+00  1.20000000E+00  1.20000000E+00
  1.50000000E+00  1.20000000E+00  1.20000000E+00  1.50000000E+00  1.20000000E+00
  1.20000000E+00  1.50000000E+00  1.20000000E+00  1.20000000E+00  1.50000000E+00
  1.20000000E+00  1.20000000E+00  1.50000000E+00  1.20000000E+00  1.20000000E+00
  1.50000000E+00  1.20000000E+00  1.20000000E+00  1.50000000E+00  1.20000000E+00
  1.20000000E+00  1.50000000E+00  1.20000000E+00  1.20000000E+00  1.50000000E+00
  1.20000000E+00  1.20000000E+00  1.50000000E+00  1.20000000E+00  1.20000000E+00
  1.50000000E+00  1.20000000E+00  1.20000000E+00  1.50000000E+00  1.20000000E+00
  1.20000000E+00  1.50000000E+00  1.20000000E+00  1.20000000E+00  1.50000000E+00
  1.20000000E+00  1.20000000E+00  1.50000000E+00  1.20000000E+00  1.20000000E+00
  1.50000000E+00  1.20000000E+00  1.20000000E+00  1.50000000E+00  1.20000000E+00
  1.20000000E+00  1.50000000E+00  1.20000000E+00  1.20000000E+00  1.50000000E+00
  1.20000000E+00  1.20000000E+00  1.50000000E+00  1.20000000E+00  1.20000000E+00
  1.50000000E+00  1.20000000E+00  1.20000000E+00  1.50000000E+00  1.20000000E+00
  1.20000000E+00  1.50000000E+00  1.20000000E+00  1.20000000E+00  1.50000000E+00
  1.20000000E+00  1.20000000E+00  1.50000000E+00  1.20000000E+00  1.20000000E+00
  1.50000000E+00  1.20000000E+00  1.20000000E+00  1.50000000E+00  1.20000000E+00
  1.20000000E+00  1.50000000E+00  1.20000000E+00  1.20000000E+00  1.50000000E+00
  1.20000000E+00  1.20000000E+00  1.50000000E+00  1.20000000E+00  1.20000000E+00
  1.50000000E+00  1.20000000E+00  1.20000000E+00  1.50000000E+00  1.20000000E+00
  1.20000000E+00  1.50000000E+00  1.20000000E+00  1.20000000E+00  1.50000000E+00
  1.20000000E+00  1.20000000E+00  1.50000000E+00  1.20000000E+00  1.20000000E+00
  1.50000000E+00  1.20000000E+00  1.20000000E+00  1.50000000E+00  1.20000000E+00
  1.20000000E+00  1.50000000E+00  1.20000000E+00  1.20000000E+00  1.50000000E+00
  1.20000000E+00  1.20000000E+00  1.50000000E+00  1.20000000E+00  1.20000000E+00
  1.50000000E+00  1.20000000E+00  1.20000000E+00  1.50000000E+00  1.20000000E+00
  1.20000000E+00  1.50000000E+00  1.20000000E+00  1.20000000E+00  1.50000000E+00
  1.20000000E+00  1.20000000E+00  1.50000000E+00  1.20000000E+00  1.20000000E+00
  1.50000000E+00  1.20000000E+00  1.20000000E+00  1.50000000E+00  1.20000000E+00
  1.20000000E+00  1.50000000E+00  1.20000000E+00  1.20000000E+00  1.50000000E+00
  1.20000000E+00  1.20000000E+00  1.50000000E+00  1.20000000E+00  1.20000000E+00
  1.50000000E+00  1.20000000E+00  1.20000000E+00  1.50000000E+00  1.20000000E+00
  1.20000000E+00  1.50000000E+00  1.20000000E+00  1.20000000E+00  1.50000000E+00
  1.20000000E+00  1.20000000E+00  1.50000000E+00  1.20000000E+00  1.20000000E+00
  1.50000000E+00  1.20000000E+00  1.20000000E+00  1.50000000E+00  1.20000000E+00
  1.20000000E+00  1.50000000E+00  1.20000000E+00  1.20000000E+00  1.50000000E+00
  1.20000000E+00  1.20000000E+00  1.50000000E+00  1.20000000E+00  1.20000000E+00
  1.50000000E+00  1.20000000E+00  1.20000000E+00  1.50000000E+00  1.20000000E+00
  1.20000000E+00  1.50000000E+00  1.20000000E+00  1.20000000E+00  1.50000000E+00
  1.20000000E+00  1.20000000E+00  1.50000000E+00  1.20000000E+00  1.20000000E+00
  1.50000000E+00  1.20000000E+00  1.20000000E+00  1.50000000E+00  1.20000000E+00
  1.20000000E+00  1.50000000E+00  1.20000000E+00  1.20000000E+00  1.50000000E+00
  1.20000000E+00  1.20000000E+00  1.50000000E+00  1.20000000E+00  1.20000000E+00
  1.50000000E+00  1.20000000E+00  1.20000000E+00  1.50000000E+00  1.20000000E+00
  1.20000000E+00  1.50000000E+00  1.20000000E+00  1.20000000E+00  1.50000000E+00
  1.20000000E+00  1.20000000E+00  1.50000000E+00  1.20000000E+00  1.20000000E+00
  1.50000000E+00  1.20000000E+00  1.20000000E+00  1.50000000E+00  1.20000000E+00
  1.20000000E+00  1.50000000E+00  1.20000000E+00  1.20000000E+00  1.50000000E+00
  1.20000000E+00  1.20000000E+00  1.50000000E+00  1.20000000E+00  1.20000000E+00
  1.50000000E+00  1.20000000E+00  1.20000000E+00  1.50000000E+00  1.20000000E+00
  1.20000000E+00  1.50000000E+00  1.20000000E+00  1.20000000E+00  1.50000000E+00
  1.20000000E+00  1.20000000E+00  1.50000000E+00  1.20000000E+00  1.20000000E+00
  1.50000000E+00  1.20000000E+00  1.20000000E+00  1.50000000E+00  1.20000000E+00
  1.20000000E+00  1.50000000E+00  1.20000000E+00  1.20000000E+00  1.50000000E+00
  1.20000000E+00  1.20000000E+00  1.50000000E+00  1.20000000E+00  1.20000000E+00
  1.50000000E+00  1.20000000E+00  1.20000000E+00  1.50000000E+00  1.20000000E+00
  1.20000000E+00  1.50000000E+00  1.20000000E+00  1.20000000E+00  1.50000000E+00
  1.20000000E+00  1.20000000E+00  1.50000000E+00  1.20000000E+00  1.20000000E+00
  1.50000000E+00  1.20000000E+00  1.20000000E+00  1.50000000E+00  1.20000000E+00
  1.20000000E+00  1.50000000E+00  1.20000000E+00  1.20000000E+00  1.50000000E+00
  1.20000000E+00  1.20000000E+00  1.50000000E+00  1.20000000E+00  1.20000000E+00
  1.50000000E+00  1.20000000E+00  1.20000000E+00  1.50000000E+00  1.20000000E+00
  1.20000000E+00  1.50000000E+00  1.20000000E+00  1.20000000E+00  1.50000000E+00
  1.20000000E+00  1.20000000E+00  1.50000000E+00  1.20000000E+00  1.20000000E+00
  1.50000000E+00  1.20000000E+00  1.20000000E+00  1.50000000E+00  1.20000000E+00
  1.20000000E+00  1.50000000E+00  1.20000000E+00  1.20000000E+00  1.50000000E+00
  1.20000000E+00  1.20000000E+00  1.50000000E+00  1.20000000E+00  1.20000000E+00
  1.50000000E+00  1.20000000E+00  1.20000000E+00  1.50000000E+00  1.20000000E+00
  1.20000000E+00  1.50000000E+00  1.20000000E+00  1.20000000E+00  1.50000000E+00
  1.20000000E+00  1.20000000E+00  1.50000000E+00  1.20000000E+00  1.20000000E+00
  1.50000000E+00  1.20000000E+00  1.20000000E+00  1.50000000E+00  1.20000000E+00
  1.20000000E+00  1.50000000E+00  1.20000000E+00  1.20000000E+00  1.50000000E+00
  1.20000000E+00  1.20000000E+00  1.50000000E+00  1.20000000E+00  1.20000000E+00
  1.50000000E+00  1.20000000E+00  1.20000000E+00  1.50000000E+00  1.20000000E+00
  1.20000000E+00  1.50000000E+00  1.20000000E+00  1.20000000E+00  1.50000000E+00
  1.20000000E+00  1.20000000E+00  1.50000000E+00  1.20000000E+00  1.20000000E+00
  1.50000000E+00  1.20000000E+00  1.20000000E+00  1.50000000E+00  1.20000000E+00
  1.20000000E+00  1.50000000E+00  1.20000000E+00  1.20000000E+00  1.50000000E+00
  1.20000000E+00  1.20000000E+00  1.50000000E+00  1.20000000E+00  1.20000000E+00
  1.50000000E+00  1.20000000E+00  1.20000000E+00  1.50000000E+00  1.20000000E+00
  1.20000000E+00  1.50000000E+00  1.20000000E+00  1.20000000E+00  1.50000000E+00
  1.20000000E+00  1.20000000E+00  1.50000000E+00  1.20000000E+00  1.20000000E+00
  1.50000000E+00  1.20000000E+00  1.20000000E+00  1.50000000E+00  1.20000000E+00
  1.20000000E+00  1.50000000E+00  1.20000000E+00  1.20000000E+00  1.50000000E+00
  1.20000000E+00  1.20000000E+00  1.50000000E+00  1.20000000E+00  1.20000000E+00
  1.50000000E+00  1.20000000E+00  1.20000000E+00  1.50000000E+00  1.20000000E+00
  1.20000000E+00  1.50000000E+00  1.20000000E+00  1.20000000E+00  1.50000000E+00
  1.20000000E+00  1.20000000E+00  1.50000000E+00  1.20000000E+00  1.20000000E+00
  1.50000000E+00  1.20000000E+00  1.20000000E+00  1.50000000E+00  1.20000000E+00
  1.20000000E+00  1.50000000E+00  1.20000000E+00  1.20000000E+00  1.50000000E+00
  1.20000000E+00  1.20000000E+00  1.50000000E+00  1.20000000E+00  1.20000000E+00
  1.50000000E+00  1.20000000E+00  1.20000000E+00  1.50000000E+00  1.20000000E+00
  1.20000000E+00  1.50000000E+00  1.20000000E+00  1.20000000E+00  1.50000000E+00
  1.20000000E+00  1.20000000E+00  1.50000000E+00  1.20000000E+00  1.20000000E+00
  1.50000000E+00  1.20000000E+00  1.20000000E+00  1.50000000E+00  1.20000000E+00
  1.20000000E+00  1.50000000E+00  1.20000000E+00  1.20000000E+00  1.50000000E+00
  1.20000000E+00  1.20000000E+00  1.50000000E+00  1.20000000E+00  1.20000000E+00
  1.50000000E+00  1.20000000E+00  1.20000000E+00  1.50000000E+00  1.20000000E+00
  1.20000000E+00  1.50000000E+00  1.20000000E+00  1.20000000E+00  1.50000000E+00
  1.20000000E+00  1.20000000E+00  1.50000000E+00  1.20000000E+00  1.20000000E+00
  1.50000000E+00  1.20000000E+00  1.20000000E+00  1.50000000E+00  1.20000000E+00
  1.20000000E+00  1.50000000E+00  1.20000000E+00  1.20000000E+00  1.50000000E+00
  1.20000000E+00  1.20000000E+00  1.50000000E+00  1.20000000E+00  1.20000000E+00
  1.50000000E+00  1.20000000E+00  1.20000000E+00  1.50000000E+00  1.20000000E+00
  1.20000000E+00  1.50000000E+00  1.20000000E+00  1.20000000E+00  1.50000000E+00
  1.20000000E+00  1.20000000E+00  1.50000000E+00  1.20000000E+00  1.20000000E+00
  1.50000000E+00  1.20000000E+00  1.20000000E+00  1.50000000E+00  1.20000000E+00
  1.20000000E+00  1.50000000E+00  1.20000000E+00  1.20000000E+00  1.50000000E+00
  1.20000000E+00  1.20000000E+00  1.50000000E+00  1.20000000E+00  1.20000000E+00
  1.50000000E+00  1.20000000E+00  1.20000000E+00  1.50000000E+00  1.20000000E+00
  1.20000000E+00  1.50000000E+00  1.20000000E+00  1.20000000E+00  1.50000000E+00
  1.20000000E+00  1.20000000E+00  1.50000000E+00  1.20000000E+00  1.20000000E+00
  1.50000000E+00  1.20000000E+00  1.20000000E+00  1.50000000E+00  1.20000000E+00
  1.20000000E+00  1.50000000E+00  1.20000000E+00  1.20000000E+00  1.50000000E+00
  1.20000000E+00  1.20000000E+00  1.50000000E+00  1.20000000E+00  1.20000000E+00
  1.50000000E+00  1.20000000E+00  1.20000000E+00  1.50000000E+00  1.20000000E+00
  1.20000000E+00  1.50000000E+00  1.20000000E+00  1.20000000E+00  1.50000000E+00
  1.20000000E+00  1.20000000E+00  1.50000000E+00  1.20000000E+00  1.20000000E+00
  1.50000000E+00  1.20000000E+00  1.20000000E+00  1.50000000E+00  1.20000000E+00
  1.20000000E+00  1.50000000E+00  1.20000000E+00  1.20000000E+00  1.50000000E+00
  1.20000000E+00  1.20000000E+00  1.50000000E+00  1.20000000E+00  1.20000000E+00
  1.50000000E+00  1.20000000E+00  1.20000000E+00  1.50000000E+00  1.20000000E+00
  1.20000000E+00  1.50000000E+00  1.20000000E+00  1.20000000E+00  1.50000000E+00
  1.20000000E+00  1.20000000E+00  1.50000000E+00  1.20000000E+00  1.20000000E+00
  1.50000000E+00  1.20000000E+00  1.20000000E+00  1.50000000E+00  1.20000000E+00
  1.20000000E+00  1.50000000E+00  1.20000000E+00  1.20000000E+00  1.50000000E+00
  1.20000000E+00  1.20000000E+00  1.50000000E+00  1.20000000E+00  1.20000000E+00
  1.50000000E+00  1.20000000E+00  1.20000000E+00  1.50000000E+00  1.20000000E+00
  1.20000000E+00  1.50000000E+00  1.20000000E+00  1.20000000E+00  1.50000000E+00
  1.20000000E+00  1.20000000E+00  1.50000000E+00  1.20000000E+00  1.20000000E+00
  1.50000000E+00  1.20000000E+00  1.20000000E+00  1.50000000E+00  1.20000000E+00
  1.20000000E+00  1.50000000E+00  1.20000000E+00  1.20000000E+00  1.50000000E+00
  1.20000000E+00  1.20000000E+00  1.50000000E+00  1.20000000E+00  1.20000000E+00
  1.50000000E+00  1.20000000E+00  1.20000000E+00  1.50000000E+00  1.20000000E+00
  1.20000000E+00  1.50000000E+00  1.20000000E+00  1.20000000E+00  1.50000000E+00
  1.20000000E+00  1.20000000E+00  1.50000000E+00  1.20000000E+00  1.20000000E+00
  1.50000000E+00  1.20000000E+00  1.20000000E+00  1.50000000E+00  1.20000000E+00
  1.20000000E+00  1.50000000E+00  1.20000000E+00  1.20000000E+00  1.50000000E+00
  1.20000000E+00  1.20000000E+00  1.50000000E+00  1.20000000E+00  1.20000000E+00
  1.50000000E+00  1.20000000E+00  1.20000000E+00  1.50000000E+00  1.20000000E+00
  1.20000000E+00  1.50000000E+00  1.20000000E+00  1.20000000E+00  1.50000000E+00
  1.20000000E+00  1.20000000E+00  1.50000000E+00  1.20000000E+00  1.20000000E+00
  1.50000000E+00  1.20000000E+00  1.20000000E+00  1.50000000E+00  1.20000000E+00
  1.20000000E+00  1.50000000E+00  1.20000000E+00  1.20000000E+00  1.50000000E+00
  1.20000000E+00  1.20000000E+00  1.50000000E+00  1.20000000E+00  1.20000000E+00
  1.50000000E+00  1.20000000E+00  1.20000000E+00  1.50000000E+00  1.20000000E+00
  1.20000000E+00  1.50000000E+00  1.20000000E+00  1.20000000E+00  1.50000000E+00
  1.20000000E+00  1.20000000E+00  1.50000000E+00  1.20000000E+00  1.20000000E+00
  1.50000000E+00  1.20000000E+00  1.20000000E+00  1.50000000E+00  1.20000000E+00
  1.20000000E+00  1.50000000E+00  1.20000000E+00  1.20000000E+00  1.50000000E+00
  1.20000000E+00  1.20000000E+00  1.50000000E+00  1.20000000E+00  1.20000000E+00
  1.50000000E+00  1.20000000E+00  1.20000000E+00  1.50000000E+00  1.20000000E+00
  1.20000000E+00  1.50000000E+00  1.20000000E+00  1.20000000E+00  1.50000000E+00
  1.20000000E+00  1.20000000E+00  1.50000000E+00  1.20000000E+00  1.20000000E+00
  1.50000000E+00  1.20000000E+00  1.20000000E+00  1.50000000E+00  1.20000000E+00
  1.20000000E+00  1.50000000E+00  1.20000000E+00  1.20000000E+00  1.50000000E+00
  1.20000000E+00  1.20000000E+00  1.50000000E+00  1.20000000E+00  1.20000000E+00
  1.50000000E+00  1.20000000E+00  1.20000000E+00  1.50000000E+00  1.20000000E+00
  1.20000000E+00  1.50000000E+00  1.20000000E+00  1.20000000E+00  1.50000000E+00
  1.20000000E+00  1.20000000E+00  1.50000000E+00  1.20000000E+00  1.20000000E+00
  1.50000000E+00  1.20000000E+00  1.20000000E+00  1.50000000E+00  1.20000000E+00
  1.20000000E+00  1.50000000E+00  1.20000000E+00  1.20000000E+00  1.50000000E+00
  1.20000000E+00  1.20000000E+00  1.50000000E+00  1.20000000E+00  1.20000000E+00
  1.50000000E+00  1.20000000E+00  1.20000000E+00  1.50000000E+00  1.20000000E+00
  1.20000000E+00  1.50000000E+00  1.20000000E+00  1.20000000E+00  1.50000000E+00
  1.20000000E+00  1.20000000E+00  1.50000000E+00  1.20000000E+00  1.20000000E+00
  1.50000000E+00  1.20000000E+00  1.20000000E+00  1.50000000E+00  1.20000000E+00
  1.20000000E+00  1.50000000E+00  1.20000000E+00  1.20000000E+00  1.50000000E+00
  1.20000000E+00  1.20000000E+00  1.50000000E+00  1.20000000E+00  1.20000000E+00
  1.50000000E+00  1.20000000E+00  1.20000000E+00  1.50000000E+00  1.20000000E+00
  1.20000000E+00  1.50000000E+00  1.20000000E+00  1.20000000E+00  1.50000000E+00
  1.20000000E+00  1.20000000E+00  1.50000000E+00  1.20000000E+00  1.20000000E+00
  1.50000000E+00  1.20000000E+00  1.20000000E+00  1.50000000E+00  1.20000000E+00
  1.20000000E+00  1.50000000E+00  1.20000000E+00  1.20000000E+00  1.50000000E+00
  1.20000000E+00  1.20000000E+00  1.50000000E+00  1.20000000E+00  1.20000000E+00
  1.50000000E+00  1.20000000E+00  1.20000000E+00  1.50000000E+00  1.20000000E+00
  1.20000000E+00  1.50000000E+00  1.20000000E+00  1.20000000E+00  1.50000000E+00
  1.20000000E+00  1.20000000E+00  1.50000000E+00  1.20000000E+00  1.20000000E+00
  1.50000000E+00  1.20000000E+00  1.20000000E+00  1.50000000E+00  1.20000000E+00
  1.20000000E+00  1.50000000E+00  1.20000000E+00  1.20000000E+00  1.50000000E+00
  1.20000000E+00  1.20000000E+00  1.50000000E+00  1.20000000E+00  1.20000000E+00
  1.50000000E+00  1.20000000E+00  1.20000000E+00  1.50000000E+00  1.20000000E+00
  1.20000000E+00  1.50000000E+00  1.20000000E+00  1.20000000E+00  1.50000000E+00
  1.20000000E+00  1.20000000E+00  1.50000000E+00  1.20000000E+00  1.20000000E+00
  1.50000000E+00  1.20000000E+00  1.20000000E+00  1.50000000E+00  1.20000000E+00
  1.20000000E+00  1.50000000E+00  1.20000000E+00  1.20000000E+00  1.50000000E+00
  1.20000000E+00  1.20000000E+00  1.50000000E+00  1.20000000E+00  1.20000000E+00
  1.50000000E+00  1.20000000E+00  1.20000000E+00  1.50000000E+00  1.20000000E+00
  1.20000000E+00  1.50000000E+00  1.20000000E+00  1.20000000E+00  1.50000000E+00
  1.20000000E+00  1.20000000E+00  1.50000000E+00  1.20000000E+00  1.20000000E+00
  1.50000000E+00  1.20000000E+00  1.20000000E+00  1.50000000E+00  1.20000000E+00
  1.20000000E+00  1.50000000E+00  1.20000000E+00  1.20000000E+00  1.50000000E+00
  1.20000000E+00  1.20000000E+00  1.50000000E+00  1.20000000E+00  1.20000000E+00
  1.50000000E+00  1.20000000E+00  1.20000000E+00  1.50000000E+00  1.20000000E+00
  1.20000000E+00  1.50000000E+00  1.20000000E+00  1.20000000E+00  1.50000000E+00
  1.20000000E+00  1.20000000E+00  1.50000000E+00  1.20000000E+00  1.20000000E+00
  1.50000000E+00  1.20000000E+00  1.20000000E+00  1.50000000E+00  1.20000000E+00
  1.20000000E+00  1.50000000E+00  1.20000000E+00  1.20000000E+00  1.50000000E+00
  1.20000000E+00  1.20000000E+00  1.50000000E+00  1.20000000E+00  1.20000000E+00
  1.50000000E+00  1.20000000E+00  1.20000000E+00  1.50000000E+00  1.20000000E+00
  1.20000000E+00  1.50000000E+00  1.20000000E+00  1.20000000E+00  1.50000000E+00
  1.20000000E+00  1.20000000E+00  1.50000000E+00  1.20000000E+00  1.20000000E+00
  1.50000000E+00  1.20000000E+00  1.20000000E+00  1.50000000E+00  1.20000000E+00
  1.20000000E+00  1.50000000E+00  1.20000000E+00  1.20000000E+00  1.50000000E+00
  1.20000000E+00  1.20000000E+00  1.50000000E+00  1.20000000E+00  1.20000000E+00
  1.50000000E+00  1.20000000E+00  1.20000000E+00  1.50000000E+00  1.20000000E+00
  1.20000000E+00  1.50000000E+00  1.20000000E+00  1.20000000E+00  1.50000000E+00
  1.20000000E+00  1.20000000E+00  1.50000000E+00  1.20000000E+00  1.20000000E+00
  1.50000000E+00  1.20000000E+00  1.20000000E+00  1.50000000E+00  1.20000000E+00
  1.20000000E+00  1.50000000E+00  1.20000000E+00  1.20000000E+00  1.50000000E+00
  1.20000000E+00  1.20000000E+00  1.50000000E+00  1.20000000E+00  1.20000000E+00
  1.50000000E+00  1.20000000E+00  1.20000000E+00  1.50000000E+00  1.20000000E+00
  1.20000000E+00  1.50000000E+00  1.20000000E+00  1.20000000E+00  1.50000000E+00
  1.20000000E+00  1.20000000E+00  1.50000000E+00  1.20000000E+00  1.20000000E+00
  1.50000000E+00  1.20000000E+00  1.20000000E+00  1.50000000E+00  1.20000000E+00
  1.20000000E+00  1.50000000E+00  1.20000000E+00  1.20000000E+00  1.50000000E+00
  1.20000000E+00  1.20000000E+00  1.50000000E+00  1.20000000E+00  1.20000000E+00
  1.50000000E+00  1.20000000E+00  1.20000000E+00  1.50000000E+00  1.20000000E+00
  1.20000000E+00  1.50000000E+00  1.20000000E+00  1.20000000E+00  1.50000000E+00
  1.20000000E+00  1.20000000E+00  1.50000000E+00  1.20000000E+00  1.20000000E+00
  1.50000000E+00  1.20000000E+00  1.20000000E+00  1.50000000E+00  1.20000000E+00
  1.20000000E+00  1.50000000E+00  1.20000000E+00  1.20000000E+00  1.50000000E+00
  1.20000000E+00  1.20000000E+00  1.50000000E+00  1.20000000E+00  1.20000000E+00
  1.50000000E+00  1.20000000E+00  1.20000000E+00  1.50000000E+00  1.20000000E+00
  1.20000000E+00  1.50000000E+00  1.20000000E+00  1.20000000E+00  1.50000000E+00
  1.20000000E+00  1.20000000E+00  1.50000000E+00  1.20000000E+00  1.20000000E+00
  1.50000000E+00  1.20000000E+00  1.20000000E+00  1.50000000E+00  1.20000000E+00
  1.20000000E+00  1.50000000E+00  1.20000000E+00  1.20000000E+00  1.50000000E+00
  1.20000000E+00  1.20000000E+00  1.50000000E+00  1.20000000E+00  1.20000000E+00
  1.50000000E+00  1.20000000E+00  1.20000000E+00  1.50000000E+00  1.20000000E+00
  1.20000000E+00  1.50000000E+00  1.20000000E+00  1.20000000E+00  1.50000000E+00
  1.20000000E+00  1.20000000E+00  1.50000000E+00  1.20000000E+00  1.20000000E+00
  1.50000000E+00  1.20000000E+00  1.20000000E+00  1.50000000E+00  1.20000000E+00
  1.20000000E+00  1.50000000E+00  1.20000000E+00  1.20000000E+00  1.50000000E+00
  1.20000000E+00  1.20000000E+00  1.50000000E+00  1.20000000E+00  1.20000000E+00
  1.50000000E+00  1.20000000E+00  1.20000000E+00  1.50000000E+00  1.20000000E+00
  1.20000000E+00  1.50000000E+00  1.20000000E+00  1.20000000E+00  1.50000000E+00
  1.20000000E+00  1.20000000E+00  1.50000000E+00  1.20000000E+00  1.20000000E+00
  1.50000000E+00  1.20000000E+00  1.20000000E+00  1.50000000E+00  1.20000000E+00
  1.20000000E+00  1.50000000E+00  1.20000000E+00  1.20000000E+00  1.50000000E+00
  1.20000000E+00  1.20000000E+00  1.50000000E+00  1.20000000E+00  1.20000000E+00
  1.50000000E+00  1.20000000E+00  1.20000000E+00  1.50000000E+00  1.20000000E+00
  1.20000000E+00  1.50000000E+00  1.20000000E+00  1.20000000E+00  1.50000000E+00
  1.20000000E+00  1.20000000E+00  1.50000000E+00  1.20000000E+00  1.20000000E+00
  1.50000000E+00  1.20000000E+00  1.20000000E+00  1.50000000E+00  1.20000000E+00
  1.20000000E+00  1.50000000E+00  1.20000000E+00  1.20000000E+00  1.50000000E+00
  1.20000000E+00  1.20000000E+00  1.50000000E+00  1.20000000E+00  1.20000000E+00
  1.50000000E+00  1.20000000E+00  1.20000000E+00  1.50000000E+00  1.20000000E+00
  1.20000000E+00  1.50000000E+00  1.20000000E+00  1.20000000E+00  1.50000000E+00
  1.20000000E+00  1.20000000E+00  1.50000000E+00  1.20000000E+00  1.20000000E+00
  1.50000000E+00  1.20000000E+00  1.20000000E+00  1.50000000E+00  1.20000000E+00
  1.20000000E+00  1.50000000E+00  1.20000000E+00  1.20000000E+00  1.50000000E+00
  1.20000000E+00  1.20000000E+00  1.50000000E+00  1.20000000E+00  1.20000000E+00
  1.50000000E+00  1.20000000E+00  1.20000000E+00  1.50000000E+00  1.20000000E+00
  1.20000000E+00  1.50000000E+00  1.20000000E+00  1.20000000E+00  1.50000000E+00
  1.20000000E+00  1.20000000E+00  1.50000000E+00  1.20000000E+00  1.20000000E+00
  1.50000000E+00  1.20000000E+00  1.20000000E+00  1.50000000E+00  1.20000000E+00
  1.20000000E+00  1.50000000E+00  1.20000000E+00  1.20000000E+00  1.50000000E+00
  1.20000000E+00  1.20000000E+00  1.50000000E+00  1.20000000E+00  1.20000000E+00
  1.50000000E+00  1.20000000E+00  1.20000000E+00  1.50000000E+00  1.20000000E+00
  1.20000000E+00  1.50000000E+00  1.20000000E+00  1.20000000E+00  1.50000000E+00
  1.20000000E+00  1.20000000E+00  1.50000000E+00  1.20000000E+00  1.20000000E+00
  1.50000000E+00  1.20000000E+00  1.20000000E+00  1.50000000E+00  1.20000000E+00
  1.20000000E+00  1.50000000E+00  1.20000000E+00  1.20000000E+00  1.50000000E+00
  1.20000000E+00  1.20000000E+00  1.50000000E+00  1.20000000E+00  1.20000000E+00
  1.50000000E+00  1.20000000E+00  1.20000000E+00  1.50000000E+00  1.20000000E+00
  1.20000000E+00  1.50000000E+00  1.20000000E+00  1.20000000E+00  1.50000000E+00
  1.20000000E+00  1.20000000E+00  1.50000000E+00  1.20000000E+00  1.20000000E+00
  1.50000000E+00  1.20000000E+00  1.20000000E+00  1.50000000E+00  1.20000000E+00
  1.20000000E+00  1.50000000E+00  1.20000000E+00  1.20000000E+00  1.50000000E+00
  1.20000000E+00  1.20000000E+00  1.50000000E+00  1.20000000E+00  1.20000000E+00
  1.50000000E+00  1.20000000E+00  1.20000000E+00  1.50000000E+00  1.20000000E+00
  1.20000000E+00  1.50000000E+00  1.20000000E+00  1.20000000E+00  1.50000000E+00
  1.20000000E+00  1.20000000E+00  1.50000000E+00  1.20000000E+00  1.20000000E+00
  1.50000000E+00  1.20000000E+00  1.20000000E+00  1.50000000E+00  1.20000000E+00
  1.20000000E+00  1.50000000E+00  1.20000000E+00  1.20000000E+00  1.50000000E+00
  1.20000000E+00  1.20000000E+00  1.50000000E+00  1.20000000E+00  1.20000000E+00
  1.50000000E+00  1.20000000E+00  1.20000000E+00  1.50000000E+00  1.20000000E+00
  1.20000000E+00  1.50000000E+00  1.20000000E+00  1.20000000E+00  1.50000000E+00
  1.20000000E+00  1.20000000E+00  1.50000000E+00  1.20000000E+00  1.20000000E+00
  1.50000000E+00  1.20000000E+00  1.20000000E+00  1.50000000E+00  1.20000000E+00
  1.20000000E+00  1.50000000E+00  1.20000000E+00  1.20000000E+00  1.50000000E+00
  1.20000000E+00  1.20000000E+00  1.50000000E+00  1.20000000E+00  1.20000000E+00
  1.50000000E+00  1.20000000E+00  1.20000000E+00  1.50000000E+00  1.20000000E+00
  1.20000000E+00  1.50000000E+00  1.20000000E+00  1.20000000E+00  1.50000000E+00
  1.20000000E+00  1.20000000E+00  1.50000000E+00  1.20000000E+00  1.20000000E+00
  1.50000000E+00  1.20000000E+00  1.20000000E+00  1.50000000E+00  1.20000000E+00
  1.20000000E+00  1.50000000E+00  1.20000000E+00  1.20000000E+00  1.50000000E+00
  1.20000000E+00  1.20000000E+00  1.50000000E+00  1.20000000E+00  1.20000000E+00
  1.50000000E+00  1.20000000E+00  1.20000000E+00  1.50000000E+00  1.20000000E+00
  1.20000000E+00  1.50000000E+00  1.20000000E+00  1.20000000E+00  1.50000000E+00
  1.20000000E+00  1.20000000E+00  1.50000000E+00  1.20000000E+00  1.20000000E+00
  1.50000000E+00  1.20000000E+00  1.20000000E+00  1.50000000E+00  1.20000000E+00
  1.20000000E+00  1.50000000E+00  1.20000000E+00  1.20000000E+00  1.50000000E+00
  1.20000000E+00  1.20000000E+00  1.50000000E+00  1.20000000E+00  1.20000000E+00
  1.50000000E+00  1.20000000E+00  1.20000000E+00  1.50000000E+00  1.20000000E+00
  1.20000000E+00  1.50000000E+00  1.20000000E+00  1.20000000E+00  1.50000000E+00
  1.20000000E+00  1.20000000E+00  1.50000000E+00  1.20000000E+00  1.20000000E+00
  1.50000000E+00  1.20000000E+00  1.20000000E+00  1.50000000E+00  1.20000000E+00
  1.20000000E+00  1.50000000E+00  1.20000000E+00  1.20000000E+00  1.50000000E+00
  1.20000000E+00  1.20000000E+00  1.50000000E+00  1.20000000E+00  1.20000000E+00
  1.50000000E+00  1.20000000E+00  1.20000000E+00  1.50000000E+00  1.20000000E+00
  1.20000000E+00  1.50000000E+00  1.20000000E+00  1.20000000E+00  1.50000000E+00
  1.20000000E+00  1.20000000E+00  1.50000000E+00  1.20000000E+00  1.20000000E+00
  1.50000000E+00  1.20000000E+00  1.20000000E+00  1.50000000E+00  1.20000000E+00
  1.20000000E+00  1.50000000E+00  1.20000000E+00  1.20000000E+00  1.50000000E+00
  1.20000000E+00  1.20000000E+00  1.50000000E+00  1.20000000E+00  1.20000000E+00
  1.50000000E+00  1.20000000E+00  1.20000000E+00  1.50000000E+00  1.20000000E+00
  1.20000000E+00  1.50000000E+00  1.20000000E+00  1.20000000E+00  1.50000000E+00
  1.20000000E+00  1.20000000E+00  1.50000000E+00  1.20000000E+00  1.20000000E+00
  1.50000000E+00  1.20000000E+00  1.20000000E+00  1.50000000E+00  1.20000000E+00
  1.20000000E+00  1.50000000E+00  1.20000000E+00  1.20000000E+00  1.50000000E+00
  1.20000000E+00  1.20000000E+00  1.50000000E+00  1.20000000E+00  1.20000000E+00
  1.50000000E+00  1.20000000E+00  1.20000000E+00  1.50000000E+00  1.20000000E+00
  1.20000000E+00  1.50000000E+00  1.20000000E+00  1.20000000E+00  1.50000000E+00
  1.20000000E+00  1.20000000E+00  1.50000000E+00  1.20000000E+00  1.20000000E+00
  1.50000000E+00  1.20000000E+00  1.20000000E+00  1.50000000E+00  1.20000000E+00
  1.20000000E+00  1.50000000E+00  1.20000000E+00  1.20000000E+00  1.50000000E+00
  1.20000000E+00  1.20000000E+00  1.50000000E+00  1.20000000E+00  1.20000000E+00
  1.50000000E+00  1.20000000E+00  1.20000000E+00  1.50000000E+00  1.20000000E+00
  1.20000000E+00  1.50000000E+00  1.20000000E+00  1.20000000E+00  1.50000000E+00
  1.20000000E+00  1.20000000E+00  1.50000000E+00  1.20000000E+00  1.20000000E+00
  1.50000000E+00  1.20000000E+00  1.20000000E+00  1.50000000E+00  1.20000000E+00
  1.20000000E+00  1.50000000E+00  1.20000000E+00  1.20000000E+00  1.50000000E+00
  1.20000000E+00  1.20000000E+00  1.50000000E+00  1.20000000E+00  1.20000000E+00
  1.50000000E+00  1.20000000E+00  1.20000000E+00  1.50000000E+00  1.20000000E+00
  1.20000000E+00  1.50000000E+00  1.20000000E+00  1.20000000E+00  1.50000000E+00
  1.20000000E+00  1.20000000E+00  1.50000000E+00  1.20000000E+00  1.20000000E+00
  1.50000000E+00  1.20000000E+00  1.20000000E+00  1.50000000E+00  1.20000000E+00
  1.20000000E+00  1.50000000E+00  1.20000000E+00  1.20000000E+00  1.50000000E+00
  1.20000000E+00  1.20000000E+00  1.50000000E+00  1.20000000E+00  1.20000000E+00
  1.50000000E+00  1.20000000E+00  1.20000000E+00  1.50000000E+00  1.20000000E+00
  1.20000000E+00  1.50000000E+00  1.20000000E+00  1.20000000E+00  1.50000000E+00
  1.20000000E+00  1.20000000E+00  1.50000000E+00  1.20000000E+00  1.20000000E+00
  1.50000000E+00  1.20000000E+00  1.20000000E+00  1.50000000E+00  1.20000000E+00
  1.20000000E+00  1.50000000E+00  1.20000000E+00  1.20000000E+00  1.50000000E+00
  1.20000000E+00  1.20000000E+00  1.50000000E+00  1.20000000E+00  1.20000000E+00
  1.50000000E+00  1.20000000E+00  1.20000000E+00  1.50000000E+00  1.20000000E+00
  1.20000000E+00  1.50000000E+00  1.20000000E+00  1.20000000E+00  1.50000000E+00
  1.20000000E+00  1.20000000E+00  1.50000000E+00  1.20000000E+00  1.20000000E+00
  1.50000000E+00  1.20000000E+00  1.20000000E+00  1.50000000E+00  1.20000000E+00
  1.20000000E+00  1.50000000E+00  1.20000000E+00  1.20000000E+00  1.50000000E+00
  1.20000000E+00  1.20000000E+00  1.50000000E+00  1.20000000E+00  1.20000000E+00
  1.50000000E+00  1.20000000E+00  1.20000000E+00  1.50000000E+00  1.20000000E+00
  1.20000000E+00  1.50000000E+00  1.20000000E+00  1.20000000E+00  1.50000000E+00
  1.20000000E+00  1.20000000E+00  1.50000000E+00  1.20000000E+00  1.20000000E+00
  1.50000000E+00  1.20000000E+00  1.20000000E+00  1.50000000E+00  1.20000000E+00
  1.20000000E+00  1.50000000E+00  1.20000000E+00  1.20000000E+00  1.50000000E+00
  1.20000000E+00  1.20000000E+00  1.50000000E+00  1.20000000E+00  1.20000000E+00
  1.50000000E+00  1.20000000E+00  1.20000000E+00  1.50000000E+00  1.20000000E+00
  1.20000000E+00  1.50000000E+00  1.20000000E+00  1.20000000E+00  1.50000000E+00
  1.20000000E+00  1.20000000E+00  1.50000000E+00  1.20000000E+00  1.20000000E+00
  1.50000000E+00  1.20000000E+00  1.20000000E+00  1.50000000E+00  1.20000000E+00
  1.20000000E+00  1.50000000E+00  1.20000000E+00  1.20000000E+00  1.50000000E+00
  1.20000000E+00  1.20000000E+00  1.50000000E+00  1.20000000E+00  1.20000000E+00
  1.50000000E+00  1.20000000E+00  1.20000000E+00  1.50000000E+00  1.20000000E+00
  1.20000000E+00  1.50000000E+00  1.20000000E+00  1.20000000E+00  1.50000000E+00
  1.20000000E+00  1.20000000E+00  1.50000000E+00  1.20000000E+00  1.20000000E+00
  1.50000000E+00  1.20000000E+00  1.20000000E+00  1.50000000E+00  1.20000000E+00
  1.20000000E+00  1.50000000E+00  1.20000000E+00  1.20000000E+00  1.50000000E+00
  1.20000000E+00  1.20000000E+00  1.50000000E+00  1.20000000E+00  1.20000000E+00
  1.50000000E+00  1.20000000E+00  1.20000000E+00  1.50000000E+00  1.20000000E+00
  1.20000000E+00  1.50000000E+00  1.20000000E+00  1.20000000E+00  1.50000000E+00
  1.20000000E+00  1.20000000E+00  1.50000000E+00  1.20000000E+00  1.20000000E+00
  1.50000000E+00  1.20000000E+00  1.20000000E+00  1.50000000E+00  1.20000000E+00
  1.20000000E+00  1.50000000E+00  1.20000000E+00  1.20000000E+00  1.50000000E+00
  1.20000000E+00  1.20000000E+00  1.50000000E+00  1.20000000E+00  1.20000000E+00
  1.50000000E+00  1.20000000E+00  1.20000000E+00  1.50000000E+00  1.20000000E+00
  1.20000000E+00  1.50000000E+00  1.20000000E+00  1.20000000E+00  1.50000000E+00
  1.20000000E+00  1.20000000E+00  1.50000000E+00  1.20000000E+00  1.20000000E+00
  1.50000000E+00  1.20000000E+00  1.20000000E+00  1.50000000E+00  1.20000000E+00
  1.20000000E+00  1.50000000E+00  1.20000000E+00  1.20000000E+00  1.50000000E+00
  1.20000000E+00  1.20000000E+00  1.50000000E+00  1.20000000E+00  1.20000000E+00
  1.50000000E+00  1.20000000E+00  1.20000000E+00  1.50000000E+00  1.20000000E+00
  1.20000000E+00  1.50000000E+00  1.20000000E+00  1.20000000E+00  1.50000000E+00
  1.20000000E+00  1.20000000E+00  1.50000000E+00  1.20000000E+00  1.20000000E+00
  1.50000000E+00  1.20000000E+00  1.20000000E+00  1.50000000E+00  1.20000000E+00
  1.20000000E+00  1.50000000E+00  1.20000000E+00  1.20000000E+00  1.50000000E+00
  1.20000000E+00  1.20000000E+00  1.50000000E+00  1.20000000E+00  1.20000000E+00
  1.50000000E+00  1.20000000E+00  1.20000000E+00  1.50000000E+00  1.20000000E+00
  1.20000000E+00  1.50000000E+00  1.20000000E+00  1.20000000E+00  1.50000000E+00
  1.20000000E+00  1.20000000E+00  1.50000000E+00  1.20000000E+00  1.20000000E+00
  1.50000000E+00  1.20000000E+00  1.20000000E+00  1.50000000E+00  1.20000000E+00
  1.20000000E+00  1.50000000E+00  1.20000000E+00  1.20000000E+00  1.50000000E+00
  1.20000000E+00  1.20000000E+00  1.50000000E+00  1.20000000E+00  1.20000000E+00
  1.50000000E+00  1.20000000E+00  1.20000000E+00  1.50000000E+00  1.20000000E+00
  1.20000000E+00  1.50000000E+00  1.20000000E+00  1.20000000E+00  1.50000000E+00
  1.20000000E+00  1.20000000E+00  1.50000000E+00  1.20000000E+00  1.20000000E+00
  1.50000000E+00  1.20000000E+00  1.20000000E+00  1.50000000E+00  1.20000000E+00
  1.20000000E+00  1.50000000E+00  1.20000000E+00  1.20000000E+00  1.50000000E+00
  1.20000000E+00  1.20000000E+00  1.50000000E+00  1.20000000E+00  1.20000000E+00
  1.50000000E+00  1.20000000E+00  1.20000000E+00  1.50000000E+00  1.20000000E+00
  1.20000000E+00  1.50000000E+00  1.20000000E+00  1.20000000E+00  1.50000000E+00
  1.20000000E+00  1.20000000E+00  1.50000000E+00  1.20000000E+00  1.20000000E+00
  1.50000000E+00  1.20000000E+00  1.20000000E+00  1.50000000E+00  1.20000000E+00
  1.20000000E+00  1.50000000E+00  1.20000000E+00  1.20000000E+00  1.50000000E+00
  1.20000000E+00  1.20000000E+00  1.50000000E+00  1.20000000E+00  1.20000000E+00
  1.50000000E+00  1.20000000E+00  1.20000000E+00  1.50000000E+00  1.20000000E+00
  1.20000000E+00  1.50000000E+00  1.20000000E+00  1.20000000E+00  1.50000000E+00
  1.20000000E+00  1.20000000E+00  1.50000000E+00  1.20000000E+00  1.20000000E+00
  1.50000000E+00  1.20000000E+00  1.20000000E+00  1.50000000E+00  1.20000000E+00
  1.20000000E+00  1.50000000E+00  1.20000000E+00  1.20000000E+00  1.50000000E+00
  1.20000000E+00  1.20000000E+00  1.50000000E+00  1.20000000E+00  1.20000000E+00
  1.50000000E+00  1.20000000E+00  1.20000000E+00  1.50000000E+00  1.20000000E+00
  1.20000000E+00  1.50000000E+00  1.20000000E+00  1.20000000E+00  1.50000000E+00
  1.20000000E+00  1.20000000E+00  1.50000000E+00  1.20000000E+00  1.20000000E+00
  1.50000000E+00  1.20000000E+00  1.20000000E+00  1.50000000E+00  1.20000000E+00
  1.20000000E+00  1.50000000E+00  1.20000000E+00  1.20000000E+00  1.50000000E+00
  1.20000000E+00  1.20000000E+00  1.50000000E+00  1.20000000E+00  1.20000000E+00
  1.50000000E+00  1.20000000E+00  1.20000000E+00  1.50000000E+00  1.20000000E+00
  1.20000000E+00  1.50000000E+00  1.20000000E+00  1.20000000E+00  1.50000000E+00
  1.20000000E+00  1.20000000E+00  1.50000000E+00  1.20000000E+00  1.20000000E+00
  1.50000000E+00  1.20000000E+00  1.20000000E+00  1.50000000E+00  1.20000000E+00
  1.20000000E+00  1.50000000E+00  1.20000000E+00  1.20000000E+00  1.50000000E+00
  1.20000000E+00  1.20000000E+00  1.50000000E+00  1.20000000E+00  1.20000000E+00
  1.50000000E+00  1.20000000E+00  1.20000000E+00  1.50000000E+00  1.20000000E+00
  1.20000000E+00  1.50000000E+00  1.20000000E+00  1.20000000E+00  1.50000000E+00
  1.20000000E+00  1.20000000E+00  1.50000000E+00  1.20000000E+00  1.20000000E+00
  1.50000000E+00  1.20000000E+00  1.20000000E+00  1.50000000E+00  1.20000000E+00
  1.20000000E+00  1.50000000E+00  1.20000000E+00  1.20000000E+00  1.50000000E+00
  1.20000000E+00  1.20000000E+00  1.50000000E+00  1.20000000E+00  1.20000000E+00
  1.50000000E+00  1.20000000E+00  1.20000000E+00  1.50000000E+00  1.20000000E+00
  1.20000000E+00  1.50000000E+00  1.20000000E+00  1.20000000E+00  1.50000000E+00
  1.20000000E+00  1.20000000E+00  1.50000000E+00  1.20000000E+00  1.20000000E+00
  1.50000000E+00  1.20000000E+00  1.20000000E+00  1.50000000E+00  1.20000000E+00
  1.20000000E+00  1.50000000E+00  1.20000000E+00  1.20000000E+00  1.50000000E+00
  1.20000000E+00  1.20000000E+00  1.50000000E+00  1.20000000E+00  1.20000000E+00
  1.50000000E+00  1.20000000E+00  1.20000000E+00  1.50000000E+00  1.20000000E+00
  1.20000000E+00  1.50000000E+00  1.20000000E+00  1.20000000E+00  1.50000000E+00
  1.20000000E+00  1.20000000E+00  1.50000000E+00  1.20000000E+00  1.20000000E+00
  1.50000000E+00  1.20000000E+00  1.20000000E+00  1.50000000E+00  1.20000000E+00
  1.20000000E+00  1.50000000E+00  1.20000000E+00  1.20000000E+00  1.50000000E+00
  1.20000000E+00  1.20000000E+00  1.50000000E+00  1.20000000E+00  1.20000000E+00
  1.50000000E+00  1.20000000E+00  1.20000000E+00  1.50000000E+00  1.20000000E+00
  1.20000000E+00  1.50000000E+00  1.20000000E+00  1.20000000E+00  1.50000000E+00
  1.20000000E+00  1.20000000E+00  1.50000000E+00  1.20000000E+00  1.20000000E+00
  1.50000000E+00  1.20000000E+00  1.20000000E+00  1.50000000E+00  1.20000000E+00
  1.20000000E+00  1.50000000E+00  1.20000000E+00  1.20000000E+00  1.50000000E+00
  1.20000000E+00  1.20000000E+00  1.50000000E+00  1.20000000E+00  1.20000000E+00
  1.50000000E+00  1.20000000E+00  1.20000000E+00  1.50000000E+00  1.20000000E+00
  1.20000000E+00  1.50000000E+00  1.20000000E+00  1.20000000E+00  1.50000000E+00
  1.20000000E+00  1.20000000E+00  1.50000000E+00  1.20000000E+00  1.20000000E+00
  1.50000000E+00  1.20000000E+00  1.20000000E+00  1.50000000E+00  1.20000000E+00
  1.20000000E+00  1.50000000E+00  1.20000000E+00  1.20000000E+00  1.50000000E+00
  1.20000000E+00  1.20000000E+00  1.50000000E+00  1.20000000E+00  1.20000000E+00
  1.50000000E+00  1.20000000E+00  1.20000000E+00  1.50000000E+00  1.20000000E+00
  1.20000000E+00  1.50000000E+00  1.20000000E+00  1.20000000E+00  1.50000000E+00
  1.20000000E+00  1.20000000E+00  1.50000000E+00  1.20000000E+00  1.20000000E+00
  1.50000000E+00  1.20000000E+00  1.20000000E+00  1.50000000E+00  1.20000000E+00
  1.20000000E+00  1.50000000E+00  1.20000000E+00  1.20000000E+00  1.50000000E+00
  1.20000000E+00  1.20000000E+00  1.50000000E+00  1.20000000E+00  1.20000000E+00
  1.50000000E+00  1.20000000E+00  1.20000000E+00  1.50000000E+00  1.20000000E+00
  1.20000000E+00  1.50000000E+00  1.20000000E+00  1.20000000E+00  1.50000000E+00
  1.20000000E+00  1.20000000E+00  1.50000000E+00  1.20000000E+00  1.20000000E+00
  1.50000000E+00  1.20000000E+00  1.20000000E+00  1.50000000E+00  1.20000000E+00
  1.20000000E+00  1.50000000E+00  1.20000000E+00  1.20000000E+00  1.50000000E+00
  1.20000000E+00  1.20000000E+00  1.50000000E+00  1.20000000E+00  1.20000000E+00
  1.50000000E+00  1.20000000E+00  1.20000000E+00  1.50000000E+00  1.20000000E+00
  1.20000000E+00  1.50000000E+00  1.20000000E+00  1.20000000E+00  1.50000000E+00
  1.20000000E+00  1.20000000E+00  1.50000000E+00  1.20000000E+00  1.20000000E+00
  1.50000000E+00  1.20000000E+00  1.20000000E+00  1.50000000E+00  1.20000000E+00
  1.20000000E+00  1.50000000E+00  1.20000000E+00  1.20000000E+00  1.50000000E+00
  1.20000000E+00  1.20000000E+00  1.50000000E+00  1.20000000E+00  1.20000000E+00
  1.50000000E+00  1.20000000E+00  1.20000000E+00  1.50000000E+00  1.20000000E+00
  1.20000000E+00  1.50000000E+00  1.20000000E+00  1.20000000E+00  1.50000000E+00
  1.20000000E+00  1.20000000E+00  1.50000000E+00  1.20000000E+00  1.20000000E+00
  1.50000000E+00  1.20000000E+00  1.20000000E+00  1.50000000E+00  1.20000000E+00
  1.20000000E+00  1.50000000E+00  1.20000000E+00  1.20000000E+00  1.50000000E+00
  1.20000000E+00  1.20000000E+00  1.50000000E+00  1.20000000E+00  1.20000000E+00
  1.50000000E+00  1.20000000E+00  1.20000000E+00  1.50000000E+00  1.20000000E+00
  1.20000000E+00  1.50000000E+00  1.20000000E+00  1.20000000E+00  1.50000000E+00
  1.20000000E+00  1.20000000E+00  1.50000000E+00  1.20000000E+00  1.20000000E+00
  1.50000000E+00  1.20000000E+00  1.20000000E+00  1.50000000E+00  1.20000000E+00
  1.20000000E+00  1.50000000E+00  1.20000000E+00  1.20000000E+00  1.50000000E+00
  1.20000000E+00  1.20000000E+00  1.50000000E+00  1.20000000E+00  1.20000000E+00
  1.50000000E+00  1.20000000E+00  1.20000000E+00  1.50000000E+00  1.20000000E+00
  1.20000000E+00  1.50000000E+00  1.20000000E+00  1.20000000E+00  1.50000000E+00
  1.20000000E+00  1.20000000E+00  1.50000000E+00  1.20000000E+00  1.20000000E+00
  1.50000000E+00  1.20000000E+00  1.20000000E+00  1.50000000E+00  1.20000000E+00
  1.20000000E+00  1.50000000E+00  1.20000000E+00  1.20000000E+00  1.50000000E+00
  1.20000000E+00  1.20000000E+00  1.50000000E+00  1.20000000E+00  1.20000000E+00
  1.50000000E+00  1.20000000E+00  1.20000000E+00  1.50000000E+00  1.20000000E+00
  1.20000000E+00  1.50000000E+00  1.20000000E+00  1.20000000E+00  1.50000000E+00
  1.20000000E+00  1.20000000E+00  1.50000000E+00  1.20000000E+00  1.20000000E+00
  1.50000000E+00  1.20000000E+00  1.20000000E+00  1.50000000E+00  1.20000000E+00
  1.20000000E+00  1.50000000E+00  1.20000000E+00  1.20000000E+00  1.50000000E+00
  1.20000000E+00  1.20000000E+00  1.50000000E+00  1.20000000E+00  1.20000000E+00
  1.50000000E+00  1.20000000E+00  1.20000000E+00  1.50000000E+00  1.20000000E+00
  1.20000000E+00  1.50000000E+00  1.20000000E+00  1.20000000E+00  1.50000000E+00
  1.20000000E+00  1.20000000E+00  1.50000000E+00  1.20000000E+00  1.20000000E+00
  1.50000000E+00  1.20000000E+00  1.20000000E+00  1.50000000E+00  1.20000000E+00
  1.20000000E+00  1.50000000E+00  1.20000000E+00  1.20000000E+00  1.50000000E+00
  1.20000000E+00  1.20000000E+00  1.50000000E+00  1.20000000E+00  1.20000000E+00
  1.50000000E+00  1.20000000E+00  1.20000000E+00  1.50000000E+00  1.20000000E+00
  1.20000000E+00  1.50000000E+00  1.20000000E+00  1.20000000E+00  1.50000000E+00
  1.20000000E+00  1.20000000E+00  1.50000000E+00  1.20000000E+00  1.20000000E+00
  1.50000000E+00  1.20000000E+00  1.20000000E+00  1.50000000E+00  1.20000000E+00
  1.20000000E+00  1.50000000E+00  1.20000000E+00  1.20000000E+00  1.50000000E+00
  1.20000000E+00  1.20000000E+00  1.50000000E+00  1.20000000E+00  1.20000000E+00
  1.50000000E+00  1.20000000E+00  1.20000000E+00  1.50000000E+00  1.20000000E+00
  1.20000000E+00  1.50000000E+00  1.20000000E+00  1.20000000E+00  1.50000000E+00
  1.20000000E+00  1.20000000E+00  1.50000000E+00  1.20000000E+00  1.20000000E+00
  1.50000000E+00  1.20000000E+00  1.20000000E+00  1.50000000E+00  1.20000000E+00
  1.20000000E+00  1.50000000E+00  1.20000000E+00  1.20000000E+00  1.50000000E+00
  1.20000000E+00  1.20000000E+00  1.50000000E+00  1.20000000E+00  1.20000000E+00
  1.50000000E+00  1.20000000E+00  1.20000000E+00  1.50000000E+00  1.20000000E+00
  1.20000000E+00  1.50000000E+00  1.20000000E+00  1.20000000E+00  1.50000000E+00
  1.20000000E+00  1.20000000E+00  1.50000000E+00  1.20000000E+00  1.20000000E+00
  1.50000000E+00  1.20000000E+00  1.20000000E+00  1.50000000E+00  1.20000000E+00
  1.20000000E+00  1.50000000E+00  1.20000000E+00  1.20000000E+00  1.50000000E+00
  1.20000000E+00  1.20000000E+00  1.50000000E+00  1.20000000E+00  1.20000000E+00
  1.50000000E+00  1.20000000E+00  1.20000000E+00  1.50000000E+00  1.20000000E+00
  1.20000000E+00  1.50000000E+00  1.20000000E+00  1.20000000E+00  1.50000000E+00
  1.20000000E+00  1.20000000E+00  1.50000000E+00  1.20000000E+00  1.20000000E+00
  1.50000000E+00  1.20000000E+00  1.20000000E+00  1.50000000E+00  1.20000000E+00
  1.20000000E+00  1.50000000E+00  1.20000000E+00  1.20000000E+00  1.50000000E+00
  1.20000000E+00  1.20000000E+00  1.50000000E+00  1.20000000E+00  1.20000000E+00
  1.50000000E+00  1.20000000E+00  1.20000000E+00  1.50000000E+00  1.20000000E+00
  1.20000000E+00  1.50000000E+00  1.20000000E+00  1.20000000E+00  1.50000000E+00
  1.20000000E+00  1.20000000E+00  1.50000000E+00  1.20000000E+00  1.20000000E+00
  1.50000000E+00  1.20000000E+00  1.20000000E+00  1.50000000E+00  1.20000000E+00
  1.20000000E+00  1.50000000E+00  1.20000000E+00  1.20000000E+00  1.50000000E+00
  1.20000000E+00  1.20000000E+00  1.50000000E+00  1.20000000E+00  1.20000000E+00
  1.50000000E+00  1.20000000E+00  1.20000000E+00  1.50000000E+00  1.20000000E+00
  1.20000000E+00  1.50000000E+00  1.20000000E+00  1.20000000E+00  1.50000000E+00
  1.20000000E+00  1.20000000E+00  1.50000000E+00  1.20000000E+00  1.20000000E+00
  1.50000000E+00  1.20000000E+00  1.20000000E+00  1.50000000E+00  1.20000000E+00
  1.20000000E+00  1.50000000E+00  1.20000000E+00  1.20000000E+00  1.50000000E+00
  1.20000000E+00  1.20000000E+00  1.50000000E+00  1.20000000E+00  1.20000000E+00
  1.50000000E+00  1.20000000E+00  1.20000000E+00  1.50000000E+00  1.20000000E+00
  1.20000000E+00  1.50000000E+00  1.20000000E+00  1.20000000E+00  1.50000000E+00
  1.20000000E+00  1.20000000E+00  1.50000000E+00  1.20000000E+00  1.20000000E+00
  1.50000000E+00  1.20000000E+00  1.20000000E+00  1.50000000E+00  1.20000000E+00
  1.20000000E+00  1.50000000E+00  1.20000000E+00  1.20000000E+00  1.50000000E+00
  1.20000000E+00  1.20000000E+00  1.50000000E+00  1.20000000E+00  1.20000000E+00
  1.50000000E+00  1.20000000E+00  1.20000000E+00  1.50000000E+00  1.20000000E+00
  1.20000000E+00  1.50000000E+00  1.20000000E+00  1.20000000E+00  1.50000000E+00
  1.20000000E+00  1.20000000E+00  1.50000000E+00  1.20000000E+00  1.20000000E+00
  1.50000000E+00  1.20000000E+00  1.20000000E+00  1.50000000E+00  1.20000000E+00
  1.20000000E+00  1.50000000E+00  1.20000000E+00  1.20000000E+00  1.50000000E+00
  1.20000000E+00  1.20000000E+00  1.50000000E+00  1.20000000E+00  1.20000000E+00
  1.50000000E+00  1.20000000E+00  1.20000000E+00  1.50000000E+00  1.20000000E+00
  1.20000000E+00  1.50000000E+00  1.20000000E+00  1.20000000E+00  1.50000000E+00
  1.20000000E+00  1.20000000E+00  1.50000000E+00  1.20000000E+00  1.20000000E+00
  1.50000000E+00  1.20000000E+00  1.20000000E+00  1.50000000E+00  1.20000000E+00
  1.20000000E+00  1.50000000E+00  1.20000000E+00  1.20000000E+00  1.50000000E+00
  1.20000000E+00  1.20000000E+00  1.50000000E+00  1.20000000E+00  1.20000000E+00
  1.50000000E+00  1.20000000E+00  1.20000000E+00  1.50000000E+00  1.20000000E+00
  1.20000000E+00  1.50000000E+00  1.20000000E+00  1.20000000E+00  1.50000000E+00
  1.20000000E+00  1.20000000E+00  1.50000000E+00  1.20000000E+00  1.20000000E+00
  1.50000000E+00  1.20000000E+00  1.20000000E+00  1.50000000E+00  1.20000000E+00
  1.20000000E+00  1.50000000E+00  1.20000000E+00  1.20000000E+00  1.50000000E+00
  1.20000000E+00  1.20000000E+00  1.50000000E+00  1.20000000E+00  1.20000000E+00
  1.50000000E+00  1.20000000E+00  1.20000000E+00  1.50000000E+00  1.20000000E+00
  1.20000000E+00  1.50000000E+00  1.20000000E+00  1.20000000E+00  1.50000000E+00
  1.20000000E+00  1.20000000E+00  1.50000000E+00  1.20000000E+00  1.20000000E+00
  1.50000000E+00  1.20000000E+00  1.20000000E+00  1.50000000E+00  1.20000000E+00
  1.20000000E+00  1.50000000E+00  1.20000000E+00  1.20000000E+00  1.50000000E+00
  1.20000000E+00  1.20000000E+00  1.50000000E+00  1.20000000E+00  1.20000000E+00
  1.50000000E+00  1.20000000E+00  1.20000000E+00  1.50000000E+00  1.20000000E+00
  1.20000000E+00  1.50000000E+00  1.20000000E+00  1.20000000E+00  1.50000000E+00
  1.20000000E+00  1.20000000E+00  1.50000000E+00  1.20000000E+00  1.20000000E+00
  1.50000000E+00  1.20000000E+00  1.20000000E+00  1.50000000E+00  1.20000000E+00
  1.20000000E+00  1.50000000E+00  1.20000000E+00  1.20000000E+00  1.50000000E+00
  1.20000000E+00  1.20000000E+00  1.50000000E+00  1.20000000E+00  1.20000000E+00
  1.50000000E+00  1.20000000E+00  1.20000000E+00  1.50000000E+00  1.20000000E+00
  1.20000000E+00  1.50000000E+00  1.20000000E+00  1.20000000E+00  1.50000000E+00
  1.20000000E+00  1.20000000E+00  1.50000000E+00  1.20000000E+00  1.20000000E+00
  1.50000000E+00  1.20000000E+00  1.20000000E+00  1.50000000E+00  1.20000000E+00
  1.20000000E+00  1.50000000E+00  1.20000000E+00  1.20000000E+00  1.50000000E+00
  1.20000000E+00  1.20000000E+00  1.50000000E+00  1.20000000E+00  1.20000000E+00
  1.50000000E+00  1.20000000E+00  1.20000000E+00  1.50000000E+00  1.20000000E+00
  1.20000000E+00  1.50000000E+00  1.20000000E+00  1.20000000E+00  1.50000000E+00
  1.20000000E+00  1.20000000E+00  1.50000000E+00  1.20000000E+00  1.20000000E+00
  1.50000000E+00  1.20000000E+00  1.20000000E+00  1.50000000E+00  1.20000000E+00
  1.20000000E+00  1.50000000E+00  1.20000000E+00  1.20000000E+00  1.50000000E+00
  1.20000000E+00  1.20000000E+00  1.50000000E+00  1.20000000E+00  1.20000000E+00
  1.50000000E+00  1.20000000E+00  1.20000000E+00  1.50000000E+00  1.20000000E+00
  1.20000000E+00  1.50000000E+00  1.20000000E+00  1.20000000E+00  1.50000000E+00
  1.20000000E+00  1.20000000E+00  1.50000000E+00  1.20000000E+00  1.20000000E+00
  1.50000000E+00  1.20000000E+00  1.20000000E+00  1.50000000E+00  1.20000000E+00
  1.20000000E+00  1.50000000E+00  1.20000000E+00  1.20000000E+00  1.50000000E+00
  1.20000000E+00  1.20000000E+00  1.50000000E+00  1.20000000E+00  1.20000000E+00
  1.50000000E+00  1.20000000E+00  1.20000000E+00  1.50000000E+00  1.20000000E+00
  1.20000000E+00  1.50000000E+00  1.20000000E+00  1.20000000E+00  1.50000000E+00
  1.20000000E+00  1.20000000E+00  1.50000000E+00  1.20000000E+00  1.20000000E+00
  1.50000000E+00  1.20000000E+00  1.20000000E+00  1.50000000E+00  1.20000000E+00
  1.20000000E+00  1.50000000E+00  1.20000000E+00  1.20000000E+00  1.50000000E+00
  1.20000000E+00  1.20000000E+00  1.50000000E+00  1.20000000E+00  1.20000000E+00
  1.50000000E+00  1.20000000E+00  1.20000000E+00  1.50000000E+00  1.20000000E+00
  1.20000000E+00  1.50000000E+00  1.20000000E+00  1.20000000E+00  1.50000000E+00
  1.20000000E+00  1.20000000E+00  1.50000000E+00  1.20000000E+00  1.20000000E+00
  1.50000000E+00  1.20000000E+00  1.20000000E+00  1.50000000E+00  1.20000000E+00
  1.20000000E+00  1.50000000E+00  1.20000000E+00  1.20000000E+00  1.50000000E+00
  1.20000000E+00  1.20000000E+00  1.50000000E+00  1.20000000E+00  1.20000000E+00
  1.50000000E+00  1.20000000E+00  1.20000000E+00  1.50000000E+00  1.20000000E+00
  1.20000000E+00  1.50000000E+00  1.20000000E+00  1.20000000E+00  1.50000000E+00
  1.20000000E+00  1.20000000E+00  1.50000000E+00  1.20000000E+00  1.20000000E+00
  1.50000000E+00  1.20000000E+00  1.20000000E+00  1.50000000E+00  1.20000000E+00
  1.20000000E+00  1.50000000E+00  1.20000000E+00  1.20000000E+00  1.50000000E+00
  1.20000000E+00  1.20000000E+00  1.50000000E+00  1.20000000E+00  1.20000000E+00
  1.50000000E+00  1.20000000E+00  1.20000000E+00  1.50000000E+00  1.20000000E+00
  1.20000000E+00  1.50000000E+00  1.20000000E+00  1.20000000E+00  1.50000000E+00
  1.20000000E+00  1.20000000E+00  1.50000000E+00  1.20000000E+00  1.20000000E+00
  1.50000000E+00  1.20000000E+00  1.20000000E+00  1.50000000E+00  1.20000000E+00
  1.20000000E+00  1.50000000E+00  1.20000000E+00  1.20000000E+00  1.50000000E+00
  1.20000000E+00  1.20000000E+00  1.50000000E+00  1.20000000E+00  1.20000000E+00
  1.50000000E+00  1.20000000E+00  1.20000000E+00  1.50000000E+00  1.20000000E+00
  1.20000000E+00  1.50000000E+00  1.20000000E+00  1.20000000E+00  1.50000000E+00
  1.20000000E+00  1.20000000E+00  1.50000000E+00  1.20000000E+00  1.20000000E+00
  1.50000000E+00  1.20000000E+00  1.20000000E+00  1.50000000E+00  1.20000000E+00
  1.20000000E+00  1.50000000E+00  1.20000000E+00  1.20000000E+00  1.50000000E+00
  1.20000000E+00  1.20000000E+00  1.50000000E+00  1.20000000E+00  1.20000000E+00
  1.50000000E+00  1.20000000E+00  1.20000000E+00  1.50000000E+00  1.20000000E+00
  1.20000000E+00  1.50000000E+00  1.20000000E+00  1.20000000E+00  1.50000000E+00
  1.20000000E+00  1.20000000E+00  1.50000000E+00  1.20000000E+00  1.20000000E+00
  1.50000000E+00  1.20000000E+00  1.20000000E+00  1.50000000E+00  1.20000000E+00
  1.20000000E+00  1.50000000E+00  1.20000000E+00  1.20000000E+00  1.50000000E+00
  1.20000000E+00  1.20000000E+00  1.50000000E+00  1.20000000E+00  1.20000000E+00
  1.50000000E+00  1.20000000E+00  1.20000000E+00  1.50000000E+00  1.20000000E+00
  1.20000000E+00  1.50000000E+00  1.20000000E+00  1.20000000E+00  1.50000000E+00
  1.20000000E+00  1.20000000E+00  1.50000000E+00  1.20000000E+00  1.20000000E+00
  1.50000000E+00  1.20000000E+00  1.20000000E+00  1.50000000E+00  1.20000000E+00
  1.20000000E+00  1.50000000E+00  1.20000000E+00  1.20000000E+00  1.50000000E+00
  1.20000000E+00  1.20000000E+00  1.50000000E+00  1.20000000E+00  1.20000000E+00
  1.50000000E+00  1.20000000E+00  1.20000000E+00  1.50000000E+00  1.20000000E+00
  1.20000000E+00  1.50000000E+00  1.20000000E+00  1.20000000E+00  1.50000000E+00
  1.20000000E+00  1.20000000E+00  1.50000000E+00  1.20000000E+00  1.20000000E+00
  1.50000000E+00  1.20000000E+00  1.20000000E+00  1.50000000E+00  1.20000000E+00
  1.20000000E+00  1.50000000E+00  1.20000000E+00  1.20000000E+00  1.50000000E+00
  1.20000000E+00  1.20000000E+00  1.50000000E+00  1.20000000E+00  1.20000000E+00
  1.50000000E+00  1.20000000E+00  1.20000000E+00  1.50000000E+00  1.20000000E+00
  1.20000000E+00  1.50000000E+00  1.20000000E+00  1.20000000E+00  1.50000000E+00
  1.20000000E+00  1.20000000E+00  1.50000000E+00  1.20000000E+00  1.20000000E+00
  1.50000000E+00  1.20000000E+00  1.20000000E+00  1.50000000E+00  1.20000000E+00
  1.20000000E+00  1.50000000E+00  1.20000000E+00  1.20000000E+00  1.50000000E+00
  1.20000000E+00  1.20000000E+00  1.50000000E+00  1.20000000E+00  1.20000000E+00
  1.50000000E+00  1.20000000E+00  1.20000000E+00  1.50000000E+00  1.20000000E+00
  1.20000000E+00  1.50000000E+00  1.20000000E+00  1.20000000E+00  1.50000000E+00
  1.20000000E+00  1.20000000E+00  1.50000000E+00  1.20000000E+00  1.20000000E+00
  1.50000000E+00  1.20000000E+00  1.20000000E+00  1.50000000E+00  1.20000000E+00
  1.20000000E+00  1.50000000E+00  1.20000000E+00  1.20000000E+00  1.50000000E+00
  1.20000000E+00  1.20000000E+00  1.50000000E+00  1.20000000E+00  1.20000000E+00
  1.50000000E+00  1.20000000E+00  1.20000000E+00  1.50000000E+00  1.20000000E+00
  1.20000000E+00  1.50000000E+00  1.20000000E+00  1.20000000E+00  1.50000000E+00
  1.20000000E+00  1.20000000E+00  1.50000000E+00  1.20000000E+00  1.20000000E+00
  1.50000000E+00  1.20000000E+00  1.20000000E+00  1.50000000E+00  1.20000000E+00
  1.20000000E+00  1.50000000E+00  1.20000000E+00  1.20000000E+00  1.50000000E+00
  1.20000000E+00  1.20000000E+00  1.50000000E+00  1.20000000E+00  1.20000000E+00
  1.50000000E+00  1.20000000E+00  1.20000000E+00  1.50000000E+00  1.20000000E+00
  1.20000000E+00  1.50000000E+00  1.20000000E+00  1.20000000E+00  1.50000000E+00
  1.20000000E+00  1.20000000E+00  1.50000000E+00  1.20000000E+00  1.20000000E+00
  1.50000000E+00  1.20000000E+00  1.20000000E+00  1.50000000E+00  1.20000000E+00
  1.20000000E+00  1.50000000E+00  1.20000000E+00  1.20000000E+00  1.50000000E+00
  1.20000000E+00  1.20000000E+00  1.50000000E+00  1.20000000E+00  1.20000000E+00
  1.50000000E+00  1.20000000E+00  1.20000000E+00  1.50000000E+00  1.20000000E+00
  1.20000000E+00  1.50000000E+00  1.20000000E+00  1.20000000E+00  1.50000000E+00
  1.20000000E+00  1.20000000E+00  1.50000000E+00  1.20000000E+00  1.20000000E+00
  1.50000000E+00  1.20000000E+00  1.20000000E+00  1.50000000E+00  1.20000000E+00
  1.20000000E+00  1.50000000E+00  1.20000000E+00  1.20000000E+00  1.50000000E+00
  1.20000000E+00  1.20000000E+00  1.50000000E+00  1.20000000E+00  1.20000000E+00
  1.50000000E+00  1.20000000E+00  1.20000000E+00  1.50000000E+00  1.20000000E+00
  1.20000000E+00  1.50000000E+00  1.20000000E+00  1.20000000E+00  1.50000000E+00
  1.20000000E+00  1.20000000E+00  1.50000000E+00  1.20000000E+00  1.20000000E+00
  1.50000000E+00  1.20000000E+00  1.20000000E+00  1.50000000E+00  1.20000000E+00
  1.20000000E+00  1.50000000E+00  1.20000000E+00  1.20000000E+00  1.50000000E+00
  1.20000000E+00  1.20000000E+00  1.50000000E+00  1.20000000E+00  1.20000000E+00
  1.50000000E+00  1.20000000E+00  1.20000000E+00  1.50000000E+00  1.20000000E+00
  1.20000000E+00  1.50000000E+00  1.20000000E+00  1.20000000E+00  1.50000000E+00
  1.20000000E+00  1.20000000E+00  1.50000000E+00  1.20000000E+00  1.20000000E+00
  1.50000000E+00  1.20000000E+00  1.20000000E+00  1.50000000E+00  1.20000000E+00
  1.20000000E+00  1.50000000E+00  1.20000000E+00  1.20000000E+00  1.50000000E+00
  1.20000000E+00  1.20000000E+00  1.50000000E+00  1.20000000E+00  1.20000000E+00
  1.50000000E+00  1.20000000E+00  1.20000000E+00  1.50000000E+00  1.20000000E+00
  1.20000000E+00  1.50000000E+00  1.20000000E+00  1.20000000E+00  1.50000000E+00
  1.20000000E+00  1.20000000E+00  1.50000000E+00  1.20000000E+00  1.20000000E+00
  1.50000000E+00  1.20000000E+00  1.20000000E+00  1.50000000E+00  1.20000000E+00
  1.20000000E+00  1.50000000E+00  1.20000000E+00  1.20000000E+00  1.50000000E+00
  1.20000000E+00  1.20000000E+00  1.50000000E+00  1.20000000E+00  1.20000000E+00
  1.50000000E+00  1.20000000E+00  1.20000000E+00  1.50000000E+00  1.20000000E+00
  1.20000000E+00  1.50000000E+00  1.20000000E+00  1.20000000E+00  1.50000000E+00
  1.20000000E+00  1.20000000E+00  1.50000000E+00  1.20000000E+00  1.20000000E+00
  1.50000000E+00  1.20000000E+00  1.20000000E+00  1.50000000E+00  1.20000000E+00
  1.20000000E+00  1.50000000E+00  1.20000000E+00  1.20000000E+00  1.50000000E+00
  1.20000000E+00  1.20000000E+00  1.50000000E+00  1.20000000E+00  1.20000000E+00
  1.50000000E+00  1.20000000E+00  1.20000000E+00  1.50000000E+00  1.20000000E+00
  1.20000000E+00  1.50000000E+00  1.20000000E+00  1.20000000E+00  1.50000000E+00
  1.20000000E+00  1.20000000E+00  1.50000000E+00  1.20000000E+00  1.20000000E+00
  1.50000000E+00  1.20000000E+00  1.20000000E+00  1.50000000E+00  1.20000000E+00
  1.20000000E+00  1.50000000E+00  1.20000000E+00  1.20000000E+00  1.50000000E+00
  1.20000000E+00  1.20000000E+00  1.50000000E+00  1.20000000E+00  1.20000000E+00
  1.50000000E+00  1.20000000E+00  1.20000000E+00  1.50000000E+00  1.20000000E+00
  1.20000000E+00  1.50000000E+00  1.20000000E+00  1.20000000E+00  1.50000000E+00
  1.20000000E+00  1.20000000E+00  1.50000000E+00  1.20000000E+00  1.20000000E+00
  1.50000000E+00  1.20000000E+00  1.20000000E+00  1.50000000E+00  1.20000000E+00
  1.20000000E+00  1.50000000E+00  1.20000000E+00  1.20000000E+00  1.50000000E+00
  1.20000000E+00  1.20000000E+00  1.50000000E+00  1.20000000E+00  1.20000000E+00
  1.50000000E+00  1.20000000E+00  1.20000000E+00  1.50000000E+00  1.20000000E+00
  1.20000000E+00  1.50000000E+00  1.20000000E+00  1.20000000E+00  1.50000000E+00
  1.20000000E+00  1.20000000E+00  1.50000000E+00  1.20000000E+00  1.20000000E+00
  1.50000000E+00  1.20000000E+00  1.20000000E+00  1.50000000E+00  1.20000000E+00
  1.20000000E+00  1.50000000E+00  1.20000000E+00  1.20000000E+00  1.50000000E+00
  1.20000000E+00  1.20000000E+00  1.50000000E+00  1.20000000E+00  1.20000000E+00
  1.50000000E+00  1.20000000E+00  1.20000000E+00  1.50000000E+00  1.20000000E+00
  1.20000000E+00  1.50000000E+00  1.20000000E+00  1.20000000E+00  1.50000000E+00
  1.20000000E+00  1.20000000E+00  1.50000000E+00  1.20000000E+00  1.20000000E+00
  1.50000000E+00  1.20000000E+00  1.20000000E+00  1.50000000E+00  1.20000000E+00
  1.20000000E+00  1.50000000E+00  1.20000000E+00  1.20000000E+00  1.50000000E+00
  1.20000000E+00  1.20000000E+00  1.50000000E+00  1.20000000E+00  1.20000000E+00
  1.50000000E+00  1.20000000E+00  1.20000000E+00  1.50000000E+00  1.20000000E+00
  1.20000000E+00  1.50000000E+00  1.20000000E+00  1.20000000E+00  1.50000000E+00
  1.20000000E+00  1.20000000E+00  1.50000000E+00  1.20000000E+00  1.20000000E+00
  1.50000000E+00  1.20000000E+00  1.20000000E+00  1.50000000E+00  1.20000000E+00
  1.20000000E+00  1.50000000E+00  1.20000000E+00  1.20000000E+00  1.50000000E+00
  1.20000000E+00  1.20000000E+00  1.50000000E+00  1.20000000E+00  1.20000000E+00
  1.50000000E+00  1.20000000E+00  1.20000000E+00  1.50000000E+00  1.20000000E+00
  1.20000000E+00  1.50000000E+00  1.20000000E+00  1.20000000E+00  1.50000000E+00
  1.20000000E+00  1.20000000E+00  1.50000000E+00  1.20000000E+00  1.20000000E+00
  1.50000000E+00  1.20000000E+00  1.20000000E+00  1.50000000E+00  1.20000000E+00
  1.20000000E+00  1.50000000E+00  1.20000000E+00  1.20000000E+00  1.50000000E+00
  1.20000000E+00  1.20000000E+00  1.50000000E+00  1.20000000E+00  1.20000000E+00
  1.50000000E+00  1.20000000E+00  1.20000000E+00  1.50000000E+00  1.20000000E+00
  1.20000000E+00  1.50000000E+00  1.20000000E+00  1.20000000E+00  1.50000000E+00
  1.20000000E+00  1.20000000E+00  1.50000000E+00  1.20000000E+00  1.20000000E+00
  1.50000000E+00  1.20000000E+00  1.20000000E+00  1.50000000E+00  1.20000000E+00
  1.20000000E+00  1.50000000E+00  1.20000000E+00  1.20000000E+00  1.50000000E+00
  1.20000000E+00  1.20000000E+00  1.50000000E+00  1.20000000E+00  1.20000000E+00
  1.50000000E+00  1.20000000E+00  1.20000000E+00  1.50000000E+00  1.20000000E+00
  1.20000000E+00  1.50000000E+00  1.20000000E+00  1.20000000E+00  1.50000000E+00
  1.20000000E+00  1.20000000E+00  1.50000000E+00  1.20000000E+00  1.20000000E+00
  1.50000000E+00  1.20000000E+00  1.20000000E+00  1.50000000E+00  1.20000000E+00
  1.20000000E+00  1.50000000E+00  1.20000000E+00  1.20000000E+00  1.50000000E+00
  1.20000000E+00  1.20000000E+00  1.50000000E+00  1.20000000E+00  1.20000000E+00
  1.50000000E+00  1.20000000E+00  1.20000000E+00  1.50000000E+00  1.20000000E+00
  1.20000000E+00  1.50000000E+00  1.20000000E+00  1.20000000E+00  1.50000000E+00
  1.20000000E+00  1.20000000E+00  1.50000000E+00  1.20000000E+00  1.20000000E+00
  1.50000000E+00  1.20000000E+00  1.20000000E+00  1.50000000E+00  1.20000000E+00
  1.20000000E+00  1.50000000E+00  1.20000000E+00  1.20000000E+00  1.50000000E+00
  1.20000000E+00  1.20000000E+00  1.50000000E+00  1.20000000E+00  1.20000000E+00
  1.50000000E+00  1.20000000E+00  1.20000000E+00  1.50000000E+00  1.20000000E+00
  1.20000000E+00  1.50000000E+00  1.20000000E+00  1.20000000E+00  1.50000000E+00
  1.20000000E+00  1.20000000E+00  1.50000000E+00  1.20000000E+00  1.20000000E+00
  1.50000000E+00  1.20000000E+00  1.20000000E+00  1.50000000E+00  1.20000000E+00
  1.20000000E+00  1.50000000E+00  1.20000000E+00  1.20000000E+00  1.50000000E+00
  1.20000000E+00  1.20000000E+00  1.50000000E+00  1.20000000E+00  1.20000000E+00
  1.50000000E+00  1.20000000E+00  1.20000000E+00  1.50000000E+00  1.20000000E+00
  1.20000000E+00  1.50000000E+00  1.20000000E+00  1.20000000E+00  1.50000000E+00
  1.20000000E+00  1.20000000E+00  1.50000000E+00  1.20000000E+00  1.20000000E+00
  1.50000000E+00  1.20000000E+00  1.20000000E+00  1.50000000E+00  1.20000000E+00
  1.20000000E+00  1.50000000E+00  1.20000000E+00  1.20000000E+00  1.50000000E+00
  1.20000000E+00  1.20000000E+00  1.50000000E+00  1.20000000E+00  1.20000000E+00
  1.50000000E+00  1.20000000E+00  1.20000000E+00  1.50000000E+00  1.20000000E+00
  1.20000000E+00  1.50000000E+00  1.20000000E+00  1.20000000E+00  1.50000000E+00
  1.20000000E+00  1.20000000E+00  1.50000000E+00  1.20000000E+00  1.20000000E+00
  1.50000000E+00  1.20000000E+00  1.20000000E+00  1.50000000E+00  1.20000000E+00
  1.20000000E+00  1.50000000E+00  1.20000000E+00  1.20000000E+00  1.50000000E+00
  1.20000000E+00  1.20000000E+00  1.50000000E+00  1.20000000E+00  1.20000000E+00
  1.50000000E+00  1.20000000E+00  1.20000000E+00  1.50000000E+00  1.20000000E+00
  1.20000000E+00  1.50000000E+00  1.20000000E+00  1.20000000E+00  1.50000000E+00
  1.20000000E+00  1.20000000E+00  1.50000000E+00  1.20000000E+00  1.20000000E+00
  1.50000000E+00  1.20000000E+00  1.20000000E+00  1.50000000E+00  1.20000000E+00
  1.20000000E+00  1.50000000E+00  1.20000000E+00  1.20000000E+00  1.50000000E+00
  1.20000000E+00  1.20000000E+00  1.50000000E+00  1.20000000E+00  1.20000000E+00
  1.50000000E+00  1.20000000E+00  1.20000000E+00  1.50000000E+00  1.20000000E+00
  1.20000000E+00  1.50000000E+00  1.20000000E+00  1.20000000E+00  1.50000000E+00
  1.20000000E+00  1.20000000E+00  1.50000000E+00  1.20000000E+00  1.20000000E+00
  1.50000000E+00  1.20000000E+00  1.20000000E+00  1.50000000E+00  1.20000000E+00
  1.20000000E+00  1.50000000E+00  1.20000000E+00  1.20000000E+00  1.50000000E+00
  1.20000000E+00  1.20000000E+00  1.50000000E+00  1.20000000E+00  1.20000000E+00
  1.50000000E+00  1.20000000E+00  1.20000000E+00  1.50000000E+00  1.20000000E+00
  1.20000000E+00  1.50000000E+00  1.20000000E+00  1.20000000E+00  1.50000000E+00
  1.20000000E+00  1.20000000E+00  1.50000000E+00  1.20000000E+00  1.20000000E+00
  1.50000000E+00  1.20000000E+00  1.20000000E+00  1.50000000E+00  1.20000000E+00
  1.20000000E+00  1.50000000E+00  1.20000000E+00  1.20000000E+00  1.50000000E+00
  1.20000000E+00  1.20000000E+00  1.50000000E+00  1.20000000E+00  1.20000000E+00
  1.50000000E+00  1.20000000E+00  1.20000000E+00  1.50000000E+00  1.20000000E+00
  1.20000000E+00  1.50000000E+00  1.20000000E+00  1.20000000E+00  1.50000000E+00
  1.20000000E+00  1.20000000E+00  1.50000000E+00  1.20000000E+00  1.20000000E+00
  1.50000000E+00  1.20000000E+00  1.20000000E+00  1.50000000E+00  1.20000000E+00
  1.20000000E+00  1.50000000E+00  1.20000000E+00  1.20000000E+00  1.50000000E+00
  1.20000000E+00  1.20000000E+00  1.50000000E+00  1.20000000E+00  1.20000000E+00
  1.50000000E+00  1.20000000E+00  1.20000000E+00  1.50000000E+00  1.20000000E+00
  1.20000000E+00  1.50000000E+00  1.20000000E+00  1.20000000E+00  1.50000000E+00
  1.20000000E+00  1.20000000E+00  1.50000000E+00  1.20000000E+00  1.20000000E+00
  1.50000000E+00  1.20000000E+00  1.20000000E+00  1.50000000E+00  1.20000000E+00
  1.20000000E+00  1.50000000E+00  1.20000000E+00  1.20000000E+00  1.50000000E+00
  1.20000000E+00  1.20000000E+00  1.50000000E+00  1.20000000E+00  1.20000000E+00
  1.50000000E+00  1.20000000E+00  1.20000000E+00  1.50000000E+00  1.20000000E+00
  1.20000000E+00  1.50000000E+00  1.20000000E+00  1.20000000E+00  1.50000000E+00
  1.20000000E+00  1.20000000E+00  1.50000000E+00  1.20000000E+00  1.20000000E+00
  1.50000000E+00  1.20000000E+00  1.20000000E+00  1.50000000E+00  1.20000000E+00
  1.20000000E+00  1.50000000E+00  1.20000000E+00  1.20000000E+00  1.50000000E+00
  1.20000000E+00  1.20000000E+00  1.50000000E+00  1.20000000E+00  1.20000000E+00
  1.50000000E+00  1.20000000E+00  1.20000000E+00  1.50000000E+00  1.20000000E+00
  1.20000000E+00  1.50000000E+00  1.20000000E+00  1.20000000E+00  1.50000000E+00
  1.20000000E+00  1.20000000E+00  1.50000000E+00  1.20000000E+00  1.20000000E+00
  1.50000000E+00  1.20000000E+00  1.20000000E+00  1.50000000E+00  1.20000000E+00
  1.20000000E+00  1.50000000E+00  1.20000000E+00  1.20000000E+00  1.50000000E+00
  1.20000000E+00  1.20000000E+00  1.50000000E+00  1.20000000E+00  1.20000000E+00
  1.50000000E+00  1.20000000E+00  1.20000000E+00  1.50000000E+00  1.20000000E+00
  1.20000000E+00  1.50000000E+00  1.20000000E+00  1.20000000E+00  1.50000000E+00
  1.20000000E+00  1.20000000E+00  1.50000000E+00  1.20000000E+00  1.20000000E+00
  1.50000000E+00  1.20000000E+00  1.20000000E+00  1.50000000E+00  1.20000000E+00
  1.20000000E+00  1.50000000E+00  1.20000000E+00  1.20000000E+00  1.50000000E+00
  1.20000000E+00  1.20000000E+00  1.50000000E+00  1.20000000E+00  1.20000000E+00
  1.50000000E+00  1.20000000E+00  1.20000000E+00  1.50000000E+00  1.20000000E+00
  1.20000000E+00  1.50000000E+00  1.20000000E+00  1.20000000E+00  1.50000000E+00
  1.20000000E+00  1.20000000E+00  1.50000000E+00  1.20000000E+00  1.20000000E+00
  1.50000000E+00  1.20000000E+00  1.20000000E+00  1.50000000E+00  1.20000000E+00
  1.20000000E+00  1.50000000E+00  1.20000000E+00  1.20000000E+00  1.50000000E+00
  1.20000000E+00  1.20000000E+00  1.50000000E+00  1.20000000E+00  1.20000000E+00
  1.50000000E+00  1.20000000E+00  1.20000000E+00  1.50000000E+00  1.20000000E+00
  1.20000000E+00  1.50000000E+00  1.20000000E+00  1.20000000E+00  1.50000000E+00
  1.20000000E+00  1.20000000E+00  1.50000000E+00  1.20000000E+00  1.20000000E+00
  1.50000000E+00  1.20000000E+00  1.20000000E+00  1.50000000E+00  1.20000000E+00
  1.20000000E+00  1.50000000E+00  1.20000000E+00  1.20000000E+00  1.50000000E+00
  1.20000000E+00  1.20000000E+00  1.50000000E+00  1.20000000E+00  1.20000000E+00
  1.50000000E+00  1.20000000E+00  1.20000000E+00  1.50000000E+00  1.20000000E+00
  1.20000000E+00  1.50000000E+00  1.20000000E+00  1.20000000E+00  1.50000000E+00
  1.20000000E+00  1.20000000E+00  1.50000000E+00  1.20000000E+00  1.20000000E+00
  1.50000000E+00  1.20000000E+00  1.20000000E+00  1.50000000E+00  1.20000000E+00
  1.20000000E+00  1.50000000E+00  1.20000000E+00  1.20000000E+00  1.50000000E+00
  1.20000000E+00  1.20000000E+00  1.50000000E+00  1.20000000E+00  1.20000000E+00
  1.50000000E+00  1.20000000E+00  1.20000000E+00  1.50000000E+00  1.20000000E+00
  1.20000000E+00  1.50000000E+00  1.20000000E+00  1.20000000E+00  1.50000000E+00
  1.20000000E+00  1.20000000E+00  1.50000000E+00  1.20000000E+00  1.20000000E+00
  1.50000000E+00  1.20000000E+00  1.20000000E+00  1.50000000E+00  1.20000000E+00
  1.20000000E+00  1.50000000E+00  1.20000000E+00  1.20000000E+00  1.50000000E+00
  1.20000000E+00  1.20000000E+00  1.50000000E+00  1.20000000E+00  1.20000000E+00
  1.50000000E+00  1.20000000E+00  1.20000000E+00  1.50000000E+00  1.20000000E+00
  1.20000000E+00  1.50000000E+00  1.20000000E+00  1.20000000E+00  1.50000000E+00
  1.20000000E+00  1.20000000E+00  1.50000000E+00  1.20000000E+00  1.20000000E+00
  1.50000000E+00  1.20000000E+00  1.20000000E+00  1.50000000E+00  1.20000000E+00
  1.20000000E+00  1.50000000E+00  1.20000000E+00  1.20000000E+00  1.50000000E+00
  1.20000000E+00  1.20000000E+00  1.50000000E+00  1.20000000E+00  1.20000000E+00
  1.50000000E+00  1.20000000E+00  1.20000000E+00  1.50000000E+00  1.20000000E+00
  1.20000000E+00  1.50000000E+00  1.20000000E+00  1.20000000E+00  1.50000000E+00
  1.20000000E+00  1.20000000E+00  1.50000000E+00  1.20000000E+00  1.20000000E+00
  1.50000000E+00  1.20000000E+00  1.20000000E+00  1.50000000E+00  1.20000000E+00
  1.20000000E+00  1.50000000E+00  1.20000000E+00  1.20000000E+00  1.50000000E+00
  1.20000000E+00  1.20000000E+00  1.50000000E+00  1.20000000E+00  1.20000000E+00
  1.50000000E+00  1.20000000E+00  1.20000000E+00  1.50000000E+00  1.20000000E+00
  1.20000000E+00  1.50000000E+00  1.20000000E+00  1.20000000E+00  1.50000000E+00
  1.20000000E+00  1.20000000E+00  1.50000000E+00  1.20000000E+00  1.20000000E+00
  1.50000000E+00  1.20000000E+00  1.20000000E+00  1.50000000E+00  1.20000000E+00
  1.20000000E+00  1.50000000E+00  1.20000000E+00  1.20000000E+00  1.50000000E+00
  1.20000000E+00  1.20000000E+00  1.50000000E+00  1.20000000E+00  1.20000000E+00
  1.50000000E+00  1.20000000E+00  1.20000000E+00  1.50000000E+00  1.20000000E+00
  1.20000000E+00  1.50000000E+00  1.20000000E+00  1.20000000E+00  1.50000000E+00
  1.20000000E+00  1.20000000E+00  1.50000000E+00  1.20000000E+00  1.20000000E+00
  1.50000000E+00  1.20000000E+00  1.20000000E+00  1.50000000E+00  1.20000000E+00
  1.20000000E+00  1.50000000E+00  1.20000000E+00  1.20000000E+00  1.50000000E+00
  1.20000000E+00  1.20000000E+00  1.50000000E+00  1.20000000E+00  1.20000000E+00
  1.50000000E+00  1.20000000E+00  1.20000000E+00  1.50000000E+00  1.20000000E+00
  1.20000000E+00  1.50000000E+00  1.20000000E+00  1.20000000E+00  1.50000000E+00
  1.20000000E+00  1.20000000E+00  1.50000000E+00  1.20000000E+00  1.20000000E+00
  1.50000000E+00  1.20000000E+00  1.20000000E+00  1.50000000E+00  1.20000000E+00
  1.20000000E+00  1.50000000E+00  1.20000000E+00  1.20000000E+00  1.50000000E+00
  1.20000000E+00  1.20000000E+00  1.50000000E+00  1.20000000E+00  1.20000000E+00
  1.50000000E+00  1.20000000E+00  1.20000000E+00  1.50000000E+00  1.20000000E+00
  1.20000000E+00  1.50000000E+00  1.20000000E+00  1.20000000E+00  1.50000000E+00
  1.20000000E+00  1.20000000E+00  1.50000000E+00  1.20000000E+00  1.20000000E+00
  1.50000000E+00  1.20000000E+00  1.20000000E+00  1.50000000E+00  1.20000000E+00
  1.20000000E+00  1.50000000E+00  1.20000000E+00  1.20000000E+00  1.50000000E+00
  1.20000000E+00  1.20000000E+00  1.50000000E+00  1.20000000E+00  1.20000000E+00
  1.50000000E+00  1.20000000E+00  1.20000000E+00  1.50000000E+00  1.20000000E+00
  1.20000000E+00  1.50000000E+00  1.20000000E+00  1.20000000E+00  1.50000000E+00
  1.20000000E+00  1.20000000E+00  1.50000000E+00  1.20000000E+00  1.20000000E+00
  1.50000000E+00  1.20000000E+00  1.20000000E+00  1.50000000E+00  1.20000000E+00
  1.20000000E+00  1.50000000E+00  1.20000000E+00  1.20000000E+00  1.50000000E+00
  1.20000000E+00  1.20000000E+00  1.50000000E+00  1.20000000E+00  1.20000000E+00
  1.50000000E+00  1.20000000E+00  1.20000000E+00  1.50000000E+00  1.20000000E+00
  1.20000000E+00  1.50000000E+00  1.20000000E+00  1.20000000E+00  1.50000000E+00
  1.20000000E+00  1.20000000E+00  1.50000000E+00  1.20000000E+00  1.20000000E+00
  1.50000000E+00  1.20000000E+00  1.20000000E+00  1.50000000E+00  1.20000000E+00
  1.20000000E+00  1.50000000E+00  1.20000000E+00  1.20000000E+00  1.50000000E+00
  1.20000000E+00  1.20000000E+00  1.50000000E+00  1.20000000E+00  1.20000000E+00
  1.50000000E+00  1.20000000E+00  1.20000000E+00  1.50000000E+00  1.20000000E+00
  1.20000000E+00  1.50000000E+00  1.20000000E+00  1.20000000E+00  1.50000000E+00
  1.20000000E+00  1.20000000E+00  1.50000000E+00  1.20000000E+00  1.20000000E+00
  1.50000000E+00  1.20000000E+00  1.20000000E+00  1.50000000E+00  1.20000000E+00
  1.20000000E+00  1.50000000E+00  1.20000000E+00  1.20000000E+00  1.50000000E+00
  1.20000000E+00  1.20000000E+00  1.50000000E+00  1.20000000E+00  1.20000000E+00
  1.50000000E+00  1.20000000E+00  1.20000000E+00  1.50000000E+00  1.20000000E+00
  1.20000000E+00  1.50000000E+00  1.20000000E+00  1.20000000E+00  1.50000000E+00
  1.20000000E+00  1.20000000E+00  1.50000000E+00  1.20000000E+00  1.20000000E+00
  1.50000000E+00  1.20000000E+00  1.20000000E+00  1.50000000E+00  1.20000000E+00
  1.20000000E+00  1.50000000E+00  1.20000000E+00  1.20000000E+00  1.50000000E+00
  1.20000000E+00  1.20000000E+00  1.50000000E+00  1.20000000E+00  1.20000000E+00
  1.50000000E+00  1.20000000E+00  1.20000000E+00  1.50000000E+00  1.20000000E+00
  1.20000000E+00  1.50000000E+00  1.20000000E+00  1.20000000E+00  1.50000000E+00
  1.20000000E+00  1.20000000E+00  1.50000000E+00  1.20000000E+00  1.20000000E+00
  1.50000000E+00  1.20000000E+00  1.20000000E+00  1.50000000E+00  1.20000000E+00
  1.20000000E+00  1.50000000E+00  1.20000000E+00  1.20000000E+00  1.50000000E+00
  1.20000000E+00  1.20000000E+00  1.50000000E+00  1.20000000E+00  1.20000000E+00
  1.50000000E+00  1.20000000E+00  1.20000000E+00  1.50000000E+00  1.20000000E+00
  1.20000000E+00  1.50000000E+00  1.20000000E+00  1.20000000E+00  1.50000000E+00
  1.20000000E+00  1.20000000E+00  1.50000000E+00  1.20000000E+00  1.20000000E+00
  1.50000000E+00  1.20000000E+00  1.20000000E+00  1.50000000E+00  1.20000000E+00
  1.20000000E+00  1.50000000E+00  1.20000000E+00  1.20000000E+00  1.50000000E+00
  1.20000000E+00  1.20000000E+00  1.50000000E+00  1.20000000E+00  1.20000000E+00
  1.50000000E+00  1.20000000E+00  1.20000000E+00  1.50000000E+00  1.20000000E+00
  1.20000000E+00  1.50000000E+00  1.20000000E+00  1.20000000E+00  1.50000000E+00
  1.20000000E+00  1.20000000E+00  1.50000000E+00  1.20000000E+00  1.20000000E+00
  1.50000000E+00  1.20000000E+00  1.20000000E+00  1.50000000E+00  1.20000000E+00
  1.20000000E+00  1.50000000E+00  1.20000000E+00  1.20000000E+00  1.50000000E+00
  1.20000000E+00  1.20000000E+00  1.50000000E+00  1.20000000E+00  1.20000000E+00
  1.50000000E+00  1.20000000E+00  1.20000000E+00  1.50000000E+00  1.20000000E+00
  1.20000000E+00  1.50000000E+00  1.20000000E+00  1.20000000E+00  1.50000000E+00
  1.20000000E+00  1.20000000E+00  1.50000000E+00  1.20000000E+00  1.20000000E+00
  1.50000000E+00  1.20000000E+00  1.20000000E+00  1.50000000E+00  1.20000000E+00
  1.20000000E+00  1.50000000E+00  1.20000000E+00  1.20000000E+00  1.50000000E+00
  1.20000000E+00  1.20000000E+00  1.50000000E+00  1.20000000E+00  1.20000000E+00
  1.50000000E+00  1.20000000E+00  1.20000000E+00  1.50000000E+00  1.20000000E+00
  1.20000000E+00  1.50000000E+00  1.20000000E+00  1.20000000E+00  1.50000000E+00
  1.20000000E+00  1.20000000E+00  1.50000000E+00  1.20000000E+00  1.20000000E+00
  1.50000000E+00  1.20000000E+00  1.20000000E+00  1.50000000E+00  1.20000000E+00
  1.20000000E+00  1.50000000E+00  1.20000000E+00  1.20000000E+00  1.50000000E+00
  1.20000000E+00  1.20000000E+00  1.50000000E+00  1.20000000E+00  1.20000000E+00
  1.50000000E+00  1.20000000E+00  1.20000000E+00  1.50000000E+00  1.20000000E+00
  1.20000000E+00  1.50000000E+00  1.20000000E+00  1.20000000E+00  1.50000000E+00
  1.20000000E+00  1.20000000E+00  1.50000000E+00  1.20000000E+00  1.20000000E+00
  1.50000000E+00  1.20000000E+00  1.20000000E+00  1.50000000E+00  1.20000000E+00
  1.20000000E+00  1.50000000E+00  1.20000000E+00  1.20000000E+00  1.50000000E+00
  1.20000000E+00  1.20000000E+00  1.50000000E+00  1.20000000E+00  1.20000000E+00
  1.50000000E+00  1.20000000E+00  1.20000000E+00  1.50000000E+00  1.20000000E+00
  1.20000000E+00  1.50000000E+00  1.20000000E+00  1.20000000E+00  1.50000000E+00
  1.20000000E+00  1.20000000E+00  1.50000000E+00  1.20000000E+00  1.20000000E+00
  1.50000000E+00  1.20000000E+00  1.20000000E+00  1.50000000E+00  1.20000000E+00
  1.20000000E+00  1.50000000E+00  1.20000000E+00  1.20000000E+00  1.50000000E+00
  1.20000000E+00  1.20000000E+00  1.50000000E+00  1.20000000E+00  1.20000000E+00
  1.50000000E+00  1.20000000E+00  1.20000000E+00  1.50000000E+00  1.20000000E+00
  1.20000000E+00  1.50000000E+00  1.20000000E+00  1.20000000E+00  1.50000000E+00
  1.20000000E+00  1.20000000E+00  1.50000000E+00  1.20000000E+00  1.20000000E+00
  1.50000000E+00  1.20000000E+00  1.20000000E+00  1.50000000E+00  1.20000000E+00
  1.20000000E+00  1.50000000E+00  1.20000000E+00  1.20000000E+00  1.50000000E+00
  1.20000000E+00  1.20000000E+00  1.50000000E+00  1.20000000E+00  1.20000000E+00
  1.50000000E+00  1.20000000E+00  1.20000000E+00  1.50000000E+00  1.20000000E+00
  1.20000000E+00  1.50000000E+00  1.20000000E+00  1.20000000E+00  1.50000000E+00
  1.20000000E+00  1.20000000E+00  1.50000000E+00  1.20000000E+00  1.20000000E+00
  1.50000000E+00  1.20000000E+00  1.20000000E+00  1.50000000E+00  1.20000000E+00
  1.20000000E+00  1.50000000E+00  1.20000000E+00  1.20000000E+00  1.50000000E+00
  1.20000000E+00  1.20000000E+00  1.50000000E+00  1.20000000E+00  1.20000000E+00
  1.50000000E+00  1.20000000E+00  1.20000000E+00  1.50000000E+00  1.20000000E+00
  1.20000000E+00  1.50000000E+00  1.20000000E+00  1.20000000E+00  1.50000000E+00
  1.20000000E+00  1.20000000E+00  1.50000000E+00  1.20000000E+00  1.20000000E+00
  1.50000000E+00  1.20000000E+00  1.20000000E+00  1.50000000E+00  1.20000000E+00
  1.20000000E+00  1.50000000E+00  1.20000000E+00  1.20000000E+00  1.50000000E+00
  1.20000000E+00  1.20000000E+00  1.50000000E+00  1.20000000E+00  1.20000000E+00
  1.50000000E+00  1.20000000E+00  1.20000000E+00  1.50000000E+00  1.20000000E+00
  1.20000000E+00  1.50000000E+00  1.20000000E+00  1.20000000E+00  1.50000000E+00
  1.20000000E+00  1.20000000E+00  1.50000000E+00  1.20000000E+00  1.20000000E+00
  1.50000000E+00  1.20000000E+00  1.20000000E+00  1.50000000E+00  1.20000000E+00
  1.20000000E+00  1.50000000E+00  1.20000000E+00  1.20000000E+00  1.50000000E+00
  1.20000000E+00  1.20000000E+00  1.50000000E+00  1.20000000E+00  1.20000000E+00
  1.50000000E+00  1.20000000E+00  1.20000000E+00  1.50000000E+00  1.20000000E+00
  1.20000000E+00  1.50000000E+00  1.20000000E+00  1.20000000E+00  1.50000000E+00
  1.20000000E+00  1.20000000E+00  1.50000000E+00  1.20000000E+00  1.20000000E+00
  1.50000000E+00  1.20000000E+00  1.20000000E+00  1.50000000E+00  1.20000000E+00
  1.20000000E+00  1.50000000E+00  1.20000000E+00  1.20000000E+00  1.50000000E+00
  1.20000000E+00  1.20000000E+00  1.50000000E+00  1.20000000E+00  1.20000000E+00
  1.50000000E+00  1.20000000E+00  1.20000000E+00  1.50000000E+00  1.20000000E+00
  1.20000000E+00  1.50000000E+00  1.20000000E+00  1.20000000E+00  1.50000000E+00
  1.20000000E+00  1.20000000E+00  1.50000000E+00  1.20000000E+00  1.20000000E+00
  1.50000000E+00  1.20000000E+00  1.20000000E+00  1.50000000E+00  1.20000000E+00
  1.20000000E+00  1.50000000E+00  1.20000000E+00  1.20000000E+00  1.50000000E+00
  1.20000000E+00  1.20000000E+00  1.50000000E+00  1.20000000E+00  1.20000000E+00
  1.50000000E+00  1.20000000E+00  1.20000000E+00  1.50000000E+00  1.20000000E+00
  1.20000000E+00  1.50000000E+00  1.20000000E+00  1.20000000E+00  1.50000000E+00
  1.20000000E+00  1.20000000E+00  1.50000000E+00  1.20000000E+00  1.20000000E+00
  1.50000000E+00  1.20000000E+00  1.20000000E+00  1.50000000E+00  1.20000000E+00
  1.20000000E+00  1.50000000E+00  1.20000000E+00  1.20000000E+00  1.50000000E+00
  1.20000000E+00  1.20000000E+00  1.50000000E+00  1.20000000E+00  1.20000000E+00
  1.50000000E+00  1.20000000E+00  1.20000000E+00  1.50000000E+00  1.20000000E+00
  1.20000000E+00  1.50000000E+00  1.20000000E+00  1.20000000E+00  1.50000000E+00
  1.20000000E+00  1.20000000E+00  1.50000000E+00  1.20000000E+00  1.20000000E+00
  1.50000000E+00  1.20000000E+00  1.20000000E+00  1.50000000E+00  1.20000000E+00
  1.20000000E+00  1.50000000E+00  1.20000000E+00  1.20000000E+00  1.50000000E+00
  1.20000000E+00  1.20000000E+00  1.50000000E+00  1.20000000E+00  1.20000000E+00
  1.50000000E+00  1.20000000E+00  1.20000000E+00  1.50000000E+00  1.20000000E+00
  1.20000000E+00  1.50000000E+00  1.20000000E+00  1.20000000E+00  1.50000000E+00
  1.20000000E+00  1.20000000E+00  1.50000000E+00  1.20000000E+00  1.20000000E+00
  1.50000000E+00  1.20000000E+00  1.20000000E+00  1.50000000E+00  1.20000000E+00
  1.20000000E+00  1.50000000E+00  1.20000000E+00  1.20000000E+00  1.50000000E+00
  1.20000000E+00  1.20000000E+00  1.50000000E+00  1.20000000E+00  1.20000000E+00
  1.50000000E+00  1.20000000E+00  1.20000000E+00  1.50000000E+00  1.20000000E+00
  1.20000000E+00  1.50000000E+00  1.20000000E+00  1.20000000E+00  1.50000000E+00
  1.20000000E+00  1.20000000E+00  1.50000000E+00  1.20000000E+00  1.20000000E+00
  1.50000000E+00  1.20000000E+00  1.20000000E+00  1.50000000E+00  1.20000000E+00
  1.20000000E+00  1.50000000E+00  1.20000000E+00  1.20000000E+00  1.50000000E+00
  1.20000000E+00  1.20000000E+00  1.50000000E+00  1.20000000E+00  1.20000000E+00
  1.50000000E+00  1.20000000E+00  1.20000000E+00  1.50000000E+00  1.20000000E+00
  1.20000000E+00  1.50000000E+00  1.20000000E+00  1.20000000E+00  1.50000000E+00
  1.20000000E+00  1.20000000E+00  1.50000000E+00  1.20000000E+00  1.20000000E+00
  1.50000000E+00  1.20000000E+00  1.20000000E+00  1.50000000E+00  1.20000000E+00
  1.20000000E+00  1.50000000E+00  1.20000000E+00  1.20000000E+00  1.50000000E+00
  1.20000000E+00  1.20000000E+00  1.50000000E+00  1.20000000E+00  1.20000000E+00
  1.50000000E+00  1.20000000E+00  1.20000000E+00  1.50000000E+00  1.20000000E+00
  1.20000000E+00  1.50000000E+00  1.20000000E+00  1.20000000E+00  1.50000000E+00
  1.20000000E+00  1.20000000E+00  1.50000000E+00  1.20000000E+00  1.20000000E+00
  1.50000000E+00  1.20000000E+00  1.20000000E+00  1.50000000E+00  1.20000000E+00
  1.20000000E+00  1.50000000E+00  1.20000000E+00  1.20000000E+00  1.50000000E+00
  1.20000000E+00  1.20000000E+00  1.50000000E+00  1.20000000E+00  1.20000000E+00
  1.50000000E+00  1.20000000E+00  1.20000000E+00  1.50000000E+00  1.20000000E+00
  1.20000000E+00  1.50000000E+00  1.20000000E+00  1.20000000E+00  1.50000000E+00
  1.20000000E+00  1.20000000E+00  1.50000000E+00  1.20000000E+00  1.20000000E+00
  1.50000000E+00  1.20000000E+00  1.20000000E+00  1.50000000E+00  1.20000000E+00
  1.20000000E+00  1.50000000E+00  1.20000000E+00  1.20000000E+00  1.50000000E+00
  1.20000000E+00  1.20000000E+00  1.50000000E+00  1.20000000E+00  1.20000000E+00
  1.50000000E+00  1.20000000E+00  1.20000000E+00  1.50000000E+00  1.20000000E+00
  1.20000000E+00  1.50000000E+00  1.20000000E+00  1.20000000E+00  1.50000000E+00
  1.20000000E+00  1.20000000E+00  1.50000000E+00  1.20000000E+00  1.20000000E+00
  1.50000000E+00  1.20000000E+00  1.20000000E+00  1.50000000E+00  1.20000000E+00
  1.20000000E+00  1.50000000E+00  1.20000000E+00  1.20000000E+00  1.50000000E+00
  1.20000000E+00  1.20000000E+00  1.50000000E+00  1.20000000E+00  1.20000000E+00
  1.50000000E+00  1.20000000E+00  1.20000000E+00  1.50000000E+00  1.20000000E+00
  1.20000000E+00  1.50000000E+00  1.20000000E+00  1.20000000E+00  1.50000000E+00
  1.20000000E+00  1.20000000E+00  1.50000000E+00  1.20000000E+00  1.20000000E+00
  1.50000000E+00  1.20000000E+00  1.20000000E+00  1.50000000E+00  1.20000000E+00
  1.20000000E+00  1.50000000E+00  1.20000000E+00  1.20000000E+00  1.50000000E+00
  1.20000000E+00  1.20000000E+00  1.50000000E+00  1.20000000E+00  1.20000000E+00
  1.50000000E+00  1.20000000E+00  1.20000000E+00  1.50000000E+00  1.20000000E+00
  1.20000000E+00  1.50000000E+00  1.20000000E+00  1.20000000E+00  1.50000000E+00
  1.20000000E+00  1.20000000E+00  1.50000000E+00  1.20000000E+00  1.20000000E+00
  1.50000000E+00  1.20000000E+00  1.20000000E+00  1.50000000E+00  1.20000000E+00
  1.20000000E+00  1.50000000E+00  1.20000000E+00  1.20000000E+00  1.50000000E+00
  1.20000000E+00  1.20000000E+00  1.50000000E+00  1.20000000E+00  1.20000000E+00
  1.50000000E+00  1.20000000E+00  1.20000000E+00  1.50000000E+00  1.20000000E+00
  1.20000000E+00  1.50000000E+00  1.20000000E+00  1.20000000E+00  1.50000000E+00
  1.20000000E+00  1.20000000E+00  1.50000000E+00  1.20000000E+00  1.20000000E+00
  1.50000000E+00  1.20000000E+00  1.20000000E+00  1.50000000E+00  1.20000000E+00
  1.20000000E+00  1.50000000E+00  1.20000000E+00  1.20000000E+00  1.50000000E+00
  1.20000000E+00  1.20000000E+00  1.50000000E+00  1.20000000E+00  1.20000000E+00
  1.50000000E+00  1.20000000E+00  1.20000000E+00  1.50000000E+00  1.20000000E+00
  1.20000000E+00  1.50000000E+00  1.20000000E+00  1.20000000E+00  1.50000000E+00
  1.20000000E+00  1.20000000E+00  1.50000000E+00  1.20000000E+00  1.20000000E+00
  1.50000000E+00  1.20000000E+00  1.20000000E+00  1.50000000E+00  1.20000000E+00
  1.20000000E+00  1.50000000E+00  1.20000000E+00  1.20000000E+00  1.50000000E+00
  1.20000000E+00  1.20000000E+00  1.50000000E+00  1.20000000E+00  1.20000000E+00
  1.50000000E+00  1.20000000E+00  1.20000000E+00  1.50000000E+00  1.20000000E+00
  1.20000000E+00  1.50000000E+00  1.20000000E+00  1.20000000E+00  1.50000000E+00
  1.20000000E+00  1.20000000E+00  1.50000000E+00  1.20000000E+00  1.20000000E+00
  1.50000000E+00  1.20000000E+00  1.20000000E+00  1.50000000E+00  1.20000000E+00
  1.20000000E+00  1.50000000E+00  1.20000000E+00  1.20000000E+00  1.50000000E+00
  1.20000000E+00  1.20000000E+00  1.50000000E+00  1.20000000E+00  1.20000000E+00
  1.50000000E+00  1.20000000E+00  1.20000000E+00  1.50000000E+00  1.20000000E+00
  1.20000000E+00  1.50000000E+00  1.20000000E+00  1.20000000E+00  1.50000000E+00
  1.20000000E+00  1.20000000E+00  1.50000000E+00  1.20000000E+00  1.20000000E+00
  1.50000000E+00  1.20000000E+00  1.20000000E+00  1.50000000E+00  1.20000000E+00
  1.20000000E+00  1.50000000E+00  1.20000000E+00  1.20000000E+00  1.50000000E+00
  1.20000000E+00  1.20000000E+00  1.50000000E+00  1.20000000E+00  1.20000000E+00
  1.50000000E+00  1.20000000E+00  1.20000000E+00  1.50000000E+00  1.20000000E+00
  1.20000000E+00  1.50000000E+00  1.20000000E+00  1.20000000E+00  1.50000000E+00
  1.20000000E+00  1.20000000E+00  1.50000000E+00  1.20000000E+00  1.20000000E+00
  1.50000000E+00  1.20000000E+00  1.20000000E+00  1.50000000E+00  1.20000000E+00
  1.20000000E+00  1.50000000E+00  1.20000000E+00  1.20000000E+00  1.50000000E+00
  1.20000000E+00  1.20000000E+00  1.50000000E+00  1.20000000E+00  1.20000000E+00
  1.50000000E+00  1.20000000E+00  1.20000000E+00  1.50000000E+00  1.20000000E+00
  1.20000000E+00  1.50000000E+00  1.20000000E+00  1.20000000E+00  1.50000000E+00
  1.20000000E+00  1.20000000E+00  1.50000000E+00  1.20000000E+00  1.20000000E+00
  1.50000000E+00  1.20000000E+00  1.20000000E+00  1.50000000E+00  1.20000000E+00
  1.20000000E+00  1.50000000E+00  1.20000000E+00  1.20000000E+00  1.50000000E+00
  1.20000000E+00  1.20000000E+00  1.50000000E+00  1.20000000E+00  1.20000000E+00
  1.50000000E+00  1.20000000E+00  1.20000000E+00  1.50000000E+00  1.20000000E+00
  1.20000000E+00  1.50000000E+00  1.20000000E+00  1.20000000E+00  1.50000000E+00
  1.20000000E+00  1.20000000E+00  1.50000000E+00  1.20000000E+00  1.20000000E+00
  1.50000000E+00  1.20000000E+00  1.20000000E+00  1.50000000E+00  1.20000000E+00
  1.20000000E+00  1.50000000E+00  1.20000000E+00  1.20000000E+00  1.50000000E+00
  1.20000000E+00  1.20000000E+00  1.50000000E+00  1.20000000E+00  1.20000000E+00
  1.50000000E+00  1.20000000E+00  1.20000000E+00  1.50000000E+00  1.20000000E+00
  1.20000000E+00  1.50000000E+00  1.20000000E+00  1.20000000E+00  1.50000000E+00
  1.20000000E+00  1.20000000E+00  1.50000000E+00  1.20000000E+00  1.20000000E+00
  1.50000000E+00  1.20000000E+00  1.20000000E+00  1.50000000E+00  1.20000000E+00
  1.20000000E+00  1.50000000E+00  1.20000000E+00  1.20000000E+00  1.50000000E+00
  1.20000000E+00  1.20000000E+00  1.50000000E+00  1.20000000E+00  1.20000000E+00
  1.50000000E+00  1.20000000E+00  1.20000000E+00  1.50000000E+00  1.20000000E+00
  1.20000000E+00  1.50000000E+00  1.20000000E+00  1.20000000E+00  1.50000000E+00
  1.20000000E+00  1.20000000E+00  1.50000000E+00  1.20000000E+00  1.20000000E+00
  1.50000000E+00  1.20000000E+00  1.20000000E+00  1.50000000E+00  1.20000000E+00
  1.20000000E+00  1.50000000E+00  1.20000000E+00  1.20000000E+00  1.50000000E+00
  1.20000000E+00  1.20000000E+00  1.50000000E+00  1.20000000E+00  1.20000000E+00
  1.50000000E+00  1.20000000E+00  1.20000000E+00  1.50000000E+00  1.20000000E+00
  1.20000000E+00  1.50000000E+00  1.20000000E+00  1.20000000E+00  1.50000000E+00
  1.20000000E+00  1.20000000E+00  1.50000000E+00  1.20000000E+00  1.20000000E+00
  1.50000000E+00  1.20000000E+00  1.20000000E+00  1.50000000E+00  1.20000000E+00
  1.20000000E+00  1.50000000E+00  1.20000000E+00  1.20000000E+00  1.50000000E+00
  1.20000000E+00  1.20000000E+00  1.50000000E+00  1.20000000E+00  1.20000000E+00
  1.50000000E+00  1.20000000E+00  1.20000000E+00  1.50000000E+00  1.20000000E+00
  1.20000000E+00  1.50000000E+00  1.20000000E+00  1.20000000E+00  1.50000000E+00
  1.20000000E+00  1.20000000E+00  1.50000000E+00  1.20000000E+00  1.20000000E+00
  1.50000000E+00  1.20000000E+00  1.20000000E+00  1.50000000E+00  1.20000000E+00
  1.20000000E+00  1.50000000E+00  1.20000000E+00  1.20000000E+00  1.50000000E+00
  1.20000000E+00  1.20000000E+00  1.50000000E+00  1.20000000E+00  1.20000000E+00
  1.50000000E+00  1.20000000E+00  1.20000000E+00  1.50000000E+00  1.20000000E+00
  1.20000000E+00  1.50000000E+00  1.20000000E+00  1.20000000E+00  1.50000000E+00
  1.20000000E+00  1.20000000E+00  1.50000000E+00  1.20000000E+00  1.20000000E+00
  1.50000000E+00  1.20000000E+00  1.20000000E+00  1.50000000E+00  1.20000000E+00
  1.20000000E+00  1.50000000E+00  1.20000000E+00  1.20000000E+00  1.50000000E+00
  1.20000000E+00  1.20000000E+00  1.50000000E+00  1.20000000E+00  1.20000000E+00
  1.50000000E+00  1.20000000E+00  1.20000000E+00  1.50000000E+00  1.20000000E+00
  1.20000000E+00  1.50000000E+00  1.20000000E+00  1.20000000E+00  1.50000000E+00
  1.20000000E+00  1.20000000E+00  1.50000000E+00  1.20000000E+00  1.20000000E+00
  1.50000000E+00  1.20000000E+00  1.20000000E+00  1.50000000E+00  1.20000000E+00
  1.20000000E+00  1.50000000E+00  1.20000000E+00  1.20000000E+00  1.50000000E+00
  1.20000000E+00  1.20000000E+00  1.50000000E+00  1.20000000E+00  1.20000000E+00
  1.50000000E+00  1.20000000E+00  1.20000000E+00  1.50000000E+00  1.20000000E+00
  1.20000000E+00  1.50000000E+00  1.20000000E+00  1.20000000E+00  1.50000000E+00
  1.20000000E+00  1.20000000E+00  1.50000000E+00  1.20000000E+00  1.20000000E+00
  1.50000000E+00  1.20000000E+00  1.20000000E+00  1.50000000E+00  1.20000000E+00
  1.20000000E+00  1.50000000E+00  1.20000000E+00  1.20000000E+00  1.50000000E+00
  1.20000000E+00  1.20000000E+00  1.50000000E+00  1.20000000E+00  1.20000000E+00
  1.50000000E+00  1.20000000E+00  1.20000000E+00  1.50000000E+00  1.20000000E+00
  1.20000000E+00  1.50000000E+00  1.20000000E+00  1.20000000E+00  1.50000000E+00
  1.20000000E+00  1.20000000E+00  1.50000000E+00  1.20000000E+00  1.20000000E+00
  1.50000000E+00  1.20000000E+00  1.20000000E+00  1.50000000E+00  1.20000000E+00
  1.20000000E+00  1.50000000E+00  1.20000000E+00  1.20000000E+00  1.50000000E+00
  1.20000000E+00  1.20000000E+00  1.50000000E+00  1.20000000E+00  1.20000000E+00
  1.50000000E+00  1.20000000E+00  1.20000000E+00  1.50000000E+00  1.20000000E+00
  1.20000000E+00  1.50000000E+00  1.20000000E+00  1.20000000E+00  1.50000000E+00
  1.20000000E+00  1.20000000E+00  1.50000000E+00  1.20000000E+00  1.20000000E+00
  1.50000000E+00  1.20000000E+00  1.20000000E+00  1.50000000E+00  1.20000000E+00
  1.20000000E+00  1.50000000E+00  1.20000000E+00  1.20000000E+00  1.50000000E+00
  1.20000000E+00  1.20000000E+00  1.50000000E+00  1.20000000E+00  1.20000000E+00
  1.50000000E+00  1.20000000E+00  1.20000000E+00  1.50000000E+00  1.20000000E+00
  1.20000000E+00  1.50000000E+00  1.20000000E+00  1.20000000E+00  1.50000000E+00
  1.20000000E+00  1.20000000E+00  1.50000000E+00  1.20000000E+00  1.20000000E+00
  1.50000000E+00  1.20000000E+00  1.20000000E+00  1.50000000E+00  1.20000000E+00
  1.20000000E+00  1.50000000E+00  1.20000000E+00  1.20000000E+00  1.50000000E+00
  1.20000000E+00  1.20000000E+00  1.50000000E+00  1.20000000E+00  1.20000000E+00
  1.50000000E+00  1.20000000E+00  1.20000000E+00  1.50000000E+00  1.20000000E+00
  1.20000000E+00  1.50000000E+00  1.20000000E+00  1.20000000E+00  1.50000000E+00
  1.20000000E+00  1.20000000E+00  1.50000000E+00  1.20000000E+00  1.20000000E+00
  1.50000000E+00  1.20000000E+00  1.20000000E+00  1.50000000E+00  1.20000000E+00
  1.20000000E+00  1.50000000E+00  1.20000000E+00  1.20000000E+00  1.50000000E+00
  1.20000000E+00  1.20000000E+00  1.50000000E+00  1.20000000E+00  1.20000000E+00
  1.50000000E+00  1.20000000E+00  1.20000000E+00  1.50000000E+00  1.20000000E+00
  1.20000000E+00  1.50000000E+00  1.20000000E+00  1.20000000E+00  1.50000000E+00
  1.20000000E+00  1.20000000E+00  1.50000000E+00  1.20000000E+00  1.20000000E+00
  1.50000000E+00  1.20000000E+00  1.20000000E+00  1.50000000E+00  1.20000000E+00
  1.20000000E+00  1.50000000E+00  1.20000000E+00  1.20000000E+00  1.50000000E+00
  1.20000000E+00  1.20000000E+00  1.50000000E+00  1.20000000E+00  1.20000000E+00
  1.50000000E+00  1.20000000E+00  1.20000000E+00  1.50000000E+00  1.20000000E+00
  1.20000000E+00  1.50000000E+00  1.20000000E+00  1.20000000E+00  1.50000000E+00
  1.20000000E+00  1.20000000E+00  1.50000000E+00  1.20000000E+00  1.20000000E+00
  1.50000000E+00  1.20000000E+00  1.20000000E+00  1.50000000E+00  1.20000000E+00
  1.20000000E+00  1.50000000E+00  1.20000000E+00  1.20000000E+00  1.50000000E+00
  1.20000000E+00  1.20000000E+00  1.50000000E+00  1.20000000E+00  1.20000000E+00
  1.50000000E+00  1.20000000E+00  1.20000000E+00  1.50000000E+00  1.20000000E+00
  1.20000000E+00  1.50000000E+00  1.20000000E+00  1.20000000E+00  1.50000000E+00
  1.20000000E+00  1.20000000E+00  1.50000000E+00  1.20000000E+00  1.20000000E+00
  1.50000000E+00  1.20000000E+00  1.20000000E+00  1.50000000E+00  1.20000000E+00
  1.20000000E+00  1.50000000E+00  1.20000000E+00  1.20000000E+00  1.50000000E+00
  1.20000000E+00  1.20000000E+00  1.50000000E+00  1.20000000E+00  1.20000000E+00
  1.50000000E+00  1.20000000E+00  1.20000000E+00  1.50000000E+00  1.20000000E+00
  1.20000000E+00  1.50000000E+00  1.20000000E+00  1.20000000E+00  1.50000000E+00
  1.20000000E+00  1.20000000E+00  1.50000000E+00  1.20000000E+00  1.20000000E+00
  1.50000000E+00  1.20000000E+00  1.20000000E+00  1.50000000E+00  1.20000000E+00
  1.20000000E+00  1.50000000E+00  1.20000000E+00  1.20000000E+00  1.50000000E+00
  1.20000000E+00  1.20000000E+00  1.50000000E+00  1.20000000E+00  1.20000000E+00
  1.50000000E+00  1.20000000E+00  1.20000000E+00  1.50000000E+00  1.20000000E+00
  1.20000000E+00  1.50000000E+00  1.20000000E+00  1.20000000E+00  1.50000000E+00
  1.20000000E+00  1.20000000E+00  1.50000000E+00  1.20000000E+00  1.20000000E+00
  1.50000000E+00  1.20000000E+00  1.20000000E+00  1.50000000E+00  1.20000000E+00
  1.20000000E+00  1.50000000E+00  1.20000000E+00  1.20000000E+00  1.50000000E+00
  1.20000000E+00  1.20000000E+00  1.50000000E+00  1.20000000E+00  1.20000000E+00
  1.50000000E+00  1.20000000E+00  1.20000000E+00  1.50000000E+00  1.20000000E+00
  1.20000000E+00  1.50000000E+00  1.20000000E+00  1.20000000E+00  1.50000000E+00
  1.20000000E+00  1.20000000E+00  1.50000000E+00  1.20000000E+00  1.20000000E+00
  1.50000000E+00  1.20000000E+00  1.20000000E+00  1.50000000E+00  1.20000000E+00
  1.20000000E+00  1.50000000E+00  1.20000000E+00  1.20000000E+00  1.50000000E+00
  1.20000000E+00  1.20000000E+00  1.50000000E+00  1.20000000E+00  1.20000000E+00
  1.50000000E+00  1.20000000E+00  1.20000000E+00  1.50000000E+00  1.20000000E+00
  1.20000000E+00  1.50000000E+00  1.20000000E+00  1.20000000E+00  1.50000000E+00
  1.20000000E+00  1.20000000E+00  1.50000000E+00  1.20000000E+00  1.20000000E+00
  1.50000000E+00  1.20000000E+00  1.20000000E+00  1.50000000E+00  1.20000000E+00
  1.20000000E+00  1.50000000E+00  1.20000000E+00  1.20000000E+00  1.50000000E+00
  1.20000000E+00  1.20000000E+00  1.50000000E+00  1.20000000E+00  1.20000000E+00
  1.50000000E+00  1.20000000E+00  1.20000000E+00  1.50000000E+00  1.20000000E+00
  1.20000000E+00  1.50000000E+00  1.20000000E+00  1.20000000E+00  1.50000000E+00
  1.20000000E+00  1.20000000E+00  1.50000000E+00  1.20000000E+00  1.20000000E+00
  1.50000000E+00  1.20000000E+00  1.20000000E+00  1.50000000E+00  1.20000000E+00
  1.20000000E+00  1.50000000E+00  1.20000000E+00  1.20000000E+00  1.50000000E+00
  1.20000000E+00  1.20000000E+00  1.50000000E+00  1.20000000E+00  1.20000000E+00
  1.50000000E+00  1.20000000E+00  1.20000000E+00  1.50000000E+00  1.20000000E+00
  1.20000000E+00  1.50000000E+00  1.20000000E+00  1.20000000E+00  1.50000000E+00
  1.20000000E+00  1.20000000E+00  1.50000000E+00  1.20000000E+00  1.20000000E+00
  1.50000000E+00  1.20000000E+00  1.20000000E+00  1.50000000E+00  1.20000000E+00
  1.20000000E+00  1.50000000E+00  1.20000000E+00  1.20000000E+00  1.50000000E+00
  1.20000000E+00  1.20000000E+00  1.50000000E+00  1.20000000E+00  1.20000000E+00
  1.50000000E+00  1.20000000E+00  1.20000000E+00  1.50000000E+00  1.20000000E+00
  1.20000000E+00  1.50000000E+00  1.20000000E+00  1.20000000E+00  1.50000000E+00
  1.20000000E+00  1.20000000E+00  1.50000000E+00  1.20000000E+00  1.20000000E+00
  1.50000000E+00  1.20000000E+00  1.20000000E+00  1.50000000E+00  1.20000000E+00
  1.20000000E+00  1.50000000E+00  1.20000000E+00  1.20000000E+00  1.50000000E+00
  1.20000000E+00  1.20000000E+00  1.50000000E+00  1.20000000E+00  1.20000000E+00
  1.50000000E+00  1.20000000E+00  1.20000000E+00  1.50000000E+00  1.20000000E+00
  1.20000000E+00  1.50000000E+00  1.20000000E+00  1.20000000E+00  1.50000000E+00
  1.20000000E+00  1.20000000E+00  1.50000000E+00  1.20000000E+00  1.20000000E+00
  1.50000000E+00  1.20000000E+00  1.20000000E+00  1.50000000E+00  1.20000000E+00
  1.20000000E+00  1.50000000E+00  1.20000000E+00  1.20000000E+00  1.50000000E+00
  1.20000000E+00  1.20000000E+00  1.50000000E+00  1.20000000E+00  1.20000000E+00
  1.50000000E+00  1.20000000E+00  1.20000000E+00  1.50000000E+00  1.20000000E+00
  1.20000000E+00  1.50000000E+00  1.20000000E+00  1.20000000E+00  1.50000000E+00
  1.20000000E+00  1.20000000E+00  1.50000000E+00  1.20000000E+00  1.20000000E+00
  1.50000000E+00  1.20000000E+00  1.20000000E+00  1.50000000E+00  1.20000000E+00
  1.20000000E+00  1.50000000E+00  1.20000000E+00  1.20000000E+00  1.50000000E+00
  1.20000000E+00  1.20000000E+00  1.50000000E+00  1.20000000E+00  1.20000000E+00
  1.50000000E+00  1.20000000E+00  1.20000000E+00  1.50000000E+00  1.20000000E+00
  1.20000000E+00  1.50000000E+00  1.20000000E+00  1.20000000E+00  1.50000000E+00
  1.20000000E+00  1.20000000E+00  1.50000000E+00  1.20000000E+00  1.20000000E+00
  1.50000000E+00  1.20000000E+00  1.20000000E+00  1.50000000E+00  1.20000000E+00
  1.20000000E+00  1.50000000E+00  1.20000000E+00  1.20000000E+00  1.50000000E+00
  1.20000000E+00  1.20000000E+00  1.50000000E+00  1.20000000E+00  1.20000000E+00
  1.50000000E+00  1.20000000E+00  1.20000000E+00  1.50000000E+00  1.20000000E+00
  1.20000000E+00  1.50000000E+00  1.20000000E+00  1.20000000E+00  1.50000000E+00
  1.20000000E+00  1.20000000E+00  1.50000000E+00  1.20000000E+00  1.20000000E+00
  1.50000000E+00  1.20000000E+00  1.20000000E+00  1.50000000E+00  1.20000000E+00
  1.20000000E+00  1.50000000E+00  1.20000000E+00  1.20000000E+00  1.50000000E+00
  1.20000000E+00  1.20000000E+00  1.50000000E+00  1.20000000E+00  1.20000000E+00
  1.50000000E+00  1.20000000E+00  1.20000000E+00  1.50000000E+00  1.20000000E+00
  1.20000000E+00  1.50000000E+00  1.20000000E+00  1.20000000E+00  1.50000000E+00
  1.20000000E+00  1.20000000E+00  1.50000000E+00  1.20000000E+00  1.20000000E+00
  1.50000000E+00  1.20000000E+00  1.20000000E+00  1.50000000E+00  1.20000000E+00
  1.20000000E+00  1.50000000E+00  1.20000000E+00  1.20000000E+00  1.50000000E+00
  1.20000000E+00  1.20000000E+00  1.50000000E+00  1.20000000E+00  1.20000000E+00
  1.50000000E+00  1.20000000E+00  1.20000000E+00  1.50000000E+00  1.20000000E+00
  1.20000000E+00  1.50000000E+00  1.20000000E+00  1.20000000E+00  1.50000000E+00
  1.20000000E+00  1.20000000E+00  1.50000000E+00  1.20000000E+00  1.20000000E+00
  1.50000000E+00  1.20000000E+00  1.20000000E+00  1.50000000E+00  1.20000000E+00
  1.20000000E+00  1.50000000E+00  1.20000000E+00  1.20000000E+00  1.50000000E+00
  1.20000000E+00  1.20000000E+00  1.50000000E+00  1.20000000E+00  1.20000000E+00
  1.50000000E+00  1.20000000E+00  1.20000000E+00  1.50000000E+00  1.20000000E+00
  1.20000000E+00  1.50000000E+00  1.20000000E+00  1.20000000E+00  1.50000000E+00
  1.20000000E+00  1.20000000E+00  1.50000000E+00  1.20000000E+00  1.20000000E+00
  1.50000000E+00  1.20000000E+00  1.20000000E+00  1.50000000E+00  1.20000000E+00
  1.20000000E+00  1.50000000E+00  1.20000000E+00  1.20000000E+00  1.50000000E+00
  1.20000000E+00  1.20000000E+00  1.50000000E+00  1.20000000E+00  1.20000000E+00
  1.50000000E+00  1.20000000E+00  1.20000000E+00  1.50000000E+00  1.20000000E+00
  1.20000000E+00  1.50000000E+00  1.20000000E+00  1.20000000E+00  1.50000000E+00
  1.20000000E+00  1.20000000E+00  1.50000000E+00  1.20000000E+00  1.20000000E+00
  1.50000000E+00  1.20000000E+00  1.20000000E+00  1.50000000E+00  1.20000000E+00
  1.20000000E+00  1.50000000E+00  1.20000000E+00  1.20000000E+00  1.50000000E+00
  1.20000000E+00  1.20000000E+00  1.50000000E+00  1.20000000E+00  1.20000000E+00
  1.50000000E+00  1.20000000E+00  1.20000000E+00  1.50000000E+00  1.20000000E+00
  1.20000000E+00  1.50000000E+00  1.20000000E+00  1.20000000E+00  1.50000000E+00
  1.20000000E+00  1.20000000E+00  1.50000000E+00  1.20000000E+00  1.20000000E+00
  1.50000000E+00  1.20000000E+00  1.20000000E+00  1.50000000E+00  1.20000000E+00
  1.20000000E+00  1.50000000E+00  1.20000000E+00  1.20000000E+00  1.50000000E+00
  1.20000000E+00  1.20000000E+00  1.50000000E+00  1.20000000E+00  1.20000000E+00
  1.50000000E+00  1.20000000E+00  1.20000000E+00  1.50000000E+00  1.20000000E+00
  1.20000000E+00  1.50000000E+00  1.20000000E+00  1.20000000E+00  1.50000000E+00
  1.20000000E+00  1.20000000E+00  1.50000000E+00  1.20000000E+00  1.20000000E+00
  1.50000000E+00  1.20000000E+00  1.20000000E+00  1.50000000E+00  1.20000000E+00
  1.20000000E+00  1.50000000E+00  1.20000000E+00  1.20000000E+00  1.50000000E+00
  1.20000000E+00  1.20000000E+00  1.50000000E+00  1.20000000E+00  1.20000000E+00
  1.50000000E+00  1.20000000E+00  1.20000000E+00  1.50000000E+00  1.20000000E+00
  1.20000000E+00  1.50000000E+00  1.20000000E+00  1.20000000E+00  1.50000000E+00
  1.20000000E+00  1.20000000E+00  1.50000000E+00  1.20000000E+00  1.20000000E+00
  1.50000000E+00  1.20000000E+00  1.20000000E+00  1.50000000E+00  1.20000000E+00
  1.20000000E+00  1.50000000E+00  1.20000000E+00  1.20000000E+00  1.50000000E+00
  1.20000000E+00  1.20000000E+00  1.50000000E+00  1.20000000E+00  1.20000000E+00
  1.50000000E+00  1.20000000E+00  1.20000000E+00  1.50000000E+00  1.20000000E+00
  1.20000000E+00  1.50000000E+00  1.20000000E+00  1.20000000E+00  1.50000000E+00
  1.20000000E+00  1.20000000E+00  1.50000000E+00  1.20000000E+00  1.20000000E+00
  1.50000000E+00  1.20000000E+00  1.20000000E+00  1.50000000E+00  1.20000000E+00
  1.20000000E+00  1.50000000E+00  1.20000000E+00  1.20000000E+00  1.50000000E+00
  1.20000000E+00  1.20000000E+00  1.50000000E+00  1.20000000E+00  1.20000000E+00
  1.50000000E+00  1.20000000E+00  1.20000000E+00  1.50000000E+00  1.20000000E+00
  1.20000000E+00  1.50000000E+00  1.20000000E+00  1.20000000E+00  1.50000000E+00
  1.20000000E+00  1.20000000E+00  1.50000000E+00  1.20000000E+00  1.20000000E+00
  1.50000000E+00  1.20000000E+00  1.20000000E+00  1.50000000E+00  1.20000000E+00
  1.20000000E+00  1.50000000E+00  1.20000000E+00  1.20000000E+00  1.50000000E+00
  1.20000000E+00  1.20000000E+00  1.50000000E+00  1.20000000E+00  1.20000000E+00
  1.50000000E+00  1.20000000E+00  1.20000000E+00  1.50000000E+00  1.20000000E+00
  1.20000000E+00  1.50000000E+00  1.20000000E+00  1.20000000E+00  1.50000000E+00
  1.20000000E+00  1.20000000E+00  1.50000000E+00  1.20000000E+00  1.20000000E+00
  1.50000000E+00  1.20000000E+00  1.20000000E+00  1.50000000E+00  1.20000000E+00
  1.20000000E+00  1.50000000E+00  1.20000000E+00  1.20000000E+00  1.50000000E+00
  1.20000000E+00  1.20000000E+00  1.50000000E+00  1.20000000E+00  1.20000000E+00
  1.50000000E+00  1.20000000E+00  1.20000000E+00  1.50000000E+00  1.20000000E+00
  1.20000000E+00  1.50000000E+00  1.20000000E+00  1.20000000E+00  1.50000000E+00
  1.20000000E+00  1.20000000E+00  1.50000000E+00  1.20000000E+00  1.20000000E+00
  1.50000000E+00  1.20000000E+00  1.20000000E+00  1.50000000E+00  1.20000000E+00
  1.20000000E+00  1.50000000E+00  1.20000000E+00  1.20000000E+00  1.50000000E+00
  1.20000000E+00  1.20000000E+00  1.50000000E+00  1.20000000E+00  1.20000000E+00
  1.50000000E+00  1.20000000E+00  1.20000000E+00  1.50000000E+00  1.20000000E+00
  1.20000000E+00  1.50000000E+00  1.20000000E+00  1.20000000E+00  1.50000000E+00
  1.20000000E+00  1.20000000E+00  1.50000000E+00  1.20000000E+00  1.20000000E+00
  1.50000000E+00  1.20000000E+00  1.20000000E+00  1.50000000E+00  1.20000000E+00
  1.20000000E+00  1.50000000E+00  1.20000000E+00  1.20000000E+00  1.50000000E+00
  1.20000000E+00  1.20000000E+00  1.50000000E+00  1.20000000E+00  1.20000000E+00
  1.50000000E+00  1.20000000E+00  1.20000000E+00  1.50000000E+00  1.20000000E+00
  1.20000000E+00  1.50000000E+00  1.20000000E+00  1.20000000E+00  1.50000000E+00
  1.20000000E+00  1.20000000E+00  1.50000000E+00  1.20000000E+00  1.20000000E+00
  1.50000000E+00  1.20000000E+00  1.20000000E+00  1.50000000E+00  1.20000000E+00
  1.20000000E+00  1.50000000E+00  1.20000000E+00  1.20000000E+00  1.50000000E+00
  1.20000000E+00  1.20000000E+00  1.50000000E+00  1.20000000E+00  1.20000000E+00
  1.50000000E+00  1.20000000E+00  1.20000000E+00  1.50000000E+00  1.20000000E+00
  1.20000000E+00  1.50000000E+00  1.20000000E+00  1.20000000E+00  1.50000000E+00
  1.20000000E+00  1.20000000E+00  1.50000000E+00  1.20000000E+00  1.20000000E+00
  1.50000000E+00  1.20000000E+00  1.20000000E+00  1.50000000E+00  1.20000000E+00
  1.20000000E+00  1.50000000E+00  1.20000000E+00  1.20000000E+00  1.50000000E+00
  1.20000000E+00  1.20000000E+00  1.50000000E+00  1.20000000E+00  1.20000000E+00
  1.50000000E+00  1.20000000E+00  1.20000000E+00  1.50000000E+00  1.20000000E+00
  1.20000000E+00  1.50000000E+00  1.20000000E+00  1.20000000E+00  1.50000000E+00
  1.20000000E+00  1.20000000E+00  1.50000000E+00  1.20000000E+00  1.20000000E+00
  1.50000000E+00  1.20000000E+00  1.20000000E+00  1.50000000E+00  1.20000000E+00
  1.20000000E+00  1.50000000E+00  1.20000000E+00  1.20000000E+00  1.50000000E+00
  1.20000000E+00  1.20000000E+00  1.50000000E+00  1.20000000E+00  1.20000000E+00
  1.50000000E+00  1.20000000E+00  1.20000000E+00  1.50000000E+00  1.20000000E+00
  1.20000000E+00  1.50000000E+00  1.20000000E+00  1.20000000E+00  1.50000000E+00
  1.20000000E+00  1.20000000E+00  1.50000000E+00  1.20000000E+00  1.20000000E+00
  1.50000000E+00  1.20000000E+00  1.20000000E+00  1.50000000E+00  1.20000000E+00
  1.20000000E+00  1.50000000E+00  1.20000000E+00  1.20000000E+00  1.50000000E+00
  1.20000000E+00  1.20000000E+00  1.50000000E+00  1.20000000E+00  1.20000000E+00
  1.50000000E+00  1.20000000E+00  1.20000000E+00  1.50000000E+00  1.20000000E+00
  1.20000000E+00  1.50000000E+00  1.20000000E+00  1.20000000E+00  1.50000000E+00
  1.20000000E+00  1.20000000E+00  1.50000000E+00  1.20000000E+00  1.20000000E+00
  1.50000000E+00  1.20000000E+00  1.20000000E+00  1.50000000E+00  1.20000000E+00
  1.20000000E+00  1.50000000E+00  1.20000000E+00  1.20000000E+00  1.50000000E+00
  1.20000000E+00  1.20000000E+00  1.50000000E+00  1.20000000E+00  1.20000000E+00
  1.50000000E+00  1.20000000E+00  1.20000000E+00  1.50000000E+00  1.20000000E+00
  1.20000000E+00  1.50000000E+00  1.20000000E+00  1.20000000E+00  1.50000000E+00
  1.20000000E+00  1.20000000E+00  1.50000000E+00  1.20000000E+00  1.20000000E+00
  1.50000000E+00  1.20000000E+00  1.20000000E+00  1.50000000E+00  1.20000000E+00
  1.20000000E+00  1.50000000E+00  1.20000000E+00  1.20000000E+00  1.50000000E+00
  1.20000000E+00  1.20000000E+00  1.50000000E+00  1.20000000E+00  1.20000000E+00
  1.50000000E+00  1.20000000E+00  1.20000000E+00  1.50000000E+00  1.20000000E+00
  1.20000000E+00  1.50000000E+00  1.20000000E+00  1.20000000E+00  1.50000000E+00
  1.20000000E+00  1.20000000E+00  1.50000000E+00  1.20000000E+00  1.20000000E+00
  1.50000000E+00  1.20000000E+00  1.20000000E+00  1.50000000E+00  1.20000000E+00
  1.20000000E+00  1.50000000E+00  1.20000000E+00  1.20000000E+00  1.50000000E+00
  1.20000000E+00  1.20000000E+00  1.50000000E+00  1.20000000E+00  1.20000000E+00
  1.50000000E+00  1.20000000E+00  1.20000000E+00  1.50000000E+00  1.20000000E+00
  1.20000000E+00  1.50000000E+00  1.20000000E+00  1.20000000E+00  1.50000000E+00
  1.20000000E+00  1.20000000E+00  1.50000000E+00  1.20000000E+00  1.20000000E+00
  1.50000000E+00  1.20000000E+00  1.20000000E+00  1.50000000E+00  1.20000000E+00
  1.20000000E+00  1.50000000E+00  1.20000000E+00  1.20000000E+00  1.50000000E+00
  1.20000000E+00  1.20000000E+00  1.50000000E+00  1.20000000E+00  1.20000000E+00
  1.50000000E+00  1.20000000E+00  1.20000000E+00  1.50000000E+00  1.20000000E+00
  1.20000000E+00  1.50000000E+00  1.20000000E+00  1.20000000E+00  1.50000000E+00
  1.20000000E+00  1.20000000E+00  1.50000000E+00  1.20000000E+00  1.20000000E+00
  1.50000000E+00  1.20000000E+00  1.20000000E+00  1.50000000E+00  1.20000000E+00
  1.20000000E+00  1.50000000E+00  1.20000000E+00  1.20000000E+00  1.50000000E+00
  1.20000000E+00  1.20000000E+00  1.50000000E+00  1.20000000E+00  1.20000000E+00
  1.50000000E+00  1.20000000E+00  1.20000000E+00  1.50000000E+00  1.20000000E+00
  1.20000000E+00  1.50000000E+00  1.20000000E+00  1.20000000E+00  1.50000000E+00
  1.20000000E+00  1.20000000E+00  1.50000000E+00  1.20000000E+00  1.20000000E+00
  1.50000000E+00  1.20000000E+00  1.20000000E+00  1.50000000E+00  1.20000000E+00
  1.20000000E+00  1.50000000E+00  1.20000000E+00  1.20000000E+00  1.50000000E+00
  1.20000000E+00  1.20000000E+00  1.50000000E+00  1.20000000E+00  1.20000000E+00
  1.50000000E+00  1.20000000E+00  1.20000000E+00  1.50000000E+00  1.20000000E+00
  1.20000000E+00  1.50000000E+00  1.20000000E+00  1.20000000E+00  1.50000000E+00
  1.20000000E+00  1.20000000E+00  1.50000000E+00  1.20000000E+00  1.20000000E+00
  1.50000000E+00  1.20000000E+00  1.20000000E+00  1.50000000E+00  1.20000000E+00
  1.20000000E+00  1.50000000E+00  1.20000000E+00  1.20000000E+00  1.50000000E+00
  1.20000000E+00  1.20000000E+00  1.50000000E+00  1.20000000E+00  1.20000000E+00
  1.50000000E+00  1.20000000E+00  1.20000000E+00  1.50000000E+00  1.20000000E+00
  1.20000000E+00  1.50000000E+00  1.20000000E+00  1.20000000E+00  1.50000000E+00
  1.20000000E+00  1.20000000E+00  1.50000000E+00  1.20000000E+00  1.20000000E+00
  1.50000000E+00  1.20000000E+00  1.20000000E+00  1.50000000E+00  1.20000000E+00
  1.20000000E+00  1.50000000E+00  1.20000000E+00  1.20000000E+00  1.50000000E+00
  1.20000000E+00  1.20000000E+00  1.50000000E+00  1.20000000E+00  1.20000000E+00
  1.50000000E+00  1.20000000E+00  1.20000000E+00  1.50000000E+00  1.20000000E+00
  1.20000000E+00  1.50000000E+00  1.20000000E+00  1.20000000E+00  1.50000000E+00
  1.20000000E+00  1.20000000E+00  1.50000000E+00  1.20000000E+00  1.20000000E+00
  1.50000000E+00  1.20000000E+00  1.20000000E+00  1.50000000E+00  1.20000000E+00
  1.20000000E+00  1.50000000E+00  1.20000000E+00  1.20000000E+00  1.50000000E+00
  1.20000000E+00  1.20000000E+00  1.50000000E+00  1.20000000E+00  1.20000000E+00
  1.50000000E+00  1.20000000E+00  1.20000000E+00  1.50000000E+00  1.20000000E+00
  1.20000000E+00  1.50000000E+00  1.20000000E+00  1.20000000E+00  1.50000000E+00
  1.20000000E+00  1.20000000E+00  1.50000000E+00  1.20000000E+00  1.20000000E+00
  1.50000000E+00  1.20000000E+00  1.20000000E+00  1.50000000E+00  1.20000000E+00
  1.20000000E+00  1.50000000E+00  1.20000000E+00  1.20000000E+00  1.50000000E+00
  1.20000000E+00  1.20000000E+00  1.50000000E+00  1.20000000E+00  1.20000000E+00
  1.50000000E+00  1.20000000E+00  1.20000000E+00  1.50000000E+00  1.20000000E+00
  1.20000000E+00  1.50000000E+00  1.20000000E+00  1.20000000E+00  1.50000000E+00
  1.20000000E+00  1.20000000E+00  1.50000000E+00  1.20000000E+00  1.20000000E+00
  1.50000000E+00  1.20000000E+00  1.20000000E+00  1.50000000E+00  1.20000000E+00
  1.20000000E+00  1.50000000E+00  1.20000000E+00  1.20000000E+00  1.50000000E+00
  1.20000000E+00  1.20000000E+00  1.50000000E+00  1.20000000E+00  1.20000000E+00
  1.50000000E+00  1.20000000E+00  1.20000000E+00  1.50000000E+00  1.20000000E+00
  1.20000000E+00  1.50000000E+00  1.20000000E+00  1.20000000E+00  1.50000000E+00
  1.20000000E+00  1.20000000E+00  1.50000000E+00  1.20000000E+00  1.20000000E+00
  1.50000000E+00  1.20000000E+00  1.20000000E+00  1.50000000E+00  1.20000000E+00
  1.20000000E+00  1.50000000E+00  1.20000000E+00  1.20000000E+00  1.50000000E+00
  1.20000000E+00  1.20000000E+00  1.50000000E+00  1.20000000E+00  1.20000000E+00
  1.50000000E+00  1.20000000E+00  1.20000000E+00  1.50000000E+00  1.20000000E+00
  1.20000000E+00  1.50000000E+00  1.20000000E+00  1.20000000E+00  1.50000000E+00
  1.20000000E+00  1.20000000E+00  1.50000000E+00  1.20000000E+00  1.20000000E+00
  1.50000000E+00  1.20000000E+00  1.20000000E+00  1.50000000E+00  1.20000000E+00
  1.20000000E+00  1.50000000E+00  1.20000000E+00  1.20000000E+00  1.50000000E+00
  1.20000000E+00  1.20000000E+00  1.50000000E+00  1.20000000E+00  1.20000000E+00
  1.50000000E+00  1.20000000E+00  1.20000000E+00  1.50000000E+00  1.20000000E+00
  1.20000000E+00  1.50000000E+00  1.20000000E+00  1.20000000E+00  1.50000000E+00
  1.20000000E+00  1.20000000E+00  1.50000000E+00  1.20000000E+00  1.20000000E+00
  1.50000000E+00  1.20000000E+00  1.20000000E+00  1.50000000E+00  1.20000000E+00
  1.20000000E+00  1.50000000E+00  1.20000000E+00  1.20000000E+00  1.50000000E+00
  1.20000000E+00  1.20000000E+00  1.50000000E+00  1.20000000E+00  1.20000000E+00
  1.50000000E+00  1.20000000E+00  1.20000000E+00  1.50000000E+00  1.20000000E+00
  1.20000000E+00  1.50000000E+00  1.20000000E+00  1.20000000E+00  1.50000000E+00
  1.20000000E+00  1.20000000E+00  1.50000000E+00  1.20000000E+00  1.20000000E+00
  1.50000000E+00  1.20000000E+00  1.20000000E+00  1.50000000E+00  1.20000000E+00
  1.20000000E+00  1.50000000E+00  1.20000000E+00  1.20000000E+00  1.50000000E+00
  1.20000000E+00  1.20000000E+00  1.50000000E+00  1.20000000E+00  1.20000000E+00
  1.50000000E+00  1.20000000E+00  1.20000000E+00  1.50000000E+00  1.20000000E+00
  1.20000000E+00  1.50000000E+00  1.20000000E+00  1.20000000E+00  1.50000000E+00
  1.20000000E+00  1.20000000E+00  1.50000000E+00  1.20000000E+00  1.20000000E+00
  1.50000000E+00  1.20000000E+00  1.20000000E+00  1.50000000E+00  1.20000000E+00
  1.20000000E+00  1.50000000E+00  1.20000000E+00  1.20000000E+00  1.50000000E+00
  1.20000000E+00  1.20000000E+00  1.50000000E+00  1.20000000E+00  1.20000000E+00
  1.50000000E+00  1.20000000E+00  1.20000000E+00  1.50000000E+00  1.20000000E+00
  1.20000000E+00  1.50000000E+00  1.20000000E+00  1.20000000E+00  1.50000000E+00
  1.20000000E+00  1.20000000E+00  1.50000000E+00  1.20000000E+00  1.20000000E+00
  1.50000000E+00  1.20000000E+00  1.20000000E+00  1.50000000E+00  1.20000000E+00
  1.20000000E+00  1.50000000E+00  1.20000000E+00  1.20000000E+00  1.50000000E+00
  1.20000000E+00  1.20000000E+00  1.50000000E+00  1.20000000E+00  1.20000000E+00
  1.50000000E+00  1.20000000E+00  1.20000000E+00  1.50000000E+00  1.20000000E+00
  1.20000000E+00  1.50000000E+00  1.20000000E+00  1.20000000E+00  1.50000000E+00
  1.20000000E+00  1.20000000E+00  1.50000000E+00  1.20000000E+00  1.20000000E+00
  1.50000000E+00  1.20000000E+00  1.20000000E+00  1.50000000E+00  1.20000000E+00
  1.20000000E+00  1.50000000E+00  1.20000000E+00  1.20000000E+00  1.50000000E+00
  1.20000000E+00  1.20000000E+00  1.50000000E+00  1.20000000E+00  1.20000000E+00
  1.50000000E+00  1.20000000E+00  1.20000000E+00  1.50000000E+00  1.20000000E+00
  1.20000000E+00  1.50000000E+00  1.20000000E+00  1.20000000E+00  1.50000000E+00
  1.20000000E+00  1.20000000E+00  1.50000000E+00  1.20000000E+00  1.20000000E+00
  1.50000000E+00  1.20000000E+00  1.20000000E+00  1.50000000E+00  1.20000000E+00
  1.20000000E+00  1.50000000E+00  1.20000000E+00  1.20000000E+00  1.50000000E+00
  1.20000000E+00  1.20000000E+00  1.50000000E+00  1.20000000E+00  1.20000000E+00
  1.50000000E+00  1.20000000E+00  1.20000000E+00  1.50000000E+00  1.20000000E+00
  1.20000000E+00  1.50000000E+00  1.20000000E+00  1.20000000E+00  1.50000000E+00
  1.20000000E+00  1.20000000E+00  1.50000000E+00  1.20000000E+00  1.20000000E+00
  1.50000000E+00  1.20000000E+00  1.20000000E+00  1.50000000E+00  1.20000000E+00
  1.20000000E+00  1.50000000E+00  1.20000000E+00  1.20000000E+00  1.50000000E+00
  1.20000000E+00  1.20000000E+00  1.50000000E+00  1.20000000E+00  1.20000000E+00
  1.50000000E+00  1.20000000E+00  1.20000000E+00  1.50000000E+00  1.20000000E+00
  1.20000000E+00  1.50000000E+00  1.20000000E+00  1.20000000E+00  1.50000000E+00
  1.20000000E+00  1.20000000E+00  1.50000000E+00  1.20000000E+00  1.20000000E+00
  1.50000000E+00  1.20000000E+00  1.20000000E+00  1.50000000E+00  1.20000000E+00
  1.20000000E+00  1.50000000E+00  1.20000000E+00  1.20000000E+00  1.50000000E+00
  1.20000000E+00  1.20000000E+00  1.50000000E+00  1.20000000E+00  1.20000000E+00
  1.50000000E+00  1.20000000E+00  1.20000000E+00  1.50000000E+00  1.20000000E+00
  1.20000000E+00  1.50000000E+00  1.20000000E+00  1.20000000E+00  1.50000000E+00
  1.20000000E+00  1.20000000E+00  1.50000000E+00  1.20000000E+00  1.20000000E+00
  1.50000000E+00  1.20000000E+00  1.20000000E+00  1.50000000E+00  1.20000000E+00
  1.20000000E+00  1.50000000E+00  1.20000000E+00  1.20000000E+00  1.50000000E+00
  1.20000000E+00  1.20000000E+00  1.50000000E+00  1.20000000E+00  1.20000000E+00
  1.50000000E+00  1.20000000E+00  1.20000000E+00  1.50000000E+00  1.20000000E+00
  1.20000000E+00  1.50000000E+00  1.20000000E+00  1.20000000E+00  1.50000000E+00
  1.20000000E+00  1.20000000E+00  1.50000000E+00  1.20000000E+00  1.20000000E+00
  1.50000000E+00  1.20000000E+00  1.20000000E+00  1.50000000E+00  1.20000000E+00
  1.20000000E+00  1.50000000E+00  1.20000000E+00  1.20000000E+00  1.50000000E+00
  1.20000000E+00  1.20000000E+00  1.50000000E+00  1.20000000E+00  1.20000000E+00
  1.50000000E+00  1.20000000E+00  1.20000000E+00  1.50000000E+00  1.20000000E+00
  1.20000000E+00  1.50000000E+00  1.20000000E+00  1.20000000E+00  1.50000000E+00
  1.20000000E+00  1.20000000E+00  1.50000000E+00  1.20000000E+00  1.20000000E+00
  1.50000000E+00  1.20000000E+00  1.20000000E+00  1.50000000E+00  1.20000000E+00
  1.20000000E+00  1.50000000E+00  1.20000000E+00  1.20000000E+00  1.50000000E+00
  1.20000000E+00  1.20000000E+00  1.50000000E+00  1.20000000E+00  1.20000000E+00
  1.50000000E+00  1.20000000E+00  1.20000000E+00  1.50000000E+00  1.20000000E+00
  1.20000000E+00  1.50000000E+00  1.20000000E+00  1.20000000E+00  1.50000000E+00
  1.20000000E+00  1.20000000E+00  1.50000000E+00  1.20000000E+00  1.20000000E+00
  1.50000000E+00  1.20000000E+00  1.20000000E+00  1.50000000E+00  1.20000000E+00
  1.20000000E+00  1.50000000E+00  1.20000000E+00  1.20000000E+00  1.50000000E+00
  1.20000000E+00  1.20000000E+00  1.50000000E+00  1.20000000E+00  1.20000000E+00
  1.50000000E+00  1.20000000E+00  1.20000000E+00  1.50000000E+00  1.20000000E+00
  1.20000000E+00  1.50000000E+00  1.20000000E+00  1.20000000E+00  1.50000000E+00
  1.20000000E+00  1.20000000E+00  1.50000000E+00  1.20000000E+00  1.20000000E+00
  1.50000000E+00  1.20000000E+00  1.20000000E+00  1.50000000E+00  1.20000000E+00
  1.20000000E+00  1.50000000E+00  1.20000000E+00  1.20000000E+00  1.50000000E+00
  1.20000000E+00  1.20000000E+00  1.50000000E+00  1.20000000E+00  1.20000000E+00
  1.50000000E+00  1.20000000E+00  1.20000000E+00  1.50000000E+00  1.20000000E+00
  1.20000000E+00  1.50000000E+00  1.20000000E+00  1.20000000E+00  1.50000000E+00
  1.20000000E+00  1.20000000E+00  1.50000000E+00  1.20000000E+00  1.20000000E+00
  1.50000000E+00  1.20000000E+00  1.20000000E+00  1.50000000E+00  1.20000000E+00
  1.20000000E+00  1.50000000E+00  1.20000000E+00  1.20000000E+00  1.50000000E+00
  1.20000000E+00  1.20000000E+00  1.50000000E+00  1.20000000E+00  1.20000000E+00
  1.50000000E+00  1.20000000E+00  1.20000000E+00  1.50000000E+00  1.20000000E+00
  1.20000000E+00  1.50000000E+00  1.20000000E+00  1.20000000E+00  1.50000000E+00
  1.20000000E+00  1.20000000E+00  1.50000000E+00  1.20000000E+00  1.20000000E+00
  1.50000000E+00  1.20000000E+00  1.20000000E+00  1.50000000E+00  1.20000000E+00
  1.20000000E+00  1.50000000E+00  1.20000000E+00  1.20000000E+00  1.50000000E+00
  1.20000000E+00  1.20000000E+00  1.50000000E+00  1.20000000E+00  1.20000000E+00
  1.50000000E+00  1.20000000E+00  1.20000000E+00  1.50000000E+00  1.20000000E+00
  1.20000000E+00  1.50000000E+00  1.20000000E+00  1.20000000E+00  1.50000000E+00
  1.20000000E+00  1.20000000E+00  1.50000000E+00  1.20000000E+00  1.20000000E+00
  1.50000000E+00  1.20000000E+00  1.20000000E+00  1.50000000E+00  1.20000000E+00
  1.20000000E+00  1.50000000E+00  1.20000000E+00  1.20000000E+00  1.50000000E+00
  1.20000000E+00  1.20000000E+00  1.50000000E+00  1.20000000E+00  1.20000000E+00
  1.50000000E+00  1.20000000E+00  1.20000000E+00  1.50000000E+00  1.20000000E+00
  1.20000000E+00  1.50000000E+00  1.20000000E+00  1.20000000E+00  1.50000000E+00
  1.20000000E+00  1.20000000E+00  1.50000000E+00  1.20000000E+00  1.20000000E+00
  1.50000000E+00  1.20000000E+00  1.20000000E+00  1.50000000E+00  1.20000000E+00
  1.20000000E+00  1.50000000E+00  1.20000000E+00  1.20000000E+00  1.50000000E+00
  1.20000000E+00  1.20000000E+00  1.50000000E+00  1.20000000E+00  1.20000000E+00
  1.50000000E+00  1.20000000E+00  1.20000000E+00  1.50000000E+00  1.20000000E+00
  1.20000000E+00  1.50000000E+00  1.20000000E+00  1.20000000E+00  1.50000000E+00
  1.20000000E+00  1.20000000E+00  1.50000000E+00  1.20000000E+00  1.20000000E+00
  1.50000000E+00  1.20000000E+00  1.20000000E+00  1.50000000E+00  1.20000000E+00
  1.20000000E+00  1.50000000E+00  1.20000000E+00  1.20000000E+00  1.50000000E+00
  1.20000000E+00  1.20000000E+00  1.50000000E+00  1.20000000E+00  1.20000000E+00
  1.50000000E+00  1.20000000E+00  1.20000000E+00  1.50000000E+00  1.20000000E+00
  1.20000000E+00  1.50000000E+00  1.20000000E+00  1.20000000E+00  1.50000000E+00
  1.20000000E+00  1.20000000E+00  1.50000000E+00  1.20000000E+00  1.20000000E+00
  1.50000000E+00  1.20000000E+00  1.20000000E+00  1.50000000E+00  1.20000000E+00
  1.20000000E+00  1.50000000E+00  1.20000000E+00  1.20000000E+00  1.50000000E+00
  1.20000000E+00  1.20000000E+00  1.50000000E+00  1.20000000E+00  1.20000000E+00
  1.50000000E+00  1.20000000E+00  1.20000000E+00  1.50000000E+00  1.20000000E+00
  1.20000000E+00  1.50000000E+00  1.20000000E+00  1.20000000E+00  1.50000000E+00
  1.20000000E+00  1.20000000E+00  1.50000000E+00  1.20000000E+00  1.20000000E+00
  1.50000000E+00  1.20000000E+00  1.20000000E+00  1.50000000E+00  1.20000000E+00
  1.20000000E+00  1.50000000E+00  1.20000000E+00  1.20000000E+00  1.50000000E+00
  1.20000000E+00  1.20000000E+00  1.50000000E+00  1.20000000E+00  1.20000000E+00
  1.50000000E+00  1.20000000E+00  1.20000000E+00  1.50000000E+00  1.20000000E+00
  1.20000000E+00  1.50000000E+00  1.20000000E+00  1.20000000E+00  1.50000000E+00
  1.20000000E+00  1.20000000E+00  1.50000000E+00  1.20000000E+00  1.20000000E+00
  1.50000000E+00  1.20000000E+00  1.20000000E+00  1.50000000E+00  1.20000000E+00
  1.20000000E+00  1.50000000E+00  1.20000000E+00  1.20000000E+00  1.50000000E+00
  1.20000000E+00  1.20000000E+00  1.50000000E+00  1.20000000E+00  1.20000000E+00
  1.50000000E+00  1.20000000E+00  1.20000000E+00  1.50000000E+00  1.20000000E+00
  1.20000000E+00  1.50000000E+00  1.20000000E+00  1.20000000E+00  1.50000000E+00
  1.20000000E+00  1.20000000E+00  1.50000000E+00  1.20000000E+00  1.20000000E+00
  1.50000000E+00  1.20000000E+00  1.20000000E+00  1.50000000E+00  1.20000000E+00
  1.20000000E+00  1.50000000E+00  1.20000000E+00  1.20000000E+00  1.50000000E+00
  1.20000000E+00  1.20000000E+00  1.50000000E+00  1.20000000E+00  1.20000000E+00
  1.50000000E+00  1.20000000E+00  1.20000000E+00  1.50000000E+00  1.20000000E+00
  1.20000000E+00  1.50000000E+00  1.20000000E+00  1.20000000E+00  1.50000000E+00
  1.20000000E+00  1.20000000E+00  1.50000000E+00  1.20000000E+00  1.20000000E+00
  1.50000000E+00  1.20000000E+00  1.20000000E+00  1.50000000E+00  1.20000000E+00
  1.20000000E+00  1.50000000E+00  1.20000000E+00  1.20000000E+00  1.50000000E+00
  1.20000000E+00  1.20000000E+00  1.50000000E+00  1.20000000E+00  1.20000000E+00
  1.50000000E+00  1.20000000E+00  1.20000000E+00  1.50000000E+00  1.20000000E+00
  1.20000000E+00  1.50000000E+00  1.20000000E+00  1.20000000E+00  1.50000000E+00
  1.20000000E+00  1.20000000E+00  1.50000000E+00  1.20000000E+00  1.20000000E+00
  1.50000000E+00  1.20000000E+00  1.20000000E+00  1.50000000E+00  1.20000000E+00
  1.20000000E+00  1.50000000E+00  1.20000000E+00  1.20000000E+00  1.50000000E+00
  1.20000000E+00  1.20000000E+00  1.50000000E+00  1.20000000E+00  1.20000000E+00
  1.50000000E+00  1.20000000E+00  1.20000000E+00  1.50000000E+00  1.20000000E+00
  1.20000000E+00  1.50000000E+00  1.20000000E+00  1.20000000E+00  1.50000000E+00
  1.20000000E+00  1.20000000E+00  1.50000000E+00  1.20000000E+00  1.20000000E+00
  1.50000000E+00  1.20000000E+00  1.20000000E+00  1.50000000E+00  1.20000000E+00
  1.20000000E+00  1.50000000E+00  1.20000000E+00  1.20000000E+00  1.50000000E+00
  1.20000000E+00  1.20000000E+00  1.50000000E+00  1.20000000E+00  1.20000000E+00
  1.50000000E+00  1.20000000E+00  1.20000000E+00  1.50000000E+00  1.20000000E+00
  1.20000000E+00  1.50000000E+00  1.20000000E+00  1.20000000E+00  1.50000000E+00
  1.20000000E+00  1.20000000E+00  1.50000000E+00  1.20000000E+00  1.20000000E+00
  1.50000000E+00  1.20000000E+00  1.20000000E+00  1.50000000E+00  1.20000000E+00
  1.20000000E+00  1.50000000E+00  1.20000000E+00  1.20000000E+00  1.50000000E+00
  1.20000000E+00  1.20000000E+00  1.50000000E+00  1.20000000E+00  1.20000000E+00
  1.50000000E+00  1.20000000E+00  1.20000000E+00  1.50000000E+00  1.20000000E+00
  1.20000000E+00  1.50000000E+00  1.20000000E+00  1.20000000E+00  1.50000000E+00
  1.20000000E+00  1.20000000E+00  1.50000000E+00  1.20000000E+00  1.20000000E+00
  1.50000000E+00  1.20000000E+00  1.20000000E+00  1.50000000E+00  1.20000000E+00
  1.20000000E+00  1.50000000E+00  1.20000000E+00  1.20000000E+00  1.50000000E+00
  1.20000000E+00  1.20000000E+00  1.50000000E+00  1.20000000E+00  1.20000000E+00
  1.50000000E+00  1.20000000E+00  1.20000000E+00  1.50000000E+00  1.20000000E+00
  1.20000000E+00  1.50000000E+00  1.20000000E+00  1.20000000E+00  1.50000000E+00
  1.20000000E+00  1.20000000E+00  1.50000000E+00  1.20000000E+00  1.20000000E+00
  1.50000000E+00  1.20000000E+00  1.20000000E+00  1.50000000E+00  1.20000000E+00
  1.20000000E+00  1.50000000E+00  1.20000000E+00  1.20000000E+00  1.50000000E+00
  1.20000000E+00  1.20000000E+00  1.50000000E+00  1.20000000E+00  1.20000000E+00
  1.50000000E+00  1.20000000E+00  1.20000000E+00  1.50000000E+00  1.20000000E+00
  1.20000000E+00  1.50000000E+00  1.20000000E+00  1.20000000E+00  1.50000000E+00
  1.20000000E+00  1.20000000E+00  1.50000000E+00  1.20000000E+00  1.20000000E+00
  1.50000000E+00  1.20000000E+00  1.20000000E+00  1.50000000E+00  1.20000000E+00
  1.20000000E+00  1.50000000E+00  1.20000000E+00  1.20000000E+00  1.50000000E+00
  1.20000000E+00  1.20000000E+00  1.50000000E+00  1.20000000E+00  1.20000000E+00
  1.50000000E+00  1.20000000E+00  1.20000000E+00  1.50000000E+00  1.20000000E+00
  1.20000000E+00  1.50000000E+00  1.20000000E+00  1.20000000E+00  1.50000000E+00
  1.20000000E+00  1.20000000E+00  1.50000000E+00  1.20000000E+00  1.20000000E+00
  1.50000000E+00  1.20000000E+00  1.20000000E+00  1.50000000E+00  1.20000000E+00
  1.20000000E+00  1.50000000E+00  1.20000000E+00  1.20000000E+00  1.50000000E+00
  1.20000000E+00  1.20000000E+00  1.50000000E+00  1.20000000E+00  1.20000000E+00
  1.50000000E+00  1.20000000E+00  1.20000000E+00  1.50000000E+00  1.20000000E+00
  1.20000000E+00  1.50000000E+00  1.20000000E+00  1.20000000E+00  1.50000000E+00
  1.20000000E+00  1.20000000E+00  1.50000000E+00  1.20000000E+00  1.20000000E+00
  1.50000000E+00  1.20000000E+00  1.20000000E+00  1.50000000E+00  1.20000000E+00
  1.20000000E+00  1.50000000E+00  1.20000000E+00  1.20000000E+00  1.50000000E+00
  1.20000000E+00  1.20000000E+00  1.50000000E+00  1.20000000E+00  1.20000000E+00
  1.50000000E+00  1.20000000E+00  1.20000000E+00  1.50000000E+00  1.20000000E+00
  1.20000000E+00  1.50000000E+00  1.20000000E+00  1.20000000E+00  1.50000000E+00
  1.20000000E+00  1.20000000E+00  1.50000000E+00  1.20000000E+00  1.20000000E+00
  1.50000000E+00  1.20000000E+00  1.20000000E+00  1.50000000E+00  1.20000000E+00
  1.20000000E+00  1.50000000E+00  1.20000000E+00  1.20000000E+00  1.50000000E+00
  1.20000000E+00  1.20000000E+00  1.50000000E+00  1.20000000E+00  1.20000000E+00
  1.50000000E+00  1.20000000E+00  1.20000000E+00  1.50000000E+00  1.20000000E+00
  1.20000000E+00  1.50000000E+00  1.20000000E+00  1.20000000E+00  1.50000000E+00
  1.20000000E+00  1.20000000E+00  1.50000000E+00  1.20000000E+00  1.20000000E+00
  1.50000000E+00  1.20000000E+00  1.20000000E+00  1.50000000E+00  1.20000000E+00
  1.20000000E+00  1.50000000E+00  1.20000000E+00  1.20000000E+00  1.50000000E+00
  1.20000000E+00  1.20000000E+00  1.50000000E+00  1.20000000E+00  1.20000000E+00
  1.50000000E+00  1.20000000E+00  1.20000000E+00  1.50000000E+00  1.20000000E+00
  1.20000000E+00  1.50000000E+00  1.20000000E+00  1.20000000E+00  1.50000000E+00
  1.20000000E+00  1.20000000E+00  1.50000000E+00  1.20000000E+00  1.20000000E+00
  1.50000000E+00  1.20000000E+00  1.20000000E+00  1.50000000E+00  1.20000000E+00
  1.20000000E+00  1.50000000E+00  1.20000000E+00  1.20000000E+00  1.50000000E+00
  1.20000000E+00  1.20000000E+00  1.50000000E+00  1.20000000E+00  1.20000000E+00
  1.50000000E+00  1.20000000E+00  1.20000000E+00  1.50000000E+00  1.20000000E+00
  1.20000000E+00  1.50000000E+00  1.20000000E+00  1.20000000E+00  1.50000000E+00
  1.20000000E+00  1.20000000E+00  1.50000000E+00  1.20000000E+00  1.20000000E+00
  1.50000000E+00  1.20000000E+00  1.20000000E+00  1.50000000E+00  1.20000000E+00
  1.20000000E+00  1.50000000E+00  1.20000000E+00  1.20000000E+00  1.50000000E+00
  1.20000000E+00  1.20000000E+00  1.50000000E+00  1.20000000E+00  1.20000000E+00
  1.50000000E+00  1.20000000E+00  1.20000000E+00  1.50000000E+00  1.20000000E+00
  1.20000000E+00  1.50000000E+00  1.20000000E+00  1.20000000E+00  1.50000000E+00
  1.20000000E+00  1.20000000E+00  1.50000000E+00  1.20000000E+00  1.20000000E+00
  1.50000000E+00  1.20000000E+00  1.20000000E+00  1.50000000E+00  1.20000000E+00
  1.20000000E+00  1.50000000E+00  1.20000000E+00  1.20000000E+00  1.50000000E+00
  1.20000000E+00  1.20000000E+00  1.50000000E+00  1.20000000E+00  1.20000000E+00
  1.50000000E+00  1.20000000E+00  1.20000000E+00  1.50000000E+00  1.20000000E+00
  1.20000000E+00  1.50000000E+00  1.20000000E+00  1.20000000E+00  1.50000000E+00
  1.20000000E+00  1.20000000E+00  1.50000000E+00  1.20000000E+00  1.20000000E+00
  1.50000000E+00  1.20000000E+00  1.20000000E+00  1.50000000E+00  1.20000000E+00
  1.20000000E+00  1.50000000E+00  1.20000000E+00  1.20000000E+00  1.50000000E+00
  1.20000000E+00  1.20000000E+00  1.50000000E+00  1.20000000E+00  1.20000000E+00
  1.50000000E+00  1.20000000E+00  1.20000000E+00  1.50000000E+00  1.20000000E+00
  1.20000000E+00  1.50000000E+00  1.20000000E+00  1.20000000E+00  1.50000000E+00
  1.20000000E+00  1.20000000E+00  1.50000000E+00  1.20000000E+00  1.20000000E+00
  1.50000000E+00  1.20000000E+00  1.20000000E+00  1.50000000E+00  1.20000000E+00
  1.20000000E+00  1.50000000E+00  1.20000000E+00  1.20000000E+00  1.50000000E+00
  1.20000000E+00  1.20000000E+00  1.50000000E+00  1.20000000E+00  1.20000000E+00
  1.50000000E+00  1.20000000E+00  1.20000000E+00  1.50000000E+00  1.20000000E+00
  1.20000000E+00  1.50000000E+00  1.20000000E+00  1.20000000E+00  1.50000000E+00
  1.20000000E+00  1.20000000E+00  1.50000000E+00  1.20000000E+00  1.20000000E+00
  1.50000000E+00  1.20000000E+00  1.20000000E+00  1.50000000E+00  1.20000000E+00
  1.20000000E+00  1.50000000E+00  1.20000000E+00  1.20000000E+00  1.50000000E+00
  1.20000000E+00  1.20000000E+00  1.50000000E+00  1.20000000E+00  1.20000000E+00
  1.50000000E+00  1.20000000E+00  1.20000000E+00  1.50000000E+00  1.20000000E+00
  1.20000000E+00  1.50000000E+00  1.20000000E+00  1.20000000E+00  1.50000000E+00
  1.20000000E+00  1.20000000E+00  1.50000000E+00  1.20000000E+00  1.20000000E+00
  1.50000000E+00  1.20000000E+00  1.20000000E+00  1.50000000E+00  1.20000000E+00
  1.20000000E+00  1.50000000E+00  1.20000000E+00  1.20000000E+00  1.50000000E+00
  1.20000000E+00  1.20000000E+00  1.50000000E+00  1.20000000E+00  1.20000000E+00
  1.50000000E+00  1.20000000E+00  1.20000000E+00  1.50000000E+00  1.20000000E+00
  1.20000000E+00
%FLAG SCREEN                                                                    
%FORMAT(5E16.8)                                                                 
  8.50000000E-01  7.20000000E-01  8.50000000E-01  8.50000000E-01  7.20000000E-01
  8.50000000E-01  7.90000000E-01  8.50000000E-01  7.20000000E-01  8.50000000E-01
  7.20000000E-01  8.50000000E-01  8.50000000E-01  7.20000000E-01  8.50000000E-01
  8.50000000E-01  7.20000000E-01  8.50000000E-01  7.90000000E-01  8.50000000E-01
  8.50000000E-01  7.20000000E-01  8.50000000E-01  7.90000000E-01  8.50000000E-01
  7.20000000E-01  8.50000000E-01  7.20000000E-01  8.50000000E-01  8.50000000E-01
  9.60000000E-01  7.20000000E-01  8.50000000E-01  7.90000000E-01  8.50000000E-01
  7.20000000E-01  8.50000000E-01  7.20000000E-01  8.50000000E-01  8.50000000E-01
  9.60000000E-01  7.20000000E-01  8.50000000E-01  7.90000000E-01  8.50000000E-01
  7.20000000E-01  8.50000000E-01  7.20000000E-01  8.50000000E-01  7.20000000E-01
  8.50000000E-01  8.50000000E-01  8.50000000E-01  8.50000000E-01  8.50000000E-01
  7.20000000E-01  8.50000000E-01  7.90000000E-01  8.50000000E-01  7.20000000E-01
  8.50000000E-01  7.20000000E-01  8.50000000E-01  8.50000000E-01  8.50000000E-01
  8.50000000E-01  7.20000000E-01  8.50000000E-01  7.90000000E-01  8.50000000E-01
  7.20000000E-01  8.50000000E-01  7.20000000E-01  8.50000000E-01  7.20000000E-01
  8.50000000E-01  8.50000000E-01  8.50000000E-01  7.20000000E-01  8.50000000E-01
  8.50000000E-01  7.20000000E-01  8.50000000E-01  8.50000000E-01  8.50000000E-01
  7.20000000E-01  8.50000000E-01  7.90000000E-01  8.50000000E-01  7.20000000E-01
  8.50000000E-01  7.20000000E-01  8.50000000E-01  8.50000000E-01  9.60000000E-01
  7.20000000E-01  8.50000000E-01  7.90000000E-01  8.50000000E-01  7.20000000E-01
  8.50000000E-01  7.20000000E-01  8.50000000E-01  8.50000000E-01  8.50000000E-01
  8.50000000E-01  7.20000000E-01  8.50000000E-01  7.90000000E-01  8.50000000E-01
  7.20000000E-01  8.50000000E-01  7.20000000E-01  8.50000000E-01  8.50000000E-01
  7.20000000E-01  8.50000000E-01  7.20000000E-01  8.50000000E-01  8.50000000E-01
  8.50000000E-01  7.20000000E-01  8.50000000E-01  8.50000000E-01  8.50000000E-01
  7.20000000E-01  8.50000000E-01  7.90000000E-01  8.50000000E-01  7.20000000E-01
  8.50000000E-01  7.20000000E-01  8.50000000E-01  8.50000000E-01  7.20000000E-01
  7.20000000E-01  8.50000000E-01  7.20000000E-01  8.50000000E-01  7.20000000E-01
  8.50000000E-01  8.50000000E-01  7.20000000E-01  8.50000000E-01  7.20000000E-01
  8.50000000E-01  7.20000000E-01  8.50000000E-01  7.90000000E-01  8.50000000E-01
  7.20000000E-01  8.50000000E-01  7.20000000E-01  8.50000000E-01  8.50000000E-01
  7.20000000E-01  8.50000000E-01  8.50000000E-01  7.20000000E-01  8.50000000E-01
  7.90000000E-01  8.50000000E-01  8.50000000E-01  7.20000000E-01  8.50000000E-01
  7.90000000E-01  8.50000000E-01  7.20000000E-01  8.50000000E-01  7.20000000E-01
  8.50000000E-01  8.50000000E-01  7.20000000E-01  8.50000000E-01  7.20000000E-01
  8.50000000E-01  8.50000000E-01  8.50000000E-01  7.20000000E-01  8.50000000E-01
  8.50000000E-01  8.50000000E-01  7.20000000E-01  8.50000000E-01  7.90000000E-01
  8.50000000E-01  7.20000000E-01  8.50000000E-01  7.20000000E-01  8.50000000E-01
  8.50000000E-01  7.20000000E-01  8.50000000E-01  8.50000000E-01  7.20000000E-01
  8.50000000E-01  8.50000000E-01  8.50000000E-01  7.20000000E-01  8.50000000E-01
  8.50000000E-01  8.50000000E-01  8.50000000E-01  7.90000000E-01  8.50000000E-01
  7.20000000E-01  8.50000000E-01  7.20000000E-01  8.50000000E-01  8.50000000E-01
  7.20000000E-01  8.50000000E-01  7.90000000E-01  8.50000000E-01  8.50000000E-01
  7.20000000E-01  8.50000000E-01  7.90000000E-01  8.50000000E-01  7.20000000E-01
  8.50000000E-01  7.20000000E-01  8.50000000E-01  8.50000000E-01  7.20000000E-01
  7.20000000E-01  8.50000000E-01  7.20000000E-01  8.50000000E-01  7.20000000E-01
  8.50000000E-01  8.50000000E-01  7.20000000E-01  8.50000000E-01  7.20000000E-01
  8.50000000E-01  7.20000000E-01  8.50000000E-01  7.90000000E-01  8.50000000E-01
  7.20000000E-01  8.50000000E-01  7.20000000E-01  8.50000000E-01  8.50000000E-01
  9.60000000E-01  7.20000000E-01  8.50000000E-01  7.90000000E-01  8.50000000E-01
  7.20000000E-01  8.50000000E-01  8.50000000E-01  8.50000000E-01  8.50000000E-01
  7.20000000E-01  8.50000000E-01  8.50000000E-01  7.20000000E-01  8.50000000E-01
  7.90000000E-01  8.50000000E-01  7.20000000E-01  8.50000000E-01  7.20000000E-01
  8.50000000E-01  8.50000000E-01  7.20000000E-01  7.90000000E-01  8.50000000E-01
  7.20000000E-01  8.50000000E-01  7.90000000E-01  8.50000000E-01  7.20000000E-01
  8.50000000E-01  7.20000000E-01  8.50000000E-01  7.90000000E-01  8.50000000E-01
  7.20000000E-01  8.50000000E-01  7.20000000E-01  8.50000000E-01  8.50000000E-01
  7.20000000E-01  8.50000000E-01  7.20000000E-01  8.50000000E-01  8.50000000E-01
  8.50000000E-01  7.20000000E-01  8.50000000E-01  8.50000000E-01  8.50000000E-01
  7.20000000E-01  8.50000000E-01  7.90000000E-01  8.50000000E-01  7.20000000E-01
  8.50000000E-01  7.20000000E-01  8.50000000E-01  8.50000000E-01  9.60000000E-01
  7.20000000E-01  8.50000000E-01  7.90000000E-01  8.50000000E-01  7.20000000E-01
  8.50000000E-01  8.50000000E-01  7.20000000E-01  8.50000000E-01  7.90000000E-01
  8.50000000E-01  7.20000000E-01  8.50000000E-01  7.20000000E-01  8.50000000E-01
  8.50000000E-01  8.50000000E-01  8.50000000E-01  7.20000000E-01  8.50000000E-01
  7.90000000E-01  8.50000000E-01  7.20000000E-01  8.50000000E-01  7.20000000E-01
  8.50000000E-01  8.50000000E-01  7.20000000E-01  7.90000000E-01  8.50000000E-01
  7.20000000E-01  8.50000000E-01  7.90000000E-01  8.50000000E-01  7.20000000E-01
  8.50000000E-01  7.20000000E-01  8.50000000E-01  7.90000000E-01  8.50000000E-01
  7.20000000E-01  8.50000000E-01  7.20000000E-01  8.50000000E-01  8.50000000E-01
  7.20000000E-01  8.50000000E-01  7.20000000E-01  8.50000000E-01  8.50000000E-01
  8.50000000E-01  7.20000000E-01  8.50000000E-01  8.50000000E-01  8.50000000E-01
  7.20000000E-01  8.50000000E-01  7.90000000E-01  8.50000000E-01  7.20000000E-01
  8.50000000E-01  7.20000000E-01  8.50000000E-01  7.20000000E-01  8.50000000E-01
  8.50000000E-01  8.50000000E-01  7.20000000E-01  8.50000000E-01  8.50000000E-01
  8.50000000E-01  7.20000000E-01  8.50000000E-01  7.90000000E-01  8.50000000E-01
  7.20000000E-01  8.50000000E-01  7.20000000E-01  8.50000000E-01  8.50000000E-01
  7.20000000E-01  8.50000000E-01  8.50000000E-01  7.20000000E-01  8.50000000E-01
  8.50000000E-01  8.50000000E-01  7.20000000E-01  8.50000000E-01  8.50000000E-01
  8.50000000E-01  8.50000000E-01  7.90000000E-01  8.50000000E-01  7.20000000E-01
  8.50000000E-01  7.20000000E-01  8.50000000E-01  8.50000000E-01  8.50000000E-01
  7.20000000E-01  8.50000000E-01  7.90000000E-01  8.50000000E-01  7.20000000E-01
  8.50000000E-01  7.20000000E-01  8.50000000E-01  8.50000000E-01  7.20000000E-01
  8.50000000E-01  7.20000000E-01  8.50000000E-01  8.50000000E-01  8.50000000E-01
  7.20000000E-01  8.50000000E-01  8.50000000E-01  8.50000000E-01  7.20000000E-01
  8.50000000E-01  7.90000000E-01  8.50000000E-01  7.20000000E-01  8.50000000E-01
  7.20000000E-01  8.50000000E-01  8.50000000E-01  7.20000000E-01  7.20000000E-01
  8.50000000E-01  7.20000000E-01  8.50000000E-01  7.20000000E-01  8.50000000E-01
  8.50000000E-01  7.20000000E-01  8.50000000E-01  7.20000000E-01  8.50000000E-01
  7.20000000E-01  8.50000000E-01  7.90000000E-01  8.50000000E-01  7.20000000E-01
  8.50000000E-01  7.20000000E-01  8.50000000E-01  8.50000000E-01  7.20000000E-01
  8.50000000E-01  7.20000000E-01  8.50000000E-01  8.50000000E-01  8.50000000E-01
  7.20000000E-01  8.50000000E-01  8.50000000E-01  8.50000000E-01  7.20000000E-01
  8.50000000E-01  7.90000000E-01  8.50000000E-01  7.20000000E-01  8.50000000E-01
  7.20000000E-01  8.50000000E-01  7.20000000E-01  8.50000000E-01  8.50000000E-01
  8.50000000E-01  7.20000000E-01  8.50000000E-01  8.50000000E-01  8.50000000E-01
  7.20000000E-01  8.50000000E-01  7.90000000E-01  8.50000000E-01  7.20000000E-01
  8.50000000E-01  7.20000000E-01  8.50000000E-01  8.50000000E-01  9.60000000E-01
  7.20000000E-01  8.50000000E-01  7.90000000E-01  8.50000000E-01  7.20000000E-01
  8.50000000E-01  8.50000000E-01  7.20000000E-01  8.50000000E-01  7.90000000E-01
  8.50000000E-01  7.20000000E-01  8.50000000E-01  7.20000000E-01  8.50000000E-01
  8.50000000E-01  7.20000000E-01  8.50000000E-01  8.50000000E-01  7.20000000E-01
  8.50000000E-01  8.50000000E-01  8.50000000E-01  7.20000000E-01  8.50000000E-01
  8.50000000E-01  8.50000000E-01  8.50000000E-01  7.90000000E-01  8.50000000E-01
  7.20000000E-01  8.50000000E-01  7.20000000E-01  8.50000000E-01  8.50000000E-01
  7.20000000E-01  8.50000000E-01  8.50000000E-01  7.20000000E-01  8.50000000E-01
  8.50000000E-01  7.90000000E-01  8.50000000E-01  7.20000000E-01  7.90000000E-01
  8.50000000E-01  8.50000000E-01  7.90000000E-01  8.50000000E-01  8.50000000E-01
  7.20000000E-01  8.50000000E-01  7.90000000E-01  8.50000000E-01  7.20000000E-01
  8.50000000E-01  8.50000000E-01  7.20000000E-01  8.50000000E-01  7.90000000E-01
  8.50000000E-01  7.20000000E-01  8.50000000E-01  7.20000000E-01  8.50000000E-01
  8.50000000E-01  7.20000000E-01  7.20000000E-01  8.50000000E-01  7.20000000E-01
  8.50000000E-01  7.20000000E-01  8.50000000E-01  7.20000000E-01  8.50000000E-01
  7.20000000E-01  8.50000000E-01  7.20000000E-01  8.50000000E-01  7.90000000E-01
  8.50000000E-01  7.20000000E-01  8.50000000E-01  7.20000000E-01  8.50000000E-01
  8.50000000E-01  7.20000000E-01  7.20000000E-01  8.50000000E-01  7.20000000E-01
  8.50000000E-01  7.20000000E-01  8.50000000E-01  7.20000000E-01  8.50000000E-01
  7.20000000E-01  8.50000000E-01  7.20000000E-01  8.50000000E-01  7.90000000E-01
  8.50000000E-01  7.20000000E-01  8.50000000E-01  7.20000000E-01  8.50000000E-01
  8.50000000E-01  7.20000000E-01  7.20000000E-01  8.50000000E-01  7.20000000E-01
  8.50000000E-01  7.20000000E-01  8.50000000E-01  8.50000000E-01  7.20000000E-01
  8.50000000E-01  7.20000000E-01  8.50000000E-01  7.20000000E-01  8.50000000E-01
  7.90000000E-01  8.50000000E-01  7.20000000E-01  8.50000000E-01  7.20000000E-01
  8.50000000E-01  7.20000000E-01  8.50000000E-01  8.50000000E-01  8.50000000E-01
  8.50000000E-01  8.50000000E-01  7.20000000E-01  8.50000000E-01  7.90000000E-01
  8.50000000E-01  7.20000000E-01  8.50000000E-01  8.50000000E-01  8.50000000E-01
  8.50000000E-01  7.20000000E-01  8.50000000E-01  8.50000000E-01  7.20000000E-01
  8.50000000E-01  7.90000000E-01  8.50000000E-01  7.20000000E-01  8.50000000E-01
  7.20000000E-01  8.50000000E-01  8.50000000E-01  7.20000000E-01  8.50000000E-01
  8.50000000E-01  7.20000000E-01  8.50000000E-01  7.90000000E-01  8.50000000E-01
  8.50000000E-01  7.20000000E-01  8.50000000E-01  7.90000000E-01  8.50000000E-01
  7.20000000E-01  8.50000000E-01  7.20000000E-01  8.50000000E-01  8.50000000E-01
  9.60000000E-01  7.20000000E-01  8.50000000E-01  7.90000000E-01  8.50000000E-01
  7.20000000E-01  8.50000000E-01  7.20000000E-01  8.50000000E-01  8.50000000E-01
  9.60000000E-01  7.20000000E-01  8.50000000E-01  7.90000000E-01  8.50000000E-01
  7.20000000E-01  8.50000000E-01  7.20000000E-01  8.50000000E-01  7.20000000E-01
  8.50000000E-01  8.50000000E-01  8.50000000E-01  8.50000000E-01  8.50000000E-01
  7.20000000E-01  8.50000000E-01  7.90000000E-01  8.50000000E-01  7.20000000E-01
  8.50000000E-01  7.20000000E-01  8.50000000E-01  8.50000000E-01  8.50000000E-01
  8.50000000E-01  7.20000000E-01  8.50000000E-01  7.90000000E-01  8.50000000E-01
  7.20000000E-01  8.50000000E-01  7.20000000E-01  8.50000000E-01  7.20000000E-01
  8.50000000E-01  8.50000000E-01  8.50000000E-01  7.20000000E-01  8.50000000E-01
  8.50000000E-01  7.20000000E-01  8.50000000E-01  8.50000000E-01  8.50000000E-01
  7.20000000E-01  8.50000000E-01  7.90000000E-01  8.50000000E-01  7.20000000E-01
  8.50000000E-01  7.20000000E-01  8.50000000E-01  8.50000000E-01  9.60000000E-01
  7.20000000E-01  8.50000000E-01  7.90000000E-01  8.50000000E-01  7.20000000E-01
  8.50000000E-01  7.20000000E-01  8.50000000E-01  8.50000000E-01  8.50000000E-01
  8.50000000E-01  7.20000000E-01  8.50000000E-01  7.90000000E-01  8.50000000E-01
  7.20000000E-01  8.50000000E-01  7.20000000E-01  8.50000000E-01  8.50000000E-01
  7.20000000E-01  8.50000000E-01  7.20000000E-01  8.50000000E-01  8.50000000E-01
  8.50000000E-01  7.20000000E-01  8.50000000E-01  8.50000000E-01  8.50000000E-01
  7.20000000E-01  8.50000000E-01  7.90000000E-01  8.50000000E-01  7.20000000E-01
  8.50000000E-01  7.20000000E-01  8.50000000E-01  8.50000000E-01  7.20000000E-01
  7.20000000E-01  8.50000000E-01  7.20000000E-01  8.50000000E-01  7.20000000E-01
  8.50000000E-01  8.50000000E-01  7.20000000E-01  8.50000000E-01  7.20000000E-01
  8.50000000E-01  7.20000000E-01  8.50000000E-01  7.90000000E-01  8.50000000E-01
  7.20000000E-01  8.50000000E-01  7.20000000E-01  8.50000000E-01  8.50000000E-01
  7.20000000E-01  8.50000000E-01  8.50000000E-01  7.20000000E-01  8.50000000E-01
  7.90000000E-01  8.50000000E-01  8.50000000E-01  7.20000000E-01  8.50000000E-01
  7.90000000E-01  8.50000000E-01  7.20000000E-01  8.50000000E-01  7.20000000E-01
  8.50000000E-01  8.50000000E-01  7.20000000E-01  8.50000000E-01  7.20000000E-01
  8.50000000E-01  8.50000000E-01  8.50000000E-01  7.20000000E-01  8.50000000E-01
  8.50000000E-01  8.50000000E-01  7.20000000E-01  8.50000000E-01  7.90000000E-01
  8.50000000E-01  7.20000000E-01  8.50000000E-01  7.20000000E-01  8.50000000E-01
  8.50000000E-01  7.20000000E-01  8.50000000E-01  8.50000000E-01  7.20000000E-01
  8.50000000E-01  8.50000000E-01  8.50000000E-01  7.20000000E-01  8.50000000E-01
  8.50000000E-01  8.50000000E-01  8.50000000E-01  7.90000000E-01  8.50000000E-01
  7.20000000E-01  8.50000000E-01  7.20000000E-01  8.50000000E-01  8.50000000E-01
  7.20000000E-01  8.50000000E-01  7.90000000E-01  8.50000000E-01  8.50000000E-01
  7.20000000E-01  8.50000000E-01  7.90000000E-01  8.50000000E-01  7.20000000E-01
  8.50000000E-01  7.20000000E-01  8.50000000E-01  8.50000000E-01  7.20000000E-01
  7.20000000E-01  8.50000000E-01  7.20000000E-01  8.50000000E-01  7.20000000E-01
  8.50000000E-01  8.50000000E-01  7.20000000E-01  8.50000000E-01  7.20000000E-01
  8.50000000E-01  7.20000000E-01  8.50000000E-01  7.90000000E-01  8.50000000E-01
  7.20000000E-01  8.50000000E-01  7.20000000E-01  8.50000000E-01  8.50000000E-01
  9.60000000E-01  7.20000000E-01  8.50000000E-01  7.90000000E-01  8.50000000E-01
  7.20000000E-01  8.50000000E-01  8.50000000E-01  8.50000000E-01  8.50000000E-01
  7.20000000E-01  8.50000000E-01  8.50000000E-01  7.20000000E-01  8.50000000E-01
  7.90000000E-01  8.50000000E-01  7.20000000E-01  8.50000000E-01  7.20000000E-01
  8.50000000E-01  8.50000000E-01  7.20000000E-01  7.90000000E-01  8.50000000E-01
  7.20000000E-01  8.50000000E-01  7.90000000E-01  8.50000000E-01  7.20000000E-01
  8.50000000E-01  7.20000000E-01  8.50000000E-01  7.90000000E-01  8.50000000E-01
  7.20000000E-01  8.50000000E-01  7.20000000E-01  8.50000000E-01  8.50000000E-01
  7.20000000E-01  8.50000000E-01  7.20000000E-01  8.50000000E-01  8.50000000E-01
  8.50000000E-01  7.20000000E-01  8.50000000E-01  8.50000000E-01  8.50000000E-01
  7.20000000E-01  8.50000000E-01  7.90000000E-01  8.50000000E-01  7.20000000E-01
  8.50000000E-01  7.20000000E-01  8.50000000E-01  8.50000000E-01  9.60000000E-01
  7.20000000E-01  8.50000000E-01  7.90000000E-01  8.50000000E-01  7.20000000E-01
  8.50000000E-01  8.50000000E-01  7.20000000E-01  8.50000000E-01  7.90000000E-01
  8.50000000E-01  7.20000000E-01  8.50000000E-01  7.20000000E-01  8.50000000E-01
  8.50000000E-01  8.50000000E-01  8.50000000E-01  7.20000000E-01  8.50000000E-01
  7.90000000E-01  8.50000000E-01  7.20000000E-01  8.50000000E-01  7.20000000E-01
  8.50000000E-01  8.50000000E-01  7.20000000E-01  7.90000000E-01  8.50000000E-01
  7.20000000E-01  8.50000000E-01  7.90000000E-01  8.50000000E-01  7.20000000E-01
  8.50000000E-01  7.20000000E-01  8.50000000E-01  7.90000000E-01  8.50000000E-01
  7.20000000E-01  8.50000000E-01  7.20000000E-01  8.50000000E-01  8.50000000E-01
  7.20000000E-01  8.50000000E-01  7.20000000E-01  8.50000000E-01  8.50000000E-01
  8.50000000E-01  7.20000000E-01  8.50000000E-01  8.50000000E-01  8.50000000E-01
  7.20000000E-01  8.50000000E-01  7.90000000E-01  8.50000000E-01  7.20000000E-01
  8.50000000E-01  7.20000000E-01  8.50000000E-01  7.20000000E-01  8.50000000E-01
  8.50000000E-01  8.50000000E-01  7.20000000E-01  8.50000000E-01  8.50000000E-01
  8.50000000E-01  7.20000000E-01  8.50000000E-01  7.90000000E-01  8.50000000E-01
  7.20000000E-01  8.50000000E-01  7.20000000E-01  8.50000000E-01  8.50000000E-01
  7.20000000E-01  8.50000000E-01  8.50000000E-01  7.20000000E-01  8.50000000E-01
  8.50000000E-01  8.50000000E-01  7.20000000E-01  8.50000000E-01  8.50000000E-01
  8.50000000E-01  8.50000000E-01  7.90000000E-01  8.50000000E-01  7.20000000E-01
  8.50000000E-01  7.20000000E-01  8.50000000E-01  8.50000000E-01  8.50000000E-01
  7.20000000E-01  8.50000000E-01  7.90000000E-01  8.50000000E-01  7.20000000E-01
  8.50000000E-01  7.20000000E-01  8.50000000E-01  8.50000000E-01  7.20000000E-01
  8.50000000E-01  7.20000000E-01  8.50000000E-01  8.50000000E-01  8.50000000E-01
  7.20000000E-01  8.50000000E-01  8.50000000E-01  8.50000000E-01  7.20000000E-01
  8.50000000E-01  7.90000000E-01  8.50000000E-01  7.20000000E-01  8.50000000E-01
  7.20000000E-01  8.50000000E-01  8.50000000E-01  7.20000000E-01  7.20000000E-01
  8.50000000E-01  7.20000000E-01  8.50000000E-01  7.20000000E-01  8.50000000E-01
  8.50000000E-01  7.20000000E-01  8.50000000E-01  7.20000000E-01  8.50000000E-01
  7.20000000E-01  8.50000000E-01  7.90000000E-01  8.50000000E-01  7.20000000E-01
  8.50000000E-01  7.20000000E-01  8.50000000E-01  8.50000000E-01  7.20000000E-01
  8.50000000E-01  7.20000000E-01  8.50000000E-01  8.50000000E-01  8.50000000E-01
  7.20000000E-01  8.50000000E-01  8.50000000E-01  8.50000000E-01  7.20000000E-01
  8.50000000E-01  7.90000000E-01  8.50000000E-01  7.20000000E-01  8.50000000E-01
  7.20000000E-01  8.50000000E-01  7.20000000E-01  8.50000000E-01  8.50000000E-01
  8.50000000E-01  7.20000000E-01  8.50000000E-01  8.50000000E-01  8.50000000E-01
  7.20000000E-01  8.50000000E-01  7.90000000E-01  8.50000000E-01  7.20000000E-01
  8.50000000E-01  7.20000000E-01  8.50000000E-01  8.50000000E-01  9.60000000E-01
  7.20000000E-01  8.50000000E-01  7.90000000E-01  8.50000000E-01  7.20000000E-01
  8.50000000E-01  8.50000000E-01  7.20000000E-01  8.50000000E-01  7.90000000E-01
  8.50000000E-01  7.20000000E-01  8.50000000E-01  7.20000000E-01  8.50000000E-01
  8.50000000E-01  7.20000000E-01  8.50000000E-01  8.50000000E-01  7.20000000E-01
  8.50000000E-01  8.50000000E-01  8.50000000E-01  7.20000000E-01  8.50000000E-01
  8.50000000E-01  8.50000000E-01  8.50000000E-01  7.90000000E-01  8.50000000E-01
  7.20000000E-01  8.50000000E-01  7.20000000E-01  8.50000000E-01  8.50000000E-01
  7.20000000E-01  8.50000000E-01  8.50000000E-01  7.20000000E-01  8.50000000E-01
  8.50000000E-01  7.90000000E-01  8.50000000E-01  7.20000000E-01  7.90000000E-01
  8.50000000E-01  8.50000000E-01  7.90000000E-01  8.50000000E-01  8.50000000E-01
  7.20000000E-01  8.50000000E-01  7.90000000E-01  8.50000000E-01  7.20000000E-01
  8.50000000E-01  8.50000000E-01  7.20000000E-01  8.50000000E-01  7.90000000E-01
  8.50000000E-01  7.20000000E-01  8.50000000E-01  7.20000000E-01  8.50000000E-01
  8.50000000E-01  7.20000000E-01  7.20000000E-01  8.50000000E-01  7.20000000E-01
  8.50000000E-01  7.20000000E-01  8.50000000E-01  7.20000000E-01  8.50000000E-01
  7.20000000E-01  8.50000000E-01  7.20000000E-01  8.50000000E-01  7.90000000E-01
  8.50000000E-01  7.20000000E-01  8.50000000E-01  7.20000000E-01  8.50000000E-01
  8.50000000E-01  7.20000000E-01  7.20000000E-01  8.50000000E-01  7.20000000E-01
  8.50000000E-01  7.20000000E-01  8.50000000E-01  7.20000000E-01  8.50000000E-01
  7.20000000E-01  8.50000000E-01  7.20000000E-01  8.50000000E-01  7.90000000E-01
  8.50000000E-01  7.20000000E-01  8.50000000E-01  7.20000000E-01  8.50000000E-01
  8.50000000E-01  7.20000000E-01  7.20000000E-01  8.50000000E-01  7.20000000E-01
  8.50000000E-01  7.20000000E-01  8.50000000E-01  8.50000000E-01  7.20000000E-01
  8.50000000E-01  7.20000000E-01  8.50000000E-01  7.20000000E-01  8.50000000E-01
  7.90000000E-01  8.50000000E-01  7.20000000E-01  8.50000000E-01  7.20000000E-01
  8.50000000E-01  7.20000000E-01  8.50000000E-01  8.50000000E-01  8.50000000E-01
  8.50000000E-01  8.50000000E-01  7.20000000E-01  8.50000000E-01  7.90000000E-01
  8.50000000E-01  7.20000000E-01  8.50000000E-01  8.50000000E-01  8.50000000E-01
  8.50000000E-01  7.20000000E-01  8.50000000E-01  8.50000000E-01  7.20000000E-01
  8.50000000E-01  7.90000000E-01  8.50000000E-01  7.20000000E-01  8.50000000E-01
  7.20000000E-01  8.50000000E-01  8.50000000E-01  7.20000000E-01  8.50000000E-01
  8.50000000E-01  7.20000000E-01  8.50000000E-01  7.90000000E-01  8.50000000E-01
  8.50000000E-01  7.20000000E-01  8.50000000E-01  7.90000000E-01  8.50000000E-01
  7.20000000E-01  8.50000000E-01  7.20000000E-01  8.50000000E-01  8.50000000E-01
  9.60000000E-01  7.20000000E-01  8.50000000E-01  7.90000000E-01  8.50000000E-01
  7.20000000E-01  8.50000000E-01  7.20000000E-01  8.50000000E-01  8.50000000E-01
  9.60000000E-01  7.20000000E-01  8.50000000E-01  7.90000000E-01  8.50000000E-01
  7.20000000E-01  8.50000000E-01  7.20000000E-01  8.50000000E-01  7.20000000E-01
  8.50000000E-01  8.50000000E-01  8.50000000E-01  8.50000000E-01  8.50000000E-01
  7.20000000E-01  8.50000000E-01  7.90000000E-01  8.50000000E-01  7.20000000E-01
  8.50000000E-01  7.20000000E-01  8.50000000E-01  8.50000000E-01  8.50000000E-01
  8.50000000E-01  7.20000000E-01  8.50000000E-01  7.90000000E-01  8.50000000E-01
  7.20000000E-01  8.50000000E-01  7.20000000E-01  8.50000000E-01  7.20000000E-01
  8.50000000E-01  8.50000000E-01  8.50000000E-01  7.20000000E-01  8.50000000E-01
  8.50000000E-01  7.20000000E-01  8.50000000E-01  8.50000000E-01  8.50000000E-01
  7.20000000E-01  8.50000000E-01  7.90000000E-01  8.50000000E-01  7.20000000E-01
  8.50000000E-01  7.20000000E-01  8.50000000E-01  8.50000000E-01  9.60000000E-01
  7.20000000E-01  8.50000000E-01  7.90000000E-01  8.50000000E-01  7.20000000E-01
  8.50000000E-01  7.20000000E-01  8.50000000E-01  8.50000000E-01  8.50000000E-01
  8.50000000E-01  7.20000000E-01  8.50000000E-01  7.90000000E-01  8.50000000E-01
  7.20000000E-01  8.50000000E-01  7.20000000E-01  8.50000000E-01  8.50000000E-01
  7.20000000E-01  8.50000000E-01  7.20000000E-01  8.50000000E-01  8.50000000E-01
  8.50000000E-01  7.20000000E-01  8.50000000E-01  8.50000000E-01  8.50000000E-01
  7.20000000E-01  8.50000000E-01  7.90000000E-01  8.50000000E-01  7.20000000E-01
  8.50000000E-01  7.20000000E-01  8.50000000E-01  8.50000000E-01  7.20000000E-01
  7.20000000E-01  8.50000000E-01  7.20000000E-01  8.50000000E-01  7.20000000E-01
  8.50000000E-01  8.50000000E-01  7.20000000E-01  8.50000000E-01  7.20000000E-01
  8.50000000E-01  7.20000000E-01  8.50000000E-01  7.90000000E-01  8.50000000E-01
  7.20000000E-01  8.50000000E-01  7.20000000E-01  8.50000000E-01  8.50000000E-01
  7.20000000E-01  8.50000000E-01  8.50000000E-01  7.20000000E-01  8.50000000E-01
  7.90000000E-01  8.50000000E-01  8.50000000E-01  7.20000000E-01  8.50000000E-01
  7.90000000E-01  8.50000000E-01  7.20000000E-01  8.50000000E-01  7.20000000E-01
  8.50000000E-01  8.50000000E-01  7.20000000E-01  8.50000000E-01  7.20000000E-01
  8.50000000E-01  8.50000000E-01  8.50000000E-01  7.20000000E-01  8.50000000E-01
  8.50000000E-01  8.50000000E-01  7.20000000E-01  8.50000000E-01  7.90000000E-01
  8.50000000E-01  7.20000000E-01  8.50000000E-01  7.20000000E-01  8.50000000E-01
  8.50000000E-01  7.20000000E-01  8.50000000E-01  8.50000000E-01  7.20000000E-01
  8.50000000E-01  8.50000000E-01  8.50000000E-01  7.20000000E-01  8.50000000E-01
  8.50000000E-01  8.50000000E-01  8.50000000E-01  7.90000000E-01  8.50000000E-01
  7.20000000E-01  8.50000000E-01  7.20000000E-01  8.50000000E-01  8.50000000E-01
  7.20000000E-01  8.50000000E-01  7.90000000E-01  8.50000000E-01  8.50000000E-01
  7.20000000E-01  8.50000000E-01  7.90000000E-01  8.50000000E-01  7.20000000E-01
  8.50000000E-01  7.20000000E-01  8.50000000E-01  8.50000000E-01  7.20000000E-01
  7.20000000E-01  8.50000000E-01  7.20000000E-01  8.50000000E-01  7.20000000E-01
  8.50000000E-01  8.50000000E-01  7.20000000E-01  8.50000000E-01  7.20000000E-01
  8.50000000E-01  7.20000000E-01  8.50000000E-01  7.90000000E-01  8.50000000E-01
  7.20000000E-01  8.50000000E-01  7.20000000E-01  8.50000000E-01  8.50000000E-01
  9.60000000E-01  7.20000000E-01  8.50000000E-01  7.90000000E-01  8.50000000E-01
  7.20000000E-01  8.50000000E-01  8.50000000E-01  8.50000000E-01  8.50000000E-01
  7.20000000E-01  8.50000000E-01  8.50000000E-01  7.20000000E-01  8.50000000E-01
  7.90000000E-01  8.50000000E-01  7.20000000E-01  8.50000000E-01  7.20000000E-01
  8.50000000E-01  8.50000000E-01  7.20000000E-01  7.90000000E-01  8.50000000E-01
  7.20000000E-01  8.50000000E-01  7.90000000E-01  8.50000000E-01  7.20000000E-01
  8.50000000E-01  7.20000000E-01  8.50000000E-01  7.90000000E-01  8.50000000E-01
  7.20000000E-01  8.50000000E-01  7.20000000E-01  8.50000000E-01  8.50000000E-01
  7.20000000E-01  8.50000000E-01  7.20000000E-01  8.50000000E-01  8.50000000E-01
  8.50000000E-01  7.20000000E-01  8.50000000E-01  8.50000000E-01  8.50000000E-01
  7.20000000E-01  8.50000000E-01  7.90000000E-01  8.50000000E-01  7.20000000E-01
  8.50000000E-01  7.20000000E-01  8.50000000E-01  8.50000000E-01  9.60000000E-01
  7.20000000E-01  8.50000000E-01  7.90000000E-01  8.50000000E-01  7.20000000E-01
  8.50000000E-01  8.50000000E-01  7.20000000E-01  8.50000000E-01  7.90000000E-01
  8.50000000E-01  7.20000000E-01  8.50000000E-01  7.20000000E-01  8.50000000E-01
  8.50000000E-01  8.50000000E-01  8.50000000E-01  7.20000000E-01  8.50000000E-01
  7.90000000E-01  8.50000000E-01  7.20000000E-01  8.50000000E-01  7.20000000E-01
  8.50000000E-01  8.50000000E-01  7.20000000E-01  7.90000000E-01  8.50000000E-01
  7.20000000E-01  8.50000000E-01  7.90000000E-01  8.50000000E-01  7.20000000E-01
  8.50000000E-01  7.20000000E-01  8.50000000E-01  7.90000000E-01  8.50000000E-01
  7.20000000E-01  8.50000000E-01  7.20000000E-01  8.50000000E-01  8.50000000E-01
  7.20000000E-01  8.50000000E-01  7.20000000E-01  8.50000000E-01  8.50000000E-01
  8.50000000E-01  7.20000000E-01  8.50000000E-01  8.50000000E-01  8.50000000E-01
  7.20000000E-01  8.50000000E-01  7.90000000E-01  8.50000000E-01  7.20000000E-01
  8.50000000E-01  7.20000000E-01  8.50000000E-01  7.20000000E-01  8.50000000E-01
  8.50000000E-01  8.50000000E-01  7.20000000E-01  8.50000000E-01  8.50000000E-01
  8.50000000E-01  7.20000000E-01  8.50000000E-01  7.90000000E-01  8.50000000E-01
  7.20000000E-01  8.50000000E-01  7.20000000E-01  8.50000000E-01  8.50000000E-01
  7.20000000E-01  8.50000000E-01  8.50000000E-01  7.20000000E-01  8.50000000E-01
  8.50000000E-01  8.50000000E-01  7.20000000E-01  8.50000000E-01  8.50000000E-01
  8.50000000E-01  8.50000000E-01  7.90000000E-01  8.50000000E-01  7.20000000E-01
  8.50000000E-01  7.20000000E-01  8.50000000E-01  8.50000000E-01  8.50000000E-01
  7.20000000E-01  8.50000000E-01  7.90000000E-01  8.50000000E-01  7.20000000E-01
  8.50000000E-01  7.20000000E-01  8.50000000E-01  8.50000000E-01  7.20000000E-01
  8.50000000E-01  7.20000000E-01  8.50000000E-01  8.50000000E-01  8.50000000E-01
  7.20000000E-01  8.50000000E-01  8.50000000E-01  8.50000000E-01  7.20000000E-01
  8.50000000E-01  7.90000000E-01  8.50000000E-01  7.20000000E-01  8.50000000E-01
  7.20000000E-01  8.50000000E-01  8.50000000E-01  7.20000000E-01  7.20000000E-01
  8.50000000E-01  7.20000000E-01  8.50000000E-01  7.20000000E-01  8.50000000E-01
  8.50000000E-01  7.20000000E-01  8.50000000E-01  7.20000000E-01  8.50000000E-01
  7.20000000E-01  8.50000000E-01  7.90000000E-01  8.50000000E-01  7.20000000E-01
  8.50000000E-01  7.20000000E-01  8.50000000E-01  8.50000000E-01  7.20000000E-01
  8.50000000E-01  7.20000000E-01  8.50000000E-01  8.50000000E-01  8.50000000E-01
  7.20000000E-01  8.50000000E-01  8.50000000E-01  8.50000000E-01  7.20000000E-01
  8.50000000E-01  7.90000000E-01  8.50000000E-01  7.20000000E-01  8.50000000E-01
  7.20000000E-01  8.50000000E-01  7.20000000E-01  8.50000000E-01  8.50000000E-01
  8.50000000E-01  7.20000000E-01  8.50000000E-01  8.50000000E-01  8.50000000E-01
  7.20000000E-01  8.50000000E-01  7.90000000E-01  8.50000000E-01  7.20000000E-01
  8.50000000E-01  7.20000000E-01  8.50000000E-01  8.50000000E-01  9.60000000E-01
  7.20000000E-01  8.50000000E-01  7.90000000E-01  8.50000000E-01  7.20000000E-01
  8.50000000E-01  8.50000000E-01  7.20000000E-01  8.50000000E-01  7.90000000E-01
  8.50000000E-01  7.20000000E-01  8.50000000E-01  7.20000000E-01  8.50000000E-01
  8.50000000E-01  7.20000000E-01  8.50000000E-01  8.50000000E-01  7.20000000E-01
  8.50000000E-01  8.50000000E-01  8.50000000E-01  7.20000000E-01  8.50000000E-01
  8.50000000E-01  8.50000000E-01  8.50000000E-01  7.90000000E-01  8.50000000E-01
  7.20000000E-01  8.50000000E-01  7.20000000E-01  8.50000000E-01  8.50000000E-01
  7.20000000E-01  8.50000000E-01  8.50000000E-01  7.20000000E-01  8.50000000E-01
  8.50000000E-01  7.90000000E-01  8.50000000E-01  7.20000000E-01  7.90000000E-01
  8.50000000E-01  8.50000000E-01  7.90000000E-01  8.50000000E-01  8.50000000E-01
  7.20000000E-01  8.50000000E-01  7.90000000E-01  8.50000000E-01  7.20000000E-01
  8.50000000E-01  8.50000000E-01  7.20000000E-01  8.50000000E-01  7.90000000E-01
  8.50000000E-01  7.20000000E-01  8.50000000E-01  7.20000000E-01  8.50000000E-01
  8.50000000E-01  7.20000000E-01  7.20000000E-01  8.50000000E-01  7.20000000E-01
  8.50000000E-01  7.20000000E-01  8.50000000E-01  7.20000000E-01  8.50000000E-01
  7.20000000E-01  8.50000000E-01  7.20000000E-01  8.50000000E-01  7.90000000E-01
  8.50000000E-01  7.20000000E-01  8.50000000E-01  7.20000000E-01  8.50000000E-01
  8.50000000E-01  7.20000000E-01  7.20000000E-01  8.50000000E-01  7.20000000E-01
  8.50000000E-01  7.20000000E-01  8.50000000E-01  7.20000000E-01  8.50000000E-01
  7.20000000E-01  8.50000000E-01  7.20000000E-01  8.50000000E-01  7.90000000E-01
  8.50000000E-01  7.20000000E-01  8.50000000E-01  7.20000000E-01  8.50000000E-01
  8.50000000E-01  7.20000000E-01  7.20000000E-01  8.50000000E-01  7.20000000E-01
  8.50000000E-01  7.20000000E-01  8.50000000E-01  8.50000000E-01  7.20000000E-01
  8.50000000E-01  7.20000000E-01  8.50000000E-01  7.20000000E-01  8.50000000E-01
  7.90000000E-01  8.50000000E-01  7.20000000E-01  8.50000000E-01  7.20000000E-01
  8.50000000E-01  7.20000000E-01  8.50000000E-01  8.50000000E-01  8.50000000E-01
  8.50000000E-01  8.50000000E-01  7.20000000E-01  8.50000000E-01  7.90000000E-01
  8.50000000E-01  7.20000000E-01  8.50000000E-01  8.50000000E-01  8.50000000E-01
  8.50000000E-01  7.20000000E-01  8.50000000E-01  8.50000000E-01  7.20000000E-01
  8.50000000E-01  7.90000000E-01  8.50000000E-01  7.20000000E-01  8.50000000E-01
  7.20000000E-01  8.50000000E-01  8.50000000E-01  7.20000000E-01  8.50000000E-01
  8.50000000E-01  7.20000000E-01  8.50000000E-01  7.90000000E-01  8.50000000E-01
  8.50000000E-01  7.20000000E-01  8.50000000E-01  7.90000000E-01  8.50000000E-01
  7.20000000E-01  8.50000000E-01  7.20000000E-01  8.50000000E-01  8.50000000E-01
  9.60000000E-01  7.20000000E-01  8.50000000E-01  7.90000000E-01  8.50000000E-01
  7.20000000E-01  8.50000000E-01  7.20000000E-01  8.50000000E-01  8.50000000E-01
  9.60000000E-01  7.20000000E-01  8.50000000E-01  7.90000000E-01  8.50000000E-01
  7.20000000E-01  8.50000000E-01  7.20000000E-01  8.50000000E-01  7.20000000E-01
  8.50000000E-01  8.50000000E-01  8.50000000E-01  8.50000000E-01  8.50000000E-01
  7.20000000E-01  8.50000000E-01  7.90000000E-01  8.50000000E-01  7.20000000E-01
  8.50000000E-01  7.20000000E-01  8.50000000E-01  8.50000000E-01  8.50000000E-01
  8.50000000E-01  7.20000000E-01  8.50000000E-01  7.90000000E-01  8.50000000E-01
  7.20000000E-01  8.50000000E-01  7.20000000E-01  8.50000000E-01  7.20000000E-01
  8.50000000E-01  8.50000000E-01  8.50000000E-01  7.20000000E-01  8.50000000E-01
  8.50000000E-01  7.20000000E-01  8.50000000E-01  8.50000000E-01  8.50000000E-01
  7.20000000E-01  8.50000000E-01  7.90000000E-01  8.50000000E-01  7.20000000E-01
  8.50000000E-01  7.20000000E-01  8.50000000E-01  8.50000000E-01  9.60000000E-01
  7.20000000E-01  8.50000000E-01  7.90000000E-01  8.50000000E-01  7.20000000E-01
  8.50000000E-01  7.20000000E-01  8.50000000E-01  8.50000000E-01  8.50000000E-01
  8.50000000E-01  7.20000000E-01  8.50000000E-01  7.90000000E-01  8.50000000E-01
  7.20000000E-01  8.50000000E-01  7.20000000E-01  8.50000000E-01  8.50000000E-01
  7.20000000E-01  8.50000000E-01  7.20000000E-01  8.50000000E-01  8.50000000E-01
  8.50000000E-01  7.20000000E-01  8.50000000E-01  8.50000000E-01  8.50000000E-01
  7.20000000E-01  8.50000000E-01  7.90000000E-01  8.50000000E-01  7.20000000E-01
  8.50000000E-01  7.20000000E-01  8.50000000E-01  8.50000000E-01  7.20000000E-01
  7.20000000E-01  8.50000000E-01  7.20000000E-01  8.50000000E-01  7.20000000E-01
  8.50000000E-01  8.50000000E-01  7.20000000E-01  8.50000000E-01  7.20000000E-01
  8.50000000E-01  7.20000000E-01  8.50000000E-01  7.90000000E-01  8.50000000E-01
  7.20000000E-01  8.50000000E-01  7.20000000E-01  8.50000000E-01  8.50000000E-01
  7.20000000E-01  8.50000000E-01  8.50000000E-01  7.20000000E-01  8.50000000E-01
  7.90000000E-01  8.50000000E-01  8.50000000E-01  7.20000000E-01  8.50000000E-01
  7.90000000E-01  8.50000000E-01  7.20000000E-01  8.50000000E-01  7.20000000E-01
  8.50000000E-01  8.50000000E-01  7.20000000E-01  8.50000000E-01  7.20000000E-01
  8.50000000E-01  8.50000000E-01  8.50000000E-01  7.20000000E-01  8.50000000E-01
  8.50000000E-01  8.50000000E-01  7.20000000E-01  8.50000000E-01  7.90000000E-01
  8.50000000E-01  7.20000000E-01  8.50000000E-01  7.20000000E-01  8.50000000E-01
  8.50000000E-01  7.20000000E-01  8.50000000E-01  8.50000000E-01  7.20000000E-01
  8.50000000E-01  8.50000000E-01  8.50000000E-01  7.20000000E-01  8.50000000E-01
  8.50000000E-01  8.50000000E-01  8.50000000E-01  7.90000000E-01  8.50000000E-01
  7.20000000E-01  8.50000000E-01  7.20000000E-01  8.50000000E-01  8.50000000E-01
  7.20000000E-01  8.50000000E-01  7.90000000E-01  8.50000000E-01  8.50000000E-01
  7.20000000E-01  8.50000000E-01  7.90000000E-01  8.50000000E-01  7.20000000E-01
  8.50000000E-01  7.20000000E-01  8.50000000E-01  8.50000000E-01  7.20000000E-01
  7.20000000E-01  8.50000000E-01  7.20000000E-01  8.50000000E-01  7.20000000E-01
  8.50000000E-01  8.50000000E-01  7.20000000E-01  8.50000000E-01  7.20000000E-01
  8.50000000E-01  7.20000000E-01  8.50000000E-01  7.90000000E-01  8.50000000E-01
  7.20000000E-01  8.50000000E-01  7.20000000E-01  8.50000000E-01  8.50000000E-01
  9.60000000E-01  7.20000000E-01  8.50000000E-01  7.90000000E-01  8.50000000E-01
  7.20000000E-01  8.50000000E-01  8.50000000E-01  8.50000000E-01  8.50000000E-01
  7.20000000E-01  8.50000000E-01  8.50000000E-01  7.20000000E-01  8.50000000E-01
  7.90000000E-01  8.50000000E-01  7.20000000E-01  8.50000000E-01  7.20000000E-01
  8.50000000E-01  8.50000000E-01  7.20000000E-01  7.90000000E-01  8.50000000E-01
  7.20000000E-01  8.50000000E-01  7.90000000E-01  8.50000000E-01  7.20000000E-01
  8.50000000E-01  7.20000000E-01  8.50000000E-01  7.90000000E-01  8.50000000E-01
  7.20000000E-01  8.50000000E-01  7.20000000E-01  8.50000000E-01  8.50000000E-01
  7.20000000E-01  8.50000000E-01  7.20000000E-01  8.50000000E-01  8.50000000E-01
  8.50000000E-01  7.20000000E-01  8.50000000E-01  8.50000000E-01  8.50000000E-01
  7.20000000E-01  8.50000000E-01  7.90000000E-01  8.50000000E-01  7.20000000E-01
  8.50000000E-01  7.20000000E-01  8.50000000E-01  8.50000000E-01  9.60000000E-01
  7.20000000E-01  8.50000000E-01  7.90000000E-01  8.50000000E-01  7.20000000E-01
  8.50000000E-01  8.50000000E-01  7.20000000E-01  8.50000000E-01  7.90000000E-01
  8.50000000E-01  7.20000000E-01  8.50000000E-01  7.20000000E-01  8.50000000E-01
  8.50000000E-01  8.50000000E-01  8.50000000E-01  7.20000000E-01  8.50000000E-01
  7.90000000E-01  8.50000000E-01  7.20000000E-01  8.50000000E-01  7.20000000E-01
  8.50000000E-01  8.50000000E-01  7.20000000E-01  7.90000000E-01  8.50000000E-01
  7.20000000E-01  8.50000000E-01  7.90000000E-01  8.50000000E-01  7.20000000E-01
  8.50000000E-01  7.20000000E-01  8.50000000E-01  7.90000000E-01  8.50000000E-01
  7.20000000E-01  8.50000000E-01  7.20000000E-01  8.50000000E-01  8.50000000E-01
  7.20000000E-01  8.50000000E-01  7.20000000E-01  8.50000000E-01  8.50000000E-01
  8.50000000E-01  7.20000000E-01  8.50000000E-01  8.50000000E-01  8.50000000E-01
  7.20000000E-01  8.50000000E-01  7.90000000E-01  8.50000000E-01  7.20000000E-01
  8.50000000E-01  7.20000000E-01  8.50000000E-01  7.20000000E-01  8.50000000E-01
  8.50000000E-01  8.50000000E-01  7.20000000E-01  8.50000000E-01  8.50000000E-01
  8.50000000E-01  7.20000000E-01  8.50000000E-01  7.90000000E-01  8.50000000E-01
  7.20000000E-01  8.50000000E-01  7.20000000E-01  8.50000000E-01  8.50000000E-01
  7.20000000E-01  8.50000000E-01  8.50000000E-01  7.20000000E-01  8.50000000E-01
  8.50000000E-01  8.50000000E-01  7.20000000E-01  8.50000000E-01  8.50000000E-01
  8.50000000E-01  8.50000000E-01  7.90000000E-01  8.50000000E-01  7.20000000E-01
  8.50000000E-01  7.20000000E-01  8.50000000E-01  8.50000000E-01  8.50000000E-01
  7.20000000E-01  8.50000000E-01  7.90000000E-01  8.50000000E-01  7.20000000E-01
  8.50000000E-01  7.20000000E-01  8.50000000E-01  8.50000000E-01  7.20000000E-01
  8.50000000E-01  7.20000000E-01  8.50000000E-01  8.50000000E-01  8.50000000E-01
  7.20000000E-01  8.50000000E-01  8.50000000E-01  8.50000000E-01  7.20000000E-01
  8.50000000E-01  7.90000000E-01  8.50000000E-01  7.20000000E-01  8.50000000E-01
  7.20000000E-01  8.50000000E-01  8.50000000E-01  7.20000000E-01  7.20000000E-01
  8.50000000E-01  7.20000000E-01  8.50000000E-01  7.20000000E-01  8.50000000E-01
  8.50000000E-01  7.20000000E-01  8.50000000E-01  7.20000000E-01  8.50000000E-01
  7.20000000E-01  8.50000000E-01  7.90000000E-01  8.50000000E-01  7.20000000E-01
  8.50000000E-01  7.20000000E-01  8.50000000E-01  8.50000000E-01  7.20000000E-01
  8.50000000E-01  7.20000000E-01  8.50000000E-01  8.50000000E-01  8.50000000E-01
  7.20000000E-01  8.50000000E-01  8.50000000E-01  8.50000000E-01  7.20000000E-01
  8.50000000E-01  7.90000000E-01  8.50000000E-01  7.20000000E-01  8.50000000E-01
  7.20000000E-01  8.50000000E-01  7.20000000E-01  8.50000000E-01  8.50000000E-01
  8.50000000E-01  7.20000000E-01  8.50000000E-01  8.50000000E-01  8.50000000E-01
  7.20000000E-01  8.50000000E-01  7.90000000E-01  8.50000000E-01  7.20000000E-01
  8.50000000E-01  7.20000000E-01  8.50000000E-01  8.50000000E-01  9.60000000E-01
  7.20000000E-01  8.50000000E-01  7.90000000E-01  8.50000000E-01  7.20000000E-01
  8.50000000E-01  8.50000000E-01  7.20000000E-01  8.50000000E-01  7.90000000E-01
  8.50000000E-01  7.20000000E-01  8.50000000E-01  7.20000000E-01  8.50000000E-01
  8.50000000E-01  7.20000000E-01  8.50000000E-01  8.50000000E-01  7.20000000E-01
  8.50000000E-01  8.50000000E-01  8.50000000E-01  7.20000000E-01  8.50000000E-01
  8.50000000E-01  8.50000000E-01  8.50000000E-01  7.90000000E-01  8.50000000E-01
  7.20000000E-01  8.50000000E-01  7.20000000E-01  8.50000000E-01  8.50000000E-01
  7.20000000E-01  8.50000000E-01  8.50000000E-01  7.20000000E-01  8.50000000E-01
  8.50000000E-01  7.90000000E-01  8.50000000E-01  7.20000000E-01  7.90000000E-01
  8.50000000E-01  8.50000000E-01  7.90000000E-01  8.50000000E-01  8.50000000E-01
  7.20000000E-01  8.50000000E-01  7.90000000E-01  8.50000000E-01  7.20000000E-01
  8.50000000E-01  8.50000000E-01  7.20000000E-01  8.50000000E-01  7.90000000E-01
  8.50000000E-01  7.20000000E-01  8.50000000E-01  7.20000000E-01  8.50000000E-01
  8.50000000E-01  7.20000000E-01  7.20000000E-01  8.50000000E-01  7.20000000E-01
  8.50000000E-01  7.20000000E-01  8.50000000E-01  7.20000000E-01  8.50000000E-01
  7.20000000E-01  8.50000000E-01  7.20000000E-01  8.50000000E-01  7.90000000E-01
  8.50000000E-01  7.20000000E-01  8.50000000E-01  7.20000000E-01  8.50000000E-01
  8.50000000E-01  7.20000000E-01  7.20000000E-01  8.50000000E-01  7.20000000E-01
  8.50000000E-01  7.20000000E-01  8.50000000E-01  7.20000000E-01  8.50000000E-01
  7.20000000E-01  8.50000000E-01  7.20000000E-01  8.50000000E-01  7.90000000E-01
  8.50000000E-01  7.20000000E-01  8.50000000E-01  7.20000000E-01  8.50000000E-01
  8.50000000E-01  7.20000000E-01  7.20000000E-01  8.50000000E-01  7.20000000E-01
  8.50000000E-01  7.20000000E-01  8.50000000E-01  8.50000000E-01  7.20000000E-01
  8.50000000E-01  7.20000000E-01  8.50000000E-01  7.20000000E-01  8.50000000E-01
  7.90000000E-01  8.50000000E-01  7.20000000E-01  8.50000000E-01  7.20000000E-01
  8.50000000E-01  7.20000000E-01  8.50000000E-01  8.50000000E-01  8.50000000E-01
  8.50000000E-01  8.50000000E-01  7.20000000E-01  8.50000000E-01  7.90000000E-01
  8.50000000E-01  7.20000000E-01  8.50000000E-01  8.50000000E-01  8.50000000E-01
  8.50000000E-01  8.50000000E-01  8.50000000E-01  8.50000000E-01  8.50000000E-01
  8.50000000E-01  8.50000000E-01  8.50000000E-01  8.50000000E-01  8.50000000E-01
  8.50000000E-01  8.50000000E-01  8.50000000E-01  8.50000000E-01  8.50000000E-01
  8.50000000E-01  8.50000000E-01  8.50000000E-01  8.50000000E-01  8.50000000E-01
  8.50000000E-01  8.50000000E-01  8.50000000E-01  8.50000000E-01  8.50000000E-01
  8.50000000E-01  8.50000000E-01  8.50000000E-01  8.50000000E-01  8.50000000E-01
  8.50000000E-01  8.50000000E-01  8.50000000E-01  8.50000000E-01  8.50000000E-01
  8.50000000E-01  8.50000000E-01  8.50000000E-01  8.50000000E-01  8.50000000E-01
  8.50000000E-01  8.50000000E-01  8.50000000E-01  8.50000000E-01  8.50000000E-01
  8.50000000E-01  8.50000000E-01  8.50000000E-01  8.50000000E-01  8.50000000E-01
  8.50000000E-01  8.50000000E-01  8.50000000E-01  8.50000000E-01  8.50000000E-01
  8.50000000E-01  8.50000000E-01  8.50000000E-01  8.50000000E-01  8.50000000E-01
  8.50000000E-01  8.50000000E-01  8.50000000E-01  8.50000000E-01  8.50000000E-01
  8.50000000E-01  8.50000000E-01  8.50000000E-01  8.50000000E-01  8.50000000E-01
  8.50000000E-01  8.50000000E-01  8.50000000E-01  8.50000000E-01  8.50000000E-01
  8.50000000E-01  8.50000000E-01  8.50000000E-01  8.50000000E-01  8.50000000E-01
  8.50000000E-01  8.50000000E-01  8.50000000E-01  8.50000000E-01  8.50000000E-01
  8.50000000E-01  8.50000000E-01  8.50000000E-01  8.50000000E-01  8.50000000E-01
  8.50000000E-01  8.50000000E-01  8.50000000E-01  8.50000000E-01  8.50000000E-01
  8.50000000E-01  8.50000000E-01  8.50000000E-01  8.50000000E-01  8.50000000E-01
  8.50000000E-01  8.50000000E-01  8.50000000E-01  8.50000000E-01  8.50000000E-01
  8.50000000E-01  8.50000000E-01  8.50000000E-01  8.50000000E-01  8.50000000E-01
  8.50000000E-01  8.50000000E-01  8.50000000E-01  8.50000000E-01  8.50000000E-01
  8.50000000E-01  8.50000000E-01  8.50000000E-01  8.50000000E-01  8.50000000E-01
  8.50000000E-01  8.50000000E-01  8.50000000E-01  8.50000000E-01  8.50000000E-01
  8.50000000E-01  8.50000000E-01  8.50000000E-01  8.50000000E-01  8.50000000E-01
  8.50000000E-01  8.50000000E-01  8.50000000E-01  8.50000000E-01  8.50000000E-01
  8.50000000E-01  8.50000000E-01  8.50000000E-01  8.50000000E-01  8.50000000E-01
  8.50000000E-01  8.50000000E-01  8.50000000E-01  8.50000000E-01  8.50000000E-01
  8.50000000E-01  8.50000000E-01  8.50000000E-01  8.50000000E-01  8.50000000E-01
  8.50000000E-01  8.50000000E-01  8.50000000E-01  8.50000000E-01  8.50000000E-01
  8.50000000E-01  8.50000000E-01  8.50000000E-01  8.50000000E-01  8.50000000E-01
  8.50000000E-01  8.50000000E-01  8.50000000E-01  8.50000000E-01  8.50000000E-01
  8.50000000E-01  8.50000000E-01  8.50000000E-01  8.50000000E-01  8.50000000E-01
  8.50000000E-01  8.50000000E-01  8.50000000E-01  8.50000000E-01  8.50000000E-01
  8.50000000E-01  8.50000000E-01  8.50000000E-01  8.50000000E-01  8.50000000E-01
  8.50000000E-01  8.50000000E-01  8.50000000E-01  8.50000000E-01  8.50000000E-01
  8.50000000E-01  8.50000000E-01  8.50000000E-01  8.50000000E-01  8.50000000E-01
  8.50000000E-01  8.50000000E-01  8.50000000E-01  8.50000000E-01  8.50000000E-01
  8.50000000E-01  8.50000000E-01  8.50000000E-01  8.50000000E-01  8.50000000E-01
  8.50000000E-01  8.50000000E-01  8.50000000E-01  8.50000000E-01  8.50000000E-01
  8.50000000E-01  8.50000000E-01  8.50000000E-01  8.50000000E-01  8.50000000E-01
  8.50000000E-01  8.50000000E-01  8.50000000E-01  8.50000000E-01  8.50000000E-01
  8.50000000E-01  8.50000000E-01  8.50000000E-01  8.50000000E-01  8.50000000E-01
  8.50000000E-01  8.50000000E-01  8.50000000E-01  8.50000000E-01  8.50000000E-01
  8.50000000E-01  8.50000000E-01  8.50000000E-01  8.50000000E-01  8.50000000E-01
  8.50000000E-01  8.50000000E-01  8.50000000E-01  8.50000000E-01  8.50000000E-01
  8.50000000E-01  8.50000000E-01  8.50000000E-01  8.50000000E-01  8.50000000E-01
  8.50000000E-01  8.50000000E-01  8.50000000E-01  8.50000000E-01  8.50000000E-01
  8.50000000E-01  8.50000000E-01  8.50000000E-01  8.50000000E-01  8.50000000E-01
  8.50000000E-01  8.50000000E-01  8.50000000E-01  8.50000000E-01  8.50000000E-01
  8.50000000E-01  8.50000000E-01  8.50000000E-01  8.50000000E-01  8.50000000E-01
  8.50000000E-01  8.50000000E-01  8.50000000E-01  8.50000000E-01  8.50000000E-01
  8.50000000E-01  8.50000000E-01  8.50000000E-01  8.50000000E-01  8.50000000E-01
  8.50000000E-01  8.50000000E-01  8.50000000E-01  8.50000000E-01  8.50000000E-01
  8.50000000E-01  8.50000000E-01  8.50000000E-01  8.50000000E-01  8.50000000E-01
  8.50000000E-01  8.50000000E-01  8.50000000E-01  8.50000000E-01  8.50000000E-01
  8.50000000E-01  8.50000000E-01  8.50000000E-01  8.50000000E-01  8.50000000E-01
  8.50000000E-01  8.50000000E-01  8.50000000E-01  8.50000000E-01  8.50000000E-01
  8.50000000E-01  8.50000000E-01  8.50000000E-01  8.50000000E-01  8.50000000E-01
  8.50000000E-01  8.50000000E-01  8.50000000E-01  8.50000000E-01  8.50000000E-01
  8.50000000E-01  8.50000000E-01  8.50000000E-01  8.50000000E-01  8.50000000E-01
  8.50000000E-01  8.50000000E-01  8.50000000E-01  8.50000000E-01  8.50000000E-01
  8.50000000E-01  8.50000000E-01  8.50000000E-01  8.50000000E-01  8.50000000E-01
  8.50000000E-01  8.50000000E-01  8.50000000E-01  8.50000000E-01  8.50000000E-01
  8.50000000E-01  8.50000000E-01  8.50000000E-01  8.50000000E-01  8.50000000E-01
  8.50000000E-01  8.50000000E-01  8.50000000E-01  8.50000000E-01  8.50000000E-01
  8.50000000E-01  8.50000000E-01  8.50000000E-01  8.50000000E-01  8.50000000E-01
  8.50000000E-01  8.50000000E-01  8.50000000E-01  8.50000000E-01  8.50000000E-01
  8.50000000E-01  8.50000000E-01  8.50000000E-01  8.50000000E-01  8.50000000E-01
  8.50000000E-01  8.50000000E-01  8.50000000E-01  8.50000000E-01  8.50000000E-01
  8.50000000E-01  8.50000000E-01  8.50000000E-01  8.50000000E-01  8.50000000E-01
  8.50000000E-01  8.50000000E-01  8.50000000E-01  8.50000000E-01  8.50000000E-01
  8.50000000E-01  8.50000000E-01  8.50000000E-01  8.50000000E-01  8.50000000E-01
  8.50000000E-01  8.50000000E-01  8.50000000E-01  8.50000000E-01  8.50000000E-01
  8.50000000E-01  8.50000000E-01  8.50000000E-01  8.50000000E-01  8.50000000E-01
  8.50000000E-01  8.50000000E-01  8.50000000E-01  8.50000000E-01  8.50000000E-01
  8.50000000E-01  8.50000000E-01  8.50000000E-01  8.50000000E-01  8.50000000E-01
  8.50000000E-01  8.50000000E-01  8.50000000E-01  8.50000000E-01  8.50000000E-01
  8.50000000E-01  8.50000000E-01  8.50000000E-01  8.50000000E-01  8.50000000E-01
  8.50000000E-01  8.50000000E-01  8.50000000E-01  8.50000000E-01  8.50000000E-01
  8.50000000E-01  8.50000000E-01  8.50000000E-01  8.50000000E-01  8.50000000E-01
  8.50000000E-01  8.50000000E-01  8.50000000E-01  8.50000000E-01  8.50000000E-01
  8.50000000E-01  8.50000000E-01  8.50000000E-01  8.50000000E-01  8.50000000E-01
  8.50000000E-01  8.50000000E-01  8.50000000E-01  8.50000000E-01  8.50000000E-01
  8.50000000E-01  8.50000000E-01  8.50000000E-01  8.50000000E-01  8.50000000E-01
  8.50000000E-01  8.50000000E-01  8.50000000E-01  8.50000000E-01  8.50000000E-01
  8.50000000E-01  8.50000000E-01  8.50000000E-01  8.50000000E-01  8.50000000E-01
  8.50000000E-01  8.50000000E-01  8.50000000E-01  8.50000000E-01  8.50000000E-01
  8.50000000E-01  8.50000000E-01  8.50000000E-01  8.50000000E-01  8.50000000E-01
  8.50000000E-01  8.50000000E-01  8.50000000E-01  8.50000000E-01  8.50000000E-01
  8.50000000E-01  8.50000000E-01  8.50000000E-01  8.50000000E-01  8.50000000E-01
  8.50000000E-01  8.50000000E-01  8.50000000E-01  8.50000000E-01  8.50000000E-01
  8.50000000E-01  8.50000000E-01  8.50000000E-01  8.50000000E-01  8.50000000E-01
  8.50000000E-01  8.50000000E-01  8.50000000E-01  8.50000000E-01  8.50000000E-01
  8.50000000E-01  8.50000000E-01  8.50000000E-01  8.50000000E-01  8.50000000E-01
  8.50000000E-01  8.50000000E-01  8.50000000E-01  8.50000000E-01  8.50000000E-01
  8.50000000E-01  8.50000000E-01  8.50000000E-01  8.50000000E-01  8.50000000E-01
  8.50000000E-01  8.50000000E-01  8.50000000E-01  8.50000000E-01  8.50000000E-01
  8.50000000E-01  8.50000000E-01  8.50000000E-01  8.50000000E-01  8.50000000E-01
  8.50000000E-01  8.50000000E-01  8.50000000E-01  8.50000000E-01  8.50000000E-01
  8.50000000E-01  8.50000000E-01  8.50000000E-01  8.50000000E-01  8.50000000E-01
  8.50000000E-01  8.50000000E-01  8.50000000E-01  8.50000000E-01  8.50000000E-01
  8.50000000E-01  8.50000000E-01  8.50000000E-01  8.50000000E-01  8.50000000E-01
  8.50000000E-01  8.50000000E-01  8.50000000E-01  8.50000000E-01  8.50000000E-01
  8.50000000E-01  8.50000000E-01  8.50000000E-01  8.50000000E-01  8.50000000E-01
  8.50000000E-01  8.50000000E-01  8.50000000E-01  8.50000000E-01  8.50000000E-01
  8.50000000E-01  8.50000000E-01  8.50000000E-01  8.50000000E-01  8.50000000E-01
  8.50000000E-01  8.50000000E-01  8.50000000E-01  8.50000000E-01  8.50000000E-01
  8.50000000E-01  8.50000000E-01  8.50000000E-01  8.50000000E-01  8.50000000E-01
  8.50000000E-01  8.50000000E-01  8.50000000E-01  8.50000000E-01  8.50000000E-01
  8.50000000E-01  8.50000000E-01  8.50000000E-01  8.50000000E-01  8.50000000E-01
  8.50000000E-01  8.50000000E-01  8.50000000E-01  8.50000000E-01  8.50000000E-01
  8.50000000E-01  8.50000000E-01  8.50000000E-01  8.50000000E-01  8.50000000E-01
  8.50000000E-01  8.50000000E-01  8.50000000E-01  8.50000000E-01  8.50000000E-01
  8.50000000E-01  8.50000000E-01  8.50000000E-01  8.50000000E-01  8.50000000E-01
  8.50000000E-01  8.50000000E-01  8.50000000E-01  8.50000000E-01  8.50000000E-01
  8.50000000E-01  8.50000000E-01  8.50000000E-01  8.50000000E-01  8.50000000E-01
  8.50000000E-01  8.50000000E-01  8.50000000E-01  8.50000000E-01  8.50000000E-01
  8.50000000E-01  8.50000000E-01  8.50000000E-01  8.50000000E-01  8.50000000E-01
  8.50000000E-01  8.50000000E-01  8.50000000E-01  8.50000000E-01  8.50000000E-01
  8.50000000E-01  8.50000000E-01  8.50000000E-01  8.50000000E-01  8.50000000E-01
  8.50000000E-01  8.50000000E-01  8.50000000E-01  8.50000000E-01  8.50000000E-01
  8.50000000E-01  8.50000000E-01  8.50000000E-01  8.50000000E-01  8.50000000E-01
  8.50000000E-01  8.50000000E-01  8.50000000E-01  8.50000000E-01  8.50000000E-01
  8.50000000E-01  8.50000000E-01  8.50000000E-01  8.50000000E-01  8.50000000E-01
  8.50000000E-01  8.50000000E-01  8.50000000E-01  8.50000000E-01  8.50000000E-01
  8.50000000E-01  8.50000000E-01  8.50000000E-01  8.50000000E-01  8.50000000E-01
  8.50000000E-01  8.50000000E-01  8.50000000E-01  8.50000000E-01  8.50000000E-01
  8.50000000E-01  8.50000000E-01  8.50000000E-01  8.50000000E-01  8.50000000E-01
  8.50000000E-01  8.50000000E-01  8.50000000E-01  8.50000000E-01  8.50000000E-01
  8.50000000E-01  8.50000000E-01  8.50000000E-01  8.50000000E-01  8.50000000E-01
  8.50000000E-01  8.50000000E-01  8.50000000E-01  8.50000000E-01  8.50000000E-01
  8.50000000E-01  8.50000000E-01  8.50000000E-01  8.50000000E-01  8.50000000E-01
  8.50000000E-01  8.50000000E-01  8.50000000E-01  8.50000000E-01  8.50000000E-01
  8.50000000E-01  8.50000000E-01  8.50000000E-01  8.50000000E-01  8.50000000E-01
  8.50000000E-01  8.50000000E-01  8.50000000E-01  8.50000000E-01  8.50000000E-01
  8.50000000E-01  8.50000000E-01  8.50000000E-01  8.50000000E-01  8.50000000E-01
  8.50000000E-01  8.50000000E-01  8.50000000E-01  8.50000000E-01  8.50000000E-01
  8.50000000E-01  8.50000000E-01  8.50000000E-01  8.50000000E-01  8.50000000E-01
  8.50000000E-01  8.50000000E-01  8.50000000E-01  8.50000000E-01  8.50000000E-01
  8.50000000E-01  8.50000000E-01  8.50000000E-01  8.50000000E-01  8.50000000E-01
  8.50000000E-01  8.50000000E-01  8.50000000E-01  8.50000000E-01  8.50000000E-01
  8.50000000E-01  8.50000000E-01  8.50000000E-01  8.50000000E-01  8.50000000E-01
  8.50000000E-01  8.50000000E-01  8.50000000E-01  8.50000000E-01  8.50000000E-01
  8.50000000E-01  8.50000000E-01  8.50000000E-01  8.50000000E-01  8.50000000E-01
  8.50000000E-01  8.50000000E-01  8.50000000E-01  8.50000000E-01  8.50000000E-01
  8.50000000E-01  8.50000000E-01  8.50000000E-01  8.50000000E-01  8.50000000E-01
  8.50000000E-01  8.50000000E-01  8.50000000E-01  8.50000000E-01  8.50000000E-01
  8.50000000E-01  8.50000000E-01  8.50000000E-01  8.50000000E-01  8.50000000E-01
  8.50000000E-01  8.50000000E-01  8.50000000E-01  8.50000000E-01  8.50000000E-01
  8.50000000E-01  8.50000000E-01  8.50000000E-01  8.50000000E-01  8.50000000E-01
  8.50000000E-01  8.50000000E-01  8.50000000E-01  8.50000000E-01  8.50000000E-01
  8.50000000E-01  8.50000000E-01  8.50000000E-01  8.50000000E-01  8.50000000E-01
  8.50000000E-01  8.50000000E-01  8.50000000E-01  8.50000000E-01  8.50000000E-01
  8.50000000E-01  8.50000000E-01  8.50000000E-01  8.50000000E-01  8.50000000E-01
  8.50000000E-01  8.50000000E-01  8.50000000E-01  8.50000000E-01  8.50000000E-01
  8.50000000E-01  8.50000000E-01  8.50000000E-01  8.50000000E-01  8.50000000E-01
  8.50000000E-01  8.50000000E-01  8.50000000E-01  8.50000000E-01  8.50000000E-01
  8.50000000E-01  8.50000000E-01  8.50000000E-01  8.50000000E-01  8.50000000E-01
  8.50000000E-01  8.50000000E-01  8.50000000E-01  8.50000000E-01  8.50000000E-01
  8.50000000E-01  8.50000000E-01  8.50000000E-01  8.50000000E-01  8.50000000E-01
  8.50000000E-01  8.50000000E-01  8.50000000E-01  8.50000000E-01  8.50000000E-01
  8.50000000E-01  8.50000000E-01  8.50000000E-01  8.50000000E-01  8.50000000E-01
  8.50000000E-01  8.50000000E-01  8.50000000E-01  8.50000000E-01  8.50000000E-01
  8.50000000E-01  8.50000000E-01  8.50000000E-01  8.50000000E-01  8.50000000E-01
  8.50000000E-01  8.50000000E-01  8.50000000E-01  8.50000000E-01  8.50000000E-01
  8.50000000E-01  8.50000000E-01  8.50000000E-01  8.50000000E-01  8.50000000E-01
  8.50000000E-01  8.50000000E-01  8.50000000E-01  8.50000000E-01  8.50000000E-01
  8.50000000E-01  8.50000000E-01  8.50000000E-01  8.50000000E-01  8.50000000E-01
  8.50000000E-01  8.50000000E-01  8.50000000E-01  8.50000000E-01  8.50000000E-01
  8.50000000E-01  8.50000000E-01  8.50000000E-01  8.50000000E-01  8.50000000E-01
  8.50000000E-01  8.50000000E-01  8.50000000E-01  8.50000000E-01  8.50000000E-01
  8.50000000E-01  8.50000000E-01  8.50000000E-01  8.50000000E-01  8.50000000E-01
  8.50000000E-01  8.50000000E-01  8.50000000E-01  8.50000000E-01  8.50000000E-01
  8.50000000E-01  8.50000000E-01  8.50000000E-01  8.50000000E-01  8.50000000E-01
  8.50000000E-01  8.50000000E-01  8.50000000E-01  8.50000000E-01  8.50000000E-01
  8.50000000E-01  8.50000000E-01  8.50000000E-01  8.50000000E-01  8.50000000E-01
  8.50000000E-01  8.50000000E-01  8.50000000E-01  8.50000000E-01  8.50000000E-01
  8.50000000E-01  8.50000000E-01  8.50000000E-01  8.50000000E-01  8.50000000E-01
  8.50000000E-01  8.50000000E-01  8.50000000E-01  8.50000000E-01  8.50000000E-01
  8.50000000E-01  8.50000000E-01  8.50000000E-01  8.50000000E-01  8.50000000E-01
  8.50000000E-01  8.50000000E-01  8.50000000E-01  8.50000000E-01  8.50000000E-01
  8.50000000E-01  8.50000000E-01  8.50000000E-01  8.50000000E-01  8.50000000E-01
  8.50000000E-01  8.50000000E-01  8.50000000E-01  8.50000000E-01  8.50000000E-01
  8.50000000E-01  8.50000000E-01  8.50000000E-01  8.50000000E-01  8.50000000E-01
  8.50000000E-01  8.50000000E-01  8.50000000E-01  8.50000000E-01  8.50000000E-01
  8.50000000E-01  8.50000000E-01  8.50000000E-01  8.50000000E-01  8.50000000E-01
  8.50000000E-01  8.50000000E-01  8.50000000E-01  8.50000000E-01  8.50000000E-01
  8.50000000E-01  8.50000000E-01  8.50000000E-01  8.50000000E-01  8.50000000E-01
  8.50000000E-01  8.50000000E-01  8.50000000E-01  8.50000000E-01  8.50000000E-01
  8.50000000E-01  8.50000000E-01  8.50000000E-01  8.50000000E-01  8.50000000E-01
  8.50000000E-01  8.50000000E-01  8.50000000E-01  8.50000000E-01  8.50000000E-01
  8.50000000E-01  8.50000000E-01  8.50000000E-01  8.50000000E-01  8.50000000E-01
  8.50000000E-01  8.50000000E-01  8.50000000E-01  8.50000000E-01  8.50000000E-01
  8.50000000E-01  8.50000000E-01  8.50000000E-01  8.50000000E-01  8.50000000E-01
  8.50000000E-01  8.50000000E-01  8.50000000E-01  8.50000000E-01  8.50000000E-01
  8.50000000E-01  8.50000000E-01  8.50000000E-01  8.50000000E-01  8.50000000E-01
  8.50000000E-01  8.50000000E-01  8.50000000E-01  8.50000000E-01  8.50000000E-01
  8.50000000E-01  8.50000000E-01  8.50000000E-01  8.50000000E-01  8.50000000E-01
  8.50000000E-01  8.50000000E-01  8.50000000E-01  8.50000000E-01  8.50000000E-01
  8.50000000E-01  8.50000000E-01  8.50000000E-01  8.50000000E-01  8.50000000E-01
  8.50000000E-01  8.50000000E-01  8.50000000E-01  8.50000000E-01  8.50000000E-01
  8.50000000E-01  8.50000000E-01  8.50000000E-01  8.50000000E-01  8.50000000E-01
  8.50000000E-01  8.50000000E-01  8.50000000E-01  8.50000000E-01  8.50000000E-01
  8.50000000E-01  8.50000000E-01  8.50000000E-01  8.50000000E-01  8.50000000E-01
  8.50000000E-01  8.50000000E-01  8.50000000E-01  8.50000000E-01  8.50000000E-01
  8.50000000E-01  8.50000000E-01  8.50000000E-01  8.50000000E-01  8.50000000E-01
  8.50000000E-01  8.50000000E-01  8.50000000E-01  8.50000000E-01  8.50000000E-01
  8.50000000E-01  8.50000000E-01  8.50000000E-01  8.50000000E-01  8.50000000E-01
  8.50000000E-01  8.50000000E-01  8.50000000E-01  8.50000000E-01  8.50000000E-01
  8.50000000E-01  8.50000000E-01  8.50000000E-01  8.50000000E-01  8.50000000E-01
  8.50000000E-01  8.50000000E-01  8.50000000E-01  8.50000000E-01  8.50000000E-01
  8.50000000E-01  8.50000000E-01  8.50000000E-01  8.50000000E-01  8.50000000E-01
  8.50000000E-01  8.50000000E-01  8.50000000E-01  8.50000000E-01  8.50000000E-01
  8.50000000E-01  8.50000000E-01  8.50000000E-01  8.50000000E-01  8.50000000E-01
  8.50000000E-01  8.50000000E-01  8.50000000E-01  8.50000000E-01  8.50000000E-01
  8.50000000E-01  8.50000000E-01  8.50000000E-01  8.50000000E-01  8.50000000E-01
  8.50000000E-01  8.50000000E-01  8.50000000E-01  8.50000000E-01  8.50000000E-01
  8.50000000E-01  8.50000000E-01  8.50000000E-01  8.50000000E-01  8.50000000E-01
  8.50000000E-01  8.50000000E-01  8.50000000E-01  8.50000000E-01  8.50000000E-01
  8.50000000E-01  8.50000000E-01  8.50000000E-01  8.50000000E-01  8.50000000E-01
  8.50000000E-01  8.50000000E-01  8.50000000E-01  8.50000000E-01  8.50000000E-01
  8.50000000E-01  8.50000000E-01  8.50000000E-01  8.50000000E-01  8.50000000E-01
  8.50000000E-01  8.50000000E-01  8.50000000E-01  8.50000000E-01  8.50000000E-01
  8.50000000E-01  8.50000000E-01  8.50000000E-01  8.50000000E-01  8.50000000E-01
  8.50000000E-01  8.50000000E-01  8.50000000E-01  8.50000000E-01  8.50000000E-01
  8.50000000E-01  8.50000000E-01  8.50000000E-01  8.50000000E-01  8.50000000E-01
  8.50000000E-01  8.50000000E-01  8.50000000E-01  8.50000000E-01  8.50000000E-01
  8.50000000E-01  8.50000000E-01  8.50000000E-01  8.50000000E-01  8.50000000E-01
  8.50000000E-01  8.50000000E-01  8.50000000E-01  8.50000000E-01  8.50000000E-01
  8.50000000E-01  8.50000000E-01  8.50000000E-01  8.50000000E-01  8.50000000E-01
  8.50000000E-01  8.50000000E-01  8.50000000E-01  8.50000000E-01  8.50000000E-01
  8.50000000E-01  8.50000000E-01  8.50000000E-01  8.50000000E-01  8.50000000E-01
  8.50000000E-01  8.50000000E-01  8.50000000E-01  8.50000000E-01  8.50000000E-01
  8.50000000E-01  8.50000000E-01  8.50000000E-01  8.50000000E-01  8.50000000E-01
  8.50000000E-01  8.50000000E-01  8.50000000E-01  8.50000000E-01  8.50000000E-01
  8.50000000E-01  8.50000000E-01  8.50000000E-01  8.50000000E-01  8.50000000E-01
  8.50000000E-01  8.50000000E-01  8.50000000E-01  8.50000000E-01  8.50000000E-01
  8.50000000E-01  8.50000000E-01  8.50000000E-01  8.50000000E-01  8.50000000E-01
  8.50000000E-01  8.50000000E-01  8.50000000E-01  8.50000000E-01  8.50000000E-01
  8.50000000E-01  8.50000000E-01  8.50000000E-01  8.50000000E-01  8.50000000E-01
  8.50000000E-01  8.50000000E-01  8.50000000E-01  8.50000000E-01  8.50000000E-01
  8.50000000E-01  8.50000000E-01  8.50000000E-01  8.50000000E-01  8.50000000E-01
  8.50000000E-01  8.50000000E-01  8.50000000E-01  8.50000000E-01  8.50000000E-01
  8.50000000E-01  8.50000000E-01  8.50000000E-01  8.50000000E-01  8.50000000E-01
  8.50000000E-01  8.50000000E-01  8.50000000E-01  8.50000000E-01  8.50000000E-01
  8.50000000E-01  8.50000000E-01  8.50000000E-01  8.50000000E-01  8.50000000E-01
  8.50000000E-01  8.50000000E-01  8.50000000E-01  8.50000000E-01  8.50000000E-01
  8.50000000E-01  8.50000000E-01  8.50000000E-01  8.50000000E-01  8.50000000E-01
  8.50000000E-01  8.50000000E-01  8.50000000E-01  8.50000000E-01  8.50000000E-01
  8.50000000E-01  8.50000000E-01  8.50000000E-01  8.50000000E-01  8.50000000E-01
  8.50000000E-01  8.50000000E-01  8.50000000E-01  8.50000000E-01  8.50000000E-01
  8.50000000E-01  8.50000000E-01  8.50000000E-01  8.50000000E-01  8.50000000E-01
  8.50000000E-01  8.50000000E-01  8.50000000E-01  8.50000000E-01  8.50000000E-01
  8.50000000E-01  8.50000000E-01  8.50000000E-01  8.50000000E-01  8.50000000E-01
  8.50000000E-01  8.50000000E-01  8.50000000E-01  8.50000000E-01  8.50000000E-01
  8.50000000E-01  8.50000000E-01  8.50000000E-01  8.50000000E-01  8.50000000E-01
  8.50000000E-01  8.50000000E-01  8.50000000E-01  8.50000000E-01  8.50000000E-01
  8.50000000E-01  8.50000000E-01  8.50000000E-01  8.50000000E-01  8.50000000E-01
  8.50000000E-01  8.50000000E-01  8.50000000E-01  8.50000000E-01  8.50000000E-01
  8.50000000E-01  8.50000000E-01  8.50000000E-01  8.50000000E-01  8.50000000E-01
  8.50000000E-01  8.50000000E-01  8.50000000E-01  8.50000000E-01  8.50000000E-01
  8.50000000E-01  8.50000000E-01  8.50000000E-01  8.50000000E-01  8.50000000E-01
  8.50000000E-01  8.50000000E-01  8.50000000E-01  8.50000000E-01  8.50000000E-01
  8.50000000E-01  8.50000000E-01  8.50000000E-01  8.50000000E-01  8.50000000E-01
  8.50000000E-01  8.50000000E-01  8.50000000E-01  8.50000000E-01  8.50000000E-01
  8.50000000E-01  8.50000000E-01  8.50000000E-01  8.50000000E-01  8.50000000E-01
  8.50000000E-01  8.50000000E-01  8.50000000E-01  8.50000000E-01  8.50000000E-01
  8.50000000E-01  8.50000000E-01  8.50000000E-01  8.50000000E-01  8.50000000E-01
  8.50000000E-01  8.50000000E-01  8.50000000E-01  8.50000000E-01  8.50000000E-01
  8.50000000E-01  8.50000000E-01  8.50000000E-01  8.50000000E-01  8.50000000E-01
  8.50000000E-01  8.50000000E-01  8.50000000E-01  8.50000000E-01  8.50000000E-01
  8.50000000E-01  8.50000000E-01  8.50000000E-01  8.50000000E-01  8.50000000E-01
  8.50000000E-01  8.50000000E-01  8.50000000E-01  8.50000000E-01  8.50000000E-01
  8.50000000E-01  8.50000000E-01  8.50000000E-01  8.50000000E-01  8.50000000E-01
  8.50000000E-01  8.50000000E-01  8.50000000E-01  8.50000000E-01  8.50000000E-01
  8.50000000E-01  8.50000000E-01  8.50000000E-01  8.50000000E-01  8.50000000E-01
  8.50000000E-01  8.50000000E-01  8.50000000E-01  8.50000000E-01  8.50000000E-01
  8.50000000E-01  8.50000000E-01  8.50000000E-01  8.50000000E-01  8.50000000E-01
  8.50000000E-01  8.50000000E-01  8.50000000E-01  8.50000000E-01  8.50000000E-01
  8.50000000E-01  8.50000000E-01  8.50000000E-01  8.50000000E-01  8.50000000E-01
  8.50000000E-01  8.50000000E-01  8.50000000E-01  8.50000000E-01  8.50000000E-01
  8.50000000E-01  8.50000000E-01  8.50000000E-01  8.50000000E-01  8.50000000E-01
  8.50000000E-01  8.50000000E-01  8.50000000E-01  8.50000000E-01  8.50000000E-01
  8.50000000E-01  8.50000000E-01  8.50000000E-01  8.50000000E-01  8.50000000E-01
  8.50000000E-01  8.50000000E-01  8.50000000E-01  8.50000000E-01  8.50000000E-01
  8.50000000E-01  8.50000000E-01  8.50000000E-01  8.50000000E-01  8.50000000E-01
  8.50000000E-01  8.50000000E-01  8.50000000E-01  8.50000000E-01  8.50000000E-01
  8.50000000E-01  8.50000000E-01  8.50000000E-01  8.50000000E-01  8.50000000E-01
  8.50000000E-01  8.50000000E-01  8.50000000E-01  8.50000000E-01  8.50000000E-01
  8.50000000E-01  8.50000000E-01  8.50000000E-01  8.50000000E-01  8.50000000E-01
  8.50000000E-01  8.50000000E-01  8.50000000E-01  8.50000000E-01  8.50000000E-01
  8.50000000E-01  8.50000000E-01  8.50000000E-01  8.50000000E-01  8.50000000E-01
  8.50000000E-01  8.50000000E-01  8.50000000E-01  8.50000000E-01  8.50000000E-01
  8.50000000E-01  8.50000000E-01  8.50000000E-01  8.50000000E-01  8.50000000E-01
  8.50000000E-01  8.50000000E-01  8.50000000E-01  8.50000000E-01  8.50000000E-01
  8.50000000E-01  8.50000000E-01  8.50000000E-01  8.50000000E-01  8.50000000E-01
  8.50000000E-01  8.50000000E-01  8.50000000E-01  8.50000000E-01  8.50000000E-01
  8.50000000E-01  8.50000000E-01  8.50000000E-01  8.50000000E-01  8.50000000E-01
  8.50000000E-01  8.50000000E-01  8.50000000E-01  8.50000000E-01  8.50000000E-01
  8.50000000E-01  8.50000000E-01  8.50000000E-01  8.50000000E-01  8.50000000E-01
  8.50000000E-01  8.50000000E-01  8.50000000E-01  8.50000000E-01  8.50000000E-01
  8.50000000E-01  8.50000000E-01  8.50000000E-01  8.50000000E-01  8.50000000E-01
  8.50000000E-01  8.50000000E-01  8.50000000E-01  8.50000000E-01  8.50000000E-01
  8.50000000E-01  8.50000000E-01  8.50000000E-01  8.50000000E-01  8.50000000E-01
  8.50000000E-01  8.50000000E-01  8.50000000E-01  8.50000000E-01  8.50000000E-01
  8.50000000E-01  8.50000000E-01  8.50000000E-01  8.50000000E-01  8.50000000E-01
  8.50000000E-01  8.50000000E-01  8.50000000E-01  8.50000000E-01  8.50000000E-01
  8.50000000E-01  8.50000000E-01  8.50000000E-01  8.50000000E-01  8.50000000E-01
  8.50000000E-01  8.50000000E-01  8.50000000E-01  8.50000000E-01  8.50000000E-01
  8.50000000E-01  8.50000000E-01  8.50000000E-01  8.50000000E-01  8.50000000E-01
  8.50000000E-01  8.50000000E-01  8.50000000E-01  8.50000000E-01  8.50000000E-01
  8.50000000E-01  8.50000000E-01  8.50000000E-01  8.50000000E-01  8.50000000E-01
  8.50000000E-01  8.50000000E-01  8.50000000E-01  8.50000000E-01  8.50000000E-01
  8.50000000E-01  8.50000000E-01  8.50000000E-01  8.50000000E-01  8.50000000E-01
  8.50000000E-01  8.50000000E-01  8.50000000E-01  8.50000000E-01  8.50000000E-01
  8.50000000E-01  8.50000000E-01  8.50000000E-01  8.50000000E-01  8.50000000E-01
  8.50000000E-01  8.50000000E-01  8.50000000E-01  8.50000000E-01  8.50000000E-01
  8.50000000E-01  8.50000000E-01  8.50000000E-01  8.50000000E-01  8.50000000E-01
  8.50000000E-01  8.50000000E-01  8.50000000E-01  8.50000000E-01  8.50000000E-01
  8.50000000E-01  8.50000000E-01  8.50000000E-01  8.50000000E-01  8.50000000E-01
  8.50000000E-01  8.50000000E-01  8.50000000E-01  8.50000000E-01  8.50000000E-01
  8.50000000E-01  8.50000000E-01  8.50000000E-01  8.50000000E-01  8.50000000E-01
  8.50000000E-01  8.50000000E-01  8.50000000E-01  8.50000000E-01  8.50000000E-01
  8.50000000E-01  8.50000000E-01  8.50000000E-01  8.50000000E-01  8.50000000E-01
  8.50000000E-01  8.50000000E-01  8.50000000E-01  8.50000000E-01  8.50000000E-01
  8.50000000E-01  8.50000000E-01  8.50000000E-01  8.50000000E-01  8.50000000E-01
  8.50000000E-01  8.50000000E-01  8.50000000E-01  8.50000000E-01  8.50000000E-01
  8.50000000E-01  8.50000000E-01  8.50000000E-01  8.50000000E-01  8.50000000E-01
  8.50000000E-01  8.50000000E-01  8.50000000E-01  8.50000000E-01  8.50000000E-01
  8.50000000E-01  8.50000000E-01  8.50000000E-01  8.50000000E-01  8.50000000E-01
  8.50000000E-01  8.50000000E-01  8.50000000E-01  8.50000000E-01  8.50000000E-01
  8.50000000E-01  8.50000000E-01  8.50000000E-01  8.50000000E-01  8.50000000E-01
  8.50000000E-01  8.50000000E-01  8.50000000E-01  8.50000000E-01  8.50000000E-01
  8.50000000E-01  8.50000000E-01  8.50000000E-01  8.50000000E-01  8.50000000E-01
  8.50000000E-01  8.50000000E-01  8.50000000E-01  8.50000000E-01  8.50000000E-01
  8.50000000E-01  8.50000000E-01  8.50000000E-01  8.50000000E-01  8.50000000E-01
  8.50000000E-01  8.50000000E-01  8.50000000E-01  8.50000000E-01  8.50000000E-01
  8.50000000E-01  8.50000000E-01  8.50000000E-01  8.50000000E-01  8.50000000E-01
  8.50000000E-01  8.50000000E-01  8.50000000E-01  8.50000000E-01  8.50000000E-01
  8.50000000E-01  8.50000000E-01  8.50000000E-01  8.50000000E-01  8.50000000E-01
  8.50000000E-01  8.50000000E-01  8.50000000E-01  8.50000000E-01  8.50000000E-01
  8.50000000E-01  8.50000000E-01  8.50000000E-01  8.50000000E-01  8.50000000E-01
  8.50000000E-01  8.50000000E-01  8.50000000E-01  8.50000000E-01  8.50000000E-01
  8.50000000E-01  8.50000000E-01  8.50000000E-01  8.50000000E-01  8.50000000E-01
  8.50000000E-01  8.50000000E-01  8.50000000E-01  8.50000000E-01  8.50000000E-01
  8.50000000E-01  8.50000000E-01  8.50000000E-01  8.50000000E-01  8.50000000E-01
  8.50000000E-01  8.50000000E-01  8.50000000E-01  8.50000000E-01  8.50000000E-01
  8.50000000E-01  8.50000000E-01  8.50000000E-01  8.50000000E-01  8.50000000E-01
  8.50000000E-01  8.50000000E-01  8.50000000E-01  8.50000000E-01  8.50000000E-01
  8.50000000E-01  8.50000000E-01  8.50000000E-01  8.50000000E-01  8.50000000E-01
  8.50000000E-01  8.50000000E-01  8.50000000E-01  8.50000000E-01  8.50000000E-01
  8.50000000E-01  8.50000000E-01  8.50000000E-01  8.50000000E-01  8.50000000E-01
  8.50000000E-01  8.50000000E-01  8.50000000E-01  8.50000000E-01  8.50000000E-01
  8.50000000E-01  8.50000000E-01  8.50000000E-01  8.50000000E-01  8.50000000E-01
  8.50000000E-01  8.50000000E-01  8.50000000E-01  8.50000000E-01  8.50000000E-01
  8.50000000E-01  8.50000000E-01  8.50000000E-01  8.50000000E-01  8.50000000E-01
  8.50000000E-01  8.50000000E-01  8.50000000E-01  8.50000000E-01  8.50000000E-01
  8.50000000E-01  8.50000000E-01  8.50000000E-01  8.50000000E-01  8.50000000E-01
  8.50000000E-01  8.50000000E-01  8.50000000E-01  8.50000000E-01  8.50000000E-01
  8.50000000E-01  8.50000000E-01  8.50000000E-01  8.50000000E-01  8.50000000E-01
  8.50000000E-01  8.50000000E-01  8.50000000E-01  8.50000000E-01  8.50000000E-01
  8.50000000E-01  8.50000000E-01  8.50000000E-01  8.50000000E-01  8.50000000E-01
  8.50000000E-01  8.50000000E-01  8.50000000E-01  8.50000000E-01  8.50000000E-01
  8.50000000E-01  8.50000000E-01  8.50000000E-01  8.50000000E-01  8.50000000E-01
  8.50000000E-01  8.50000000E-01  8.50000000E-01  8.50000000E-01  8.50000000E-01
  8.50000000E-01  8.50000000E-01  8.50000000E-01  8.50000000E-01  8.50000000E-01
  8.50000000E-01  8.50000000E-01  8.50000000E-01  8.50000000E-01  8.50000000E-01
  8.50000000E-01  8.50000000E-01  8.50000000E-01  8.50000000E-01  8.50000000E-01
  8.50000000E-01  8.50000000E-01  8.50000000E-01  8.50000000E-01  8.50000000E-01
  8.50000000E-01  8.50000000E-01  8.50000000E-01  8.50000000E-01  8.50000000E-01
  8.50000000E-01  8.50000000E-01  8.50000000E-01  8.50000000E-01  8.50000000E-01
  8.50000000E-01  8.50000000E-01  8.50000000E-01  8.50000000E-01  8.50000000E-01
  8.50000000E-01  8.50000000E-01  8.50000000E-01  8.50000000E-01  8.50000000E-01
  8.50000000E-01  8.50000000E-01  8.50000000E-01  8.50000000E-01  8.50000000E-01
  8.50000000E-01  8.50000000E-01  8.50000000E-01  8.50000000E-01  8.50000000E-01
  8.50000000E-01  8.50000000E-01  8.50000000E-01  8.50000000E-01  8.50000000E-01
  8.50000000E-01  8.50000000E-01  8.50000000E-01  8.50000000E-01  8.50000000E-01
  8.50000000E-01  8.50000000E-01  8.50000000E-01  8.50000000E-01  8.50000000E-01
  8.50000000E-01  8.50000000E-01  8.50000000E-01  8.50000000E-01  8.50000000E-01
  8.50000000E-01  8.50000000E-01  8.50000000E-01  8.50000000E-01  8.50000000E-01
  8.50000000E-01  8.50000000E-01  8.50000000E-01  8.50000000E-01  8.50000000E-01
  8.50000000E-01  8.50000000E-01  8.50000000E-01  8.50000000E-01  8.50000000E-01
  8.50000000E-01  8.50000000E-01  8.50000000E-01  8.50000000E-01  8.50000000E-01
  8.50000000E-01  8.50000000E-01  8.50000000E-01  8.50000000E-01  8.50000000E-01
  8.50000000E-01  8.50000000E-01  8.50000000E-01  8.50000000E-01  8.50000000E-01
  8.50000000E-01  8.50000000E-01  8.50000000E-01  8.50000000E-01  8.50000000E-01
  8.50000000E-01  8.50000000E-01  8.50000000E-01  8.50000000E-01  8.50000000E-01
  8.50000000E-01  8.50000000E-01  8.50000000E-01  8.50000000E-01  8.50000000E-01
  8.50000000E-01  8.50000000E-01  8.50000000E-01  8.50000000E-01  8.50000000E-01
  8.50000000E-01  8.50000000E-01  8.50000000E-01  8.50000000E-01  8.50000000E-01
  8.50000000E-01  8.50000000E-01  8.50000000E-01  8.50000000E-01  8.50000000E-01
  8.50000000E-01  8.50000000E-01  8.50000000E-01  8.50000000E-01  8.50000000E-01
  8.50000000E-01  8.50000000E-01  8.50000000E-01  8.50000000E-01  8.50000000E-01
  8.50000000E-01  8.50000000E-01  8.50000000E-01  8.50000000E-01  8.50000000E-01
  8.50000000E-01  8.50000000E-01  8.50000000E-01  8.50000000E-01  8.50000000E-01
  8.50000000E-01  8.50000000E-01  8.50000000E-01  8.50000000E-01  8.50000000E-01
  8.50000000E-01  8.50000000E-01  8.50000000E-01  8.50000000E-01  8.50000000E-01
  8.50000000E-01  8.50000000E-01  8.50000000E-01  8.50000000E-01  8.50000000E-01
  8.50000000E-01  8.50000000E-01  8.50000000E-01  8.50000000E-01  8.50000000E-01
  8.50000000E-01  8.50000000E-01  8.50000000E-01  8.50000000E-01  8.50000000E-01
  8.50000000E-01  8.50000000E-01  8.50000000E-01  8.50000000E-01  8.50000000E-01
  8.50000000E-01  8.50000000E-01  8.50000000E-01  8.50000000E-01  8.50000000E-01
  8.50000000E-01  8.50000000E-01  8.50000000E-01  8.50000000E-01  8.50000000E-01
  8.50000000E-01  8.50000000E-01  8.50000000E-01  8.50000000E-01  8.50000000E-01
  8.50000000E-01  8.50000000E-01  8.50000000E-01  8.50000000E-01  8.50000000E-01
  8.50000000E-01  8.50000000E-01  8.50000000E-01  8.50000000E-01  8.50000000E-01
  8.50000000E-01  8.50000000E-01  8.50000000E-01  8.50000000E-01  8.50000000E-01
  8.50000000E-01  8.50000000E-01  8.50000000E-01  8.50000000E-01  8.50000000E-01
  8.50000000E-01  8.50000000E-01  8.50000000E-01  8.50000000E-01  8.50000000E-01
  8.50000000E-01  8.50000000E-01  8.50000000E-01  8.50000000E-01  8.50000000E-01
  8.50000000E-01  8.50000000E-01  8.50000000E-01  8.50000000E-01  8.50000000E-01
  8.50000000E-01  8.50000000E-01  8.50000000E-01  8.50000000E-01  8.50000000E-01
  8.50000000E-01  8.50000000E-01  8.50000000E-01  8.50000000E-01  8.50000000E-01
  8.50000000E-01  8.50000000E-01  8.50000000E-01  8.50000000E-01  8.50000000E-01
  8.50000000E-01  8.50000000E-01  8.50000000E-01  8.50000000E-01  8.50000000E-01
  8.50000000E-01  8.50000000E-01  8.50000000E-01  8.50000000E-01  8.50000000E-01
  8.50000000E-01  8.50000000E-01  8.50000000E-01  8.50000000E-01  8.50000000E-01
  8.50000000E-01  8.50000000E-01  8.50000000E-01  8.50000000E-01  8.50000000E-01
  8.50000000E-01  8.50000000E-01  8.50000000E-01  8.50000000E-01  8.50000000E-01
  8.50000000E-01  8.50000000E-01  8.50000000E-01  8.50000000E-01  8.50000000E-01
  8.50000000E-01  8.50000000E-01  8.50000000E-01  8.50000000E-01  8.50000000E-01
  8.50000000E-01  8.50000000E-01  8.50000000E-01  8.50000000E-01  8.50000000E-01
  8.50000000E-01  8.50000000E-01  8.50000000E-01  8.50000000E-01  8.50000000E-01
  8.50000000E-01  8.50000000E-01  8.50000000E-01  8.50000000E-01  8.50000000E-01
  8.50000000E-01  8.50000000E-01  8.50000000E-01  8.50000000E-01  8.50000000E-01
  8.50000000E-01  8.50000000E-01  8.50000000E-01  8.50000000E-01  8.50000000E-01
  8.50000000E-01  8.50000000E-01  8.50000000E-01  8.50000000E-01  8.50000000E-01
  8.50000000E-01  8.50000000E-01  8.50000000E-01  8.50000000E-01  8.50000000E-01
  8.50000000E-01  8.50000000E-01  8.50000000E-01  8.50000000E-01  8.50000000E-01
  8.50000000E-01  8.50000000E-01  8.50000000E-01  8.50000000E-01  8.50000000E-01
  8.50000000E-01  8.50000000E-01  8.50000000E-01  8.50000000E-01  8.50000000E-01
  8.50000000E-01  8.50000000E-01  8.50000000E-01  8.50000000E-01  8.50000000E-01
  8.50000000E-01  8.50000000E-01  8.50000000E-01  8.50000000E-01  8.50000000E-01
  8.50000000E-01  8.50000000E-01  8.50000000E-01  8.50000000E-01  8.50000000E-01
  8.50000000E-01  8.50000000E-01  8.50000000E-01  8.50000000E-01  8.50000000E-01
  8.50000000E-01  8.50000000E-01  8.50000000E-01  8.50000000E-01  8.50000000E-01
  8.50000000E-01  8.50000000E-01  8.50000000E-01  8.50000000E-01  8.50000000E-01
  8.50000000E-01  8.50000000E-01  8.50000000E-01  8.50000000E-01  8.50000000E-01
  8.50000000E-01  8.50000000E-01  8.50000000E-01  8.50000000E-01  8.50000000E-01
  8.50000000E-01  8.50000000E-01  8.50000000E-01  8.50000000E-01  8.50000000E-01
  8.50000000E-01  8.50000000E-01  8.50000000E-01  8.50000000E-01  8.50000000E-01
  8.50000000E-01  8.50000000E-01  8.50000000E-01  8.50000000E-01  8.50000000E-01
  8.50000000E-01  8.50000000E-01  8.50000000E-01  8.50000000E-01  8.50000000E-01
  8.50000000E-01  8.50000000E-01  8.50000000E-01  8.50000000E-01  8.50000000E-01
  8.50000000E-01  8.50000000E-01  8.50000000E-01  8.50000000E-01  8.50000000E-01
  8.50000000E-01  8.50000000E-01  8.50000000E-01  8.50000000E-01  8.50000000E-01
  8.50000000E-01  8.50000000E-01  8.50000000E-01  8.50000000E-01  8.50000000E-01
  8.50000000E-01  8.50000000E-01  8.50000000E-01  8.50000000E-01  8.50000000E-01
  8.50000000E-01  8.50000000E-01  8.50000000E-01  8.50000000E-01  8.50000000E-01
  8.50000000E-01  8.50000000E-01  8.50000000E-01  8.50000000E-01  8.50000000E-01
  8.50000000E-01  8.50000000E-01  8.50000000E-01  8.50000000E-01  8.50000000E-01
  8.50000000E-01  8.50000000E-01  8.50000000E-01  8.50000000E-01  8.50000000E-01
  8.50000000E-01  8.50000000E-01  8.50000000E-01  8.50000000E-01  8.50000000E-01
  8.50000000E-01  8.50000000E-01  8.50000000E-01  8.50000000E-01  8.50000000E-01
  8.50000000E-01  8.50000000E-01  8.50000000E-01  8.50000000E-01  8.50000000E-01
  8.50000000E-01  8.50000000E-01  8.50000000E-01  8.50000000E-01  8.50000000E-01
  8.50000000E-01  8.50000000E-01  8.50000000E-01  8.50000000E-01  8.50000000E-01
  8.50000000E-01  8.50000000E-01  8.50000000E-01  8.50000000E-01  8.50000000E-01
  8.50000000E-01  8.50000000E-01  8.50000000E-01  8.50000000E-01  8.50000000E-01
  8.50000000E-01  8.50000000E-01  8.50000000E-01  8.50000000E-01  8.50000000E-01
  8.50000000E-01  8.50000000E-01  8.50000000E-01  8.50000000E-01  8.50000000E-01
  8.50000000E-01  8.50000000E-01  8.50000000E-01  8.50000000E-01  8.50000000E-01
  8.50000000E-01  8.50000000E-01  8.50000000E-01  8.50000000E-01  8.50000000E-01
  8.50000000E-01  8.50000000E-01  8.50000000E-01  8.50000000E-01  8.50000000E-01
  8.50000000E-01  8.50000000E-01  8.50000000E-01  8.50000000E-01  8.50000000E-01
  8.50000000E-01  8.50000000E-01  8.50000000E-01  8.50000000E-01  8.50000000E-01
  8.50000000E-01  8.50000000E-01  8.50000000E-01  8.50000000E-01  8.50000000E-01
  8.50000000E-01  8.50000000E-01  8.50000000E-01  8.50000000E-01  8.50000000E-01
  8.50000000E-01  8.50000000E-01  8.50000000E-01  8.50000000E-01  8.50000000E-01
  8.50000000E-01  8.50000000E-01  8.50000000E-01  8.50000000E-01  8.50000000E-01
  8.50000000E-01  8.50000000E-01  8.50000000E-01  8.50000000E-01  8.50000000E-01
  8.50000000E-01  8.50000000E-01  8.50000000E-01  8.50000000E-01  8.50000000E-01
  8.50000000E-01  8.50000000E-01  8.50000000E-01  8.50000000E-01  8.50000000E-01
  8.50000000E-01  8.50000000E-01  8.50000000E-01  8.50000000E-01  8.50000000E-01
  8.50000000E-01  8.50000000E-01  8.50000000E-01  8.50000000E-01  8.50000000E-01
  8.50000000E-01  8.50000000E-01  8.50000000E-01  8.50000000E-01  8.50000000E-01
  8.50000000E-01  8.50000000E-01  8.50000000E-01  8.50000000E-01  8.50000000E-01
  8.50000000E-01  8.50000000E-01  8.50000000E-01  8.50000000E-01  8.50000000E-01
  8.50000000E-01  8.50000000E-01  8.50000000E-01  8.50000000E-01  8.50000000E-01
  8.50000000E-01  8.50000000E-01  8.50000000E-01  8.50000000E-01  8.50000000E-01
  8.50000000E-01  8.50000000E-01  8.50000000E-01  8.50000000E-01  8.50000000E-01
  8.50000000E-01  8.50000000E-01  8.50000000E-01  8.50000000E-01  8.50000000E-01
  8.50000000E-01  8.50000000E-01  8.50000000E-01  8.50000000E-01  8.50000000E-01
  8.50000000E-01  8.50000000E-01  8.50000000E-01  8.50000000E-01  8.50000000E-01
  8.50000000E-01  8.50000000E-01  8.50000000E-01  8.50000000E-01  8.50000000E-01
  8.50000000E-01  8.50000000E-01  8.50000000E-01  8.50000000E-01  8.50000000E-01
  8.50000000E-01  8.50000000E-01  8.50000000E-01  8.50000000E-01  8.50000000E-01
  8.50000000E-01  8.50000000E-01  8.50000000E-01  8.50000000E-01  8.50000000E-01
  8.50000000E-01  8.50000000E-01  8.50000000E-01  8.50000000E-01  8.50000000E-01
  8.50000000E-01  8.50000000E-01  8.50000000E-01  8.50000000E-01  8.50000000E-01
  8.50000000E-01  8.50000000E-01  8.50000000E-01  8.50000000E-01  8.50000000E-01
  8.50000000E-01  8.50000000E-01  8.50000000E-01  8.50000000E-01  8.50000000E-01
  8.50000000E-01  8.50000000E-01  8.50000000E-01  8.50000000E-01  8.50000000E-01
  8.50000000E-01  8.50000000E-01  8.50000000E-01  8.50000000E-01  8.50000000E-01
  8.50000000E-01  8.50000000E-01  8.50000000E-01  8.50000000E-01  8.50000000E-01
  8.50000000E-01  8.50000000E-01  8.50000000E-01  8.50000000E-01  8.50000000E-01
  8.50000000E-01  8.50000000E-01  8.50000000E-01  8.50000000E-01  8.50000000E-01
  8.50000000E-01  8.50000000E-01  8.50000000E-01  8.50000000E-01  8.50000000E-01
  8.50000000E-01  8.50000000E-01  8.50000000E-01  8.50000000E-01  8.50000000E-01
  8.50000000E-01  8.50000000E-01  8.50000000E-01  8.50000000E-01  8.50000000E-01
  8.50000000E-01  8.50000000E-01  8.50000000E-01  8.50000000E-01  8.50000000E-01
  8.50000000E-01  8.50000000E-01  8.50000000E-01  8.50000000E-01  8.50000000E-01
  8.50000000E-01  8.50000000E-01  8.50000000E-01  8.50000000E-01  8.50000000E-01
  8.50000000E-01  8.50000000E-01  8.50000000E-01  8.50000000E-01  8.50000000E-01
  8.50000000E-01  8.50000000E-01  8.50000000E-01  8.50000000E-01  8.50000000E-01
  8.50000000E-01  8.50000000E-01  8.50000000E-01  8.50000000E-01  8.50000000E-01
  8.50000000E-01  8.50000000E-01  8.50000000E-01  8.50000000E-01  8.50000000E-01
  8.50000000E-01  8.50000000E-01  8.50000000E-01  8.50000000E-01  8.50000000E-01
  8.50000000E-01  8.50000000E-01  8.50000000E-01  8.50000000E-01  8.50000000E-01
  8.50000000E-01  8.50000000E-01  8.50000000E-01  8.50000000E-01  8.50000000E-01
  8.50000000E-01  8.50000000E-01  8.50000000E-01  8.50000000E-01  8.50000000E-01
  8.50000000E-01  8.50000000E-01  8.50000000E-01  8.50000000E-01  8.50000000E-01
  8.50000000E-01  8.50000000E-01  8.50000000E-01  8.50000000E-01  8.50000000E-01
  8.50000000E-01  8.50000000E-01  8.50000000E-01  8.50000000E-01  8.50000000E-01
  8.50000000E-01  8.50000000E-01  8.50000000E-01  8.50000000E-01  8.50000000E-01
  8.50000000E-01  8.50000000E-01  8.50000000E-01  8.50000000E-01  8.50000000E-01
  8.50000000E-01  8.50000000E-01  8.50000000E-01  8.50000000E-01  8.50000000E-01
  8.50000000E-01  8.50000000E-01  8.50000000E-01  8.50000000E-01  8.50000000E-01
  8.50000000E-01  8.50000000E-01  8.50000000E-01  8.50000000E-01  8.50000000E-01
  8.50000000E-01  8.50000000E-01  8.50000000E-01  8.50000000E-01  8.50000000E-01
  8.50000000E-01  8.50000000E-01  8.50000000E-01  8.50000000E-01  8.50000000E-01
  8.50000000E-01  8.50000000E-01  8.50000000E-01  8.50000000E-01  8.50000000E-01
  8.50000000E-01  8.50000000E-01  8.50000000E-01  8.50000000E-01  8.50000000E-01
  8.50000000E-01  8.50000000E-01  8.50000000E-01  8.50000000E-01  8.50000000E-01
  8.50000000E-01  8.50000000E-01  8.50000000E-01  8.50000000E-01  8.50000000E-01
  8.50000000E-01  8.50000000E-01  8.50000000E-01  8.50000000E-01  8.50000000E-01
  8.50000000E-01  8.50000000E-01  8.50000000E-01  8.50000000E-01  8.50000000E-01
  8.50000000E-01  8.50000000E-01  8.50000000E-01  8.50000000E-01  8.50000000E-01
  8.50000000E-01  8.50000000E-01  8.50000000E-01  8.50000000E-01  8.50000000E-01
  8.50000000E-01  8.50000000E-01  8.50000000E-01  8.50000000E-01  8.50000000E-01
  8.50000000E-01  8.50000000E-01  8.50000000E-01  8.50000000E-01  8.50000000E-01
  8.50000000E-01  8.50000000E-01  8.50000000E-01  8.50000000E-01  8.50000000E-01
  8.50000000E-01  8.50000000E-01  8.50000000E-01  8.50000000E-01  8.50000000E-01
  8.50000000E-01  8.50000000E-01  8.50000000E-01  8.50000000E-01  8.50000000E-01
  8.50000000E-01  8.50000000E-01  8.50000000E-01  8.50000000E-01  8.50000000E-01
  8.50000000E-01  8.50000000E-01  8.50000000E-01  8.50000000E-01  8.50000000E-01
  8.50000000E-01  8.50000000E-01  8.50000000E-01  8.50000000E-01  8.50000000E-01
  8.50000000E-01  8.50000000E-01  8.50000000E-01  8.50000000E-01  8.50000000E-01
  8.50000000E-01  8.50000000E-01  8.50000000E-01  8.50000000E-01  8.50000000E-01
  8.50000000E-01  8.50000000E-01  8.50000000E-01  8.50000000E-01  8.50000000E-01
  8.50000000E-01  8.50000000E-01  8.50000000E-01  8.50000000E-01  8.50000000E-01
  8.50000000E-01  8.50000000E-01  8.50000000E-01  8.50000000E-01  8.50000000E-01
  8.50000000E-01  8.50000000E-01  8.50000000E-01  8.50000000E-01  8.50000000E-01
  8.50000000E-01  8.50000000E-01  8.50000000E-01  8.50000000E-01  8.50000000E-01
  8.50000000E-01  8.50000000E-01  8.50000000E-01  8.50000000E-01  8.50000000E-01
  8.50000000E-01  8.50000000E-01  8.50000000E-01  8.50000000E-01  8.50000000E-01
  8.50000000E-01  8.50000000E-01  8.50000000E-01  8.50000000E-01  8.50000000E-01
  8.50000000E-01  8.50000000E-01  8.50000000E-01  8.50000000E-01  8.50000000E-01
  8.50000000E-01  8.50000000E-01  8.50000000E-01  8.50000000E-01  8.50000000E-01
  8.50000000E-01  8.50000000E-01  8.50000000E-01  8.50000000E-01  8.50000000E-01
  8.50000000E-01  8.50000000E-01  8.50000000E-01  8.50000000E-01  8.50000000E-01
  8.50000000E-01  8.50000000E-01  8.50000000E-01  8.50000000E-01  8.50000000E-01
  8.50000000E-01  8.50000000E-01  8.50000000E-01  8.50000000E-01  8.50000000E-01
  8.50000000E-01  8.50000000E-01  8.50000000E-01  8.50000000E-01  8.50000000E-01
  8.50000000E-01  8.50000000E-01  8.50000000E-01  8.50000000E-01  8.50000000E-01
  8.50000000E-01  8.50000000E-01  8.50000000E-01  8.50000000E-01  8.50000000E-01
  8.50000000E-01  8.50000000E-01  8.50000000E-01  8.50000000E-01  8.50000000E-01
  8.50000000E-01  8.50000000E-01  8.50000000E-01  8.50000000E-01  8.50000000E-01
  8.50000000E-01  8.50000000E-01  8.50000000E-01  8.50000000E-01  8.50000000E-01
  8.50000000E-01  8.50000000E-01  8.50000000E-01  8.50000000E-01  8.50000000E-01
  8.50000000E-01  8.50000000E-01  8.50000000E-01  8.50000000E-01  8.50000000E-01
  8.50000000E-01  8.50000000E-01  8.50000000E-01  8.50000000E-01  8.50000000E-01
  8.50000000E-01  8.50000000E-01  8.50000000E-01  8.50000000E-01  8.50000000E-01
  8.50000000E-01  8.50000000E-01  8.50000000E-01  8.50000000E-01  8.50000000E-01
  8.50000000E-01  8.50000000E-01  8.50000000E-01  8.50000000E-01  8.50000000E-01
  8.50000000E-01  8.50000000E-01  8.50000000E-01  8.50000000E-01  8.50000000E-01
  8.50000000E-01  8.50000000E-01  8.50000000E-01  8.50000000E-01  8.50000000E-01
  8.50000000E-01  8.50000000E-01  8.50000000E-01  8.50000000E-01  8.50000000E-01
  8.50000000E-01  8.50000000E-01  8.50000000E-01  8.50000000E-01  8.50000000E-01
  8.50000000E-01  8.50000000E-01  8.50000000E-01  8.50000000E-01  8.50000000E-01
  8.50000000E-01  8.50000000E-01  8.50000000E-01  8.50000000E-01  8.50000000E-01
  8.50000000E-01  8.50000000E-01  8.50000000E-01  8.50000000E-01  8.50000000E-01
  8.50000000E-01  8.50000000E-01  8.50000000E-01  8.50000000E-01  8.50000000E-01
  8.50000000E-01  8.50000000E-01  8.50000000E-01  8.50000000E-01  8.50000000E-01
  8.50000000E-01  8.50000000E-01  8.50000000E-01  8.50000000E-01  8.50000000E-01
  8.50000000E-01  8.50000000E-01  8.50000000E-01  8.50000000E-01  8.50000000E-01
  8.50000000E-01  8.50000000E-01  8.50000000E-01  8.50000000E-01  8.50000000E-01
  8.50000000E-01  8.50000000E-01  8.50000000E-01  8.50000000E-01  8.50000000E-01
  8.50000000E-01  8.50000000E-01  8.50000000E-01  8.50000000E-01  8.50000000E-01
  8.50000000E-01  8.50000000E-01  8.50000000E-01  8.50000000E-01  8.50000000E-01
  8.50000000E-01  8.50000000E-01  8.50000000E-01  8.50000000E-01  8.50000000E-01
  8.50000000E-01  8.50000000E-01  8.50000000E-01  8.50000000E-01  8.50000000E-01
  8.50000000E-01  8.50000000E-01  8.50000000E-01  8.50000000E-01  8.50000000E-01
  8.50000000E-01  8.50000000E-01  8.50000000E-01  8.50000000E-01  8.50000000E-01
  8.50000000E-01  8.50000000E-01  8.50000000E-01  8.50000000E-01  8.50000000E-01
  8.50000000E-01  8.50000000E-01  8.50000000E-01  8.50000000E-01  8.50000000E-01
  8.50000000E-01  8.50000000E-01  8.50000000E-01  8.50000000E-01  8.50000000E-01
  8.50000000E-01  8.50000000E-01  8.50000000E-01  8.50000000E-01  8.50000000E-01
  8.50000000E-01  8.50000000E-01  8.50000000E-01  8.50000000E-01  8.50000000E-01
  8.50000000E-01  8.50000000E-01  8.50000000E-01  8.50000000E-01  8.50000000E-01
  8.50000000E-01  8.50000000E-01  8.50000000E-01  8.50000000E-01  8.50000000E-01
  8.50000000E-01  8.50000000E-01  8.50000000E-01  8.50000000E-01  8.50000000E-01
  8.50000000E-01  8.50000000E-01  8.50000000E-01  8.50000000E-01  8.50000000E-01
  8.50000000E-01  8.50000000E-01  8.50000000E-01  8.50000000E-01  8.50000000E-01
  8.50000000E-01  8.50000000E-01  8.50000000E-01  8.50000000E-01  8.50000000E-01
  8.50000000E-01  8.50000000E-01  8.50000000E-01  8.50000000E-01  8.50000000E-01
  8.50000000E-01  8.50000000E-01  8.50000000E-01  8.50000000E-01  8.50000000E-01
  8.50000000E-01  8.50000000E-01  8.50000000E-01  8.50000000E-01  8.50000000E-01
  8.50000000E-01  8.50000000E-01  8.50000000E-01  8.50000000E-01  8.50000000E-01
  8.50000000E-01  8.50000000E-01  8.50000000E-01  8.50000000E-01  8.50000000E-01
  8.50000000E-01  8.50000000E-01  8.50000000E-01  8.50000000E-01  8.50000000E-01
  8.50000000E-01  8.50000000E-01  8.50000000E-01  8.50000000E-01  8.50000000E-01
  8.50000000E-01  8.50000000E-01  8.50000000E-01  8.50000000E-01  8.50000000E-01
  8.50000000E-01  8.50000000E-01  8.50000000E-01  8.50000000E-01  8.50000000E-01
  8.50000000E-01  8.50000000E-01  8.50000000E-01  8.50000000E-01  8.50000000E-01
  8.50000000E-01  8.50000000E-01  8.50000000E-01  8.50000000E-01  8.50000000E-01
  8.50000000E-01  8.50000000E-01  8.50000000E-01  8.50000000E-01  8.50000000E-01
  8.50000000E-01  8.50000000E-01  8.50000000E-01  8.50000000E-01  8.50000000E-01
  8.50000000E-01  8.50000000E-01  8.50000000E-01  8.50000000E-01  8.50000000E-01
  8.50000000E-01  8.50000000E-01  8.50000000E-01  8.50000000E-01  8.50000000E-01
  8.50000000E-01  8.50000000E-01  8.50000000E-01  8.50000000E-01  8.50000000E-01
  8.50000000E-01  8.50000000E-01  8.50000000E-01  8.50000000E-01  8.50000000E-01
  8.50000000E-01  8.50000000E-01  8.50000000E-01  8.50000000E-01  8.50000000E-01
  8.50000000E-01  8.50000000E-01  8.50000000E-01  8.50000000E-01  8.50000000E-01
  8.50000000E-01  8.50000000E-01  8.50000000E-01  8.50000000E-01  8.50000000E-01
  8.50000000E-01  8.50000000E-01  8.50000000E-01  8.50000000E-01  8.50000000E-01
  8.50000000E-01  8.50000000E-01  8.50000000E-01  8.50000000E-01  8.50000000E-01
  8.50000000E-01  8.50000000E-01  8.50000000E-01  8.50000000E-01  8.50000000E-01
  8.50000000E-01  8.50000000E-01  8.50000000E-01  8.50000000E-01  8.50000000E-01
  8.50000000E-01  8.50000000E-01  8.50000000E-01  8.50000000E-01  8.50000000E-01
  8.50000000E-01  8.50000000E-01  8.50000000E-01  8.50000000E-01  8.50000000E-01
  8.50000000E-01  8.50000000E-01  8.50000000E-01  8.50000000E-01  8.50000000E-01
  8.50000000E-01  8.50000000E-01  8.50000000E-01  8.50000000E-01  8.50000000E-01
  8.50000000E-01  8.50000000E-01  8.50000000E-01  8.50000000E-01  8.50000000E-01
  8.50000000E-01  8.50000000E-01  8.50000000E-01  8.50000000E-01  8.50000000E-01
  8.50000000E-01  8.50000000E-01  8.50000000E-01  8.50000000E-01  8.50000000E-01
  8.50000000E-01  8.50000000E-01  8.50000000E-01  8.50000000E-01  8.50000000E-01
  8.50000000E-01  8.50000000E-01  8.50000000E-01  8.50000000E-01  8.50000000E-01
  8.50000000E-01  8.50000000E-01  8.50000000E-01  8.50000000E-01  8.50000000E-01
  8.50000000E-01  8.50000000E-01  8.50000000E-01  8.50000000E-01  8.50000000E-01
  8.50000000E-01  8.50000000E-01  8.50000000E-01  8.50000000E-01  8.50000000E-01
  8.50000000E-01  8.50000000E-01  8.50000000E-01  8.50000000E-01  8.50000000E-01
  8.50000000E-01  8.50000000E-01  8.50000000E-01  8.50000000E-01  8.50000000E-01
  8.50000000E-01  8.50000000E-01  8.50000000E-01  8.50000000E-01  8.50000000E-01
  8.50000000E-01  8.50000000E-01  8.50000000E-01  8.50000000E-01  8.50000000E-01
  8.50000000E-01  8.50000000E-01  8.50000000E-01  8.50000000E-01  8.50000000E-01
  8.50000000E-01  8.50000000E-01  8.50000000E-01  8.50000000E-01  8.50000000E-01
  8.50000000E-01  8.50000000E-01  8.50000000E-01  8.50000000E-01  8.50000000E-01
  8.50000000E-01  8.50000000E-01  8.50000000E-01  8.50000000E-01  8.50000000E-01
  8.50000000E-01  8.50000000E-01  8.50000000E-01  8.50000000E-01  8.50000000E-01
  8.50000000E-01  8.50000000E-01  8.50000000E-01  8.50000000E-01  8.50000000E-01
  8.50000000E-01  8.50000000E-01  8.50000000E-01  8.50000000E-01  8.50000000E-01
  8.50000000E-01  8.50000000E-01  8.50000000E-01  8.50000000E-01  8.50000000E-01
  8.50000000E-01  8.50000000E-01  8.50000000E-01  8.50000000E-01  8.50000000E-01
  8.50000000E-01  8.50000000E-01  8.50000000E-01  8.50000000E-01  8.50000000E-01
  8.50000000E-01  8.50000000E-01  8.50000000E-01  8.50000000E-01  8.50000000E-01
  8.50000000E-01  8.50000000E-01  8.50000000E-01  8.50000000E-01  8.50000000E-01
  8.50000000E-01  8.50000000E-01  8.50000000E-01  8.50000000E-01  8.50000000E-01
  8.50000000E-01  8.50000000E-01  8.50000000E-01  8.50000000E-01  8.50000000E-01
  8.50000000E-01  8.50000000E-01  8.50000000E-01  8.50000000E-01  8.50000000E-01
  8.50000000E-01  8.50000000E-01  8.50000000E-01  8.50000000E-01  8.50000000E-01
  8.50000000E-01  8.50000000E-01  8.50000000E-01  8.50000000E-01  8.50000000E-01
  8.50000000E-01  8.50000000E-01  8.50000000E-01  8.50000000E-01  8.50000000E-01
  8.50000000E-01  8.50000000E-01  8.50000000E-01  8.50000000E-01  8.50000000E-01
  8.50000000E-01  8.50000000E-01  8.50000000E-01  8.50000000E-01  8.50000000E-01
  8.50000000E-01  8.50000000E-01  8.50000000E-01  8.50000000E-01  8.50000000E-01
  8.50000000E-01  8.50000000E-01  8.50000000E-01  8.50000000E-01  8.50000000E-01
  8.50000000E-01  8.50000000E-01  8.50000000E-01  8.50000000E-01  8.50000000E-01
  8.50000000E-01  8.50000000E-01  8.50000000E-01  8.50000000E-01  8.50000000E-01
  8.50000000E-01  8.50000000E-01  8.50000000E-01  8.50000000E-01  8.50000000E-01
  8.50000000E-01  8.50000000E-01  8.50000000E-01  8.50000000E-01  8.50000000E-01
  8.50000000E-01  8.50000000E-01  8.50000000E-01  8.50000000E-01  8.50000000E-01
  8.50000000E-01  8.50000000E-01  8.50000000E-01  8.50000000E-01  8.50000000E-01
  8.50000000E-01  8.50000000E-01  8.50000000E-01  8.50000000E-01  8.50000000E-01
  8.50000000E-01  8.50000000E-01  8.50000000E-01  8.50000000E-01  8.50000000E-01
  8.50000000E-01  8.50000000E-01  8.50000000E-01  8.50000000E-01  8.50000000E-01
  8.50000000E-01  8.50000000E-01  8.50000000E-01  8.50000000E-01  8.50000000E-01
  8.50000000E-01  8.50000000E-01  8.50000000E-01  8.50000000E-01  8.50000000E-01
  8.50000000E-01  8.50000000E-01  8.50000000E-01  8.50000000E-01  8.50000000E-01
  8.50000000E-01  8.50000000E-01  8.50000000E-01  8.50000000E-01  8.50000000E-01
  8.50000000E-01  8.50000000E-01  8.50000000E-01  8.50000000E-01  8.50000000E-01
  8.50000000E-01  8.50000000E-01  8.50000000E-01  8.50000000E-01  8.50000000E-01
  8.50000000E-01  8.50000000E-01  8.50000000E-01  8.50000000E-01  8.50000000E-01
  8.50000000E-01  8.50000000E-01  8.50000000E-01  8.50000000E-01  8.50000000E-01
  8.50000000E-01  8.50000000E-01  8.50000000E-01  8.50000000E-01  8.50000000E-01
  8.50000000E-01  8.50000000E-01  8.50000000E-01  8.50000000E-01  8.50000000E-01
  8.50000000E-01  8.50000000E-01  8.50000000E-01  8.50000000E-01  8.50000000E-01
  8.50000000E-01  8.50000000E-01  8.50000000E-01  8.50000000E-01  8.50000000E-01
  8.50000000E-01  8.50000000E-01  8.50000000E-01  8.50000000E-01  8.50000000E-01
  8.50000000E-01  8.50000000E-01  8.50000000E-01  8.50000000E-01  8.50000000E-01
  8.50000000E-01  8.50000000E-01  8.50000000E-01  8.50000000E-01  8.50000000E-01
  8.50000000E-01  8.50000000E-01  8.50000000E-01  8.50000000E-01  8.50000000E-01
  8.50000000E-01  8.50000000E-01  8.50000000E-01  8.50000000E-01  8.50000000E-01
  8.50000000E-01  8.50000000E-01  8.50000000E-01  8.50000000E-01  8.50000000E-01
  8.50000000E-01  8.50000000E-01  8.50000000E-01  8.50000000E-01  8.50000000E-01
  8.50000000E-01  8.50000000E-01  8.50000000E-01  8.50000000E-01  8.50000000E-01
  8.50000000E-01  8.50000000E-01  8.50000000E-01  8.50000000E-01  8.50000000E-01
  8.50000000E-01  8.50000000E-01  8.50000000E-01  8.50000000E-01  8.50000000E-01
  8.50000000E-01  8.50000000E-01  8.50000000E-01  8.50000000E-01  8.50000000E-01
  8.50000000E-01  8.50000000E-01  8.50000000E-01  8.50000000E-01  8.50000000E-01
  8.50000000E-01  8.50000000E-01  8.50000000E-01  8.50000000E-01  8.50000000E-01
  8.50000000E-01  8.50000000E-01  8.50000000E-01  8.50000000E-01  8.50000000E-01
  8.50000000E-01  8.50000000E-01  8.50000000E-01  8.50000000E-01  8.50000000E-01
  8.50000000E-01  8.50000000E-01  8.50000000E-01  8.50000000E-01  8.50000000E-01
  8.50000000E-01  8.50000000E-01  8.50000000E-01  8.50000000E-01  8.50000000E-01
  8.50000000E-01  8.50000000E-01  8.50000000E-01  8.50000000E-01  8.50000000E-01
  8.50000000E-01  8.50000000E-01  8.50000000E-01  8.50000000E-01  8.50000000E-01
  8.50000000E-01  8.50000000E-01  8.50000000E-01  8.50000000E-01  8.50000000E-01
  8.50000000E-01  8.50000000E-01  8.50000000E-01  8.50000000E-01  8.50000000E-01
  8.50000000E-01  8.50000000E-01  8.50000000E-01  8.50000000E-01  8.50000000E-01
  8.50000000E-01  8.50000000E-01  8.50000000E-01  8.50000000E-01  8.50000000E-01
  8.50000000E-01  8.50000000E-01  8.50000000E-01  8.50000000E-01  8.50000000E-01
  8.50000000E-01  8.50000000E-01  8.50000000E-01  8.50000000E-01  8.50000000E-01
  8.50000000E-01  8.50000000E-01  8.50000000E-01  8.50000000E-01  8.50000000E-01
  8.50000000E-01  8.50000000E-01  8.50000000E-01  8.50000000E-01  8.50000000E-01
  8.50000000E-01  8.50000000E-01  8.50000000E-01  8.50000000E-01  8.50000000E-01
  8.50000000E-01  8.50000000E-01  8.50000000E-01  8.50000000E-01  8.50000000E-01
  8.50000000E-01  8.50000000E-01  8.50000000E-01  8.50000000E-01  8.50000000E-01
  8.50000000E-01  8.50000000E-01  8.50000000E-01  8.50000000E-01  8.50000000E-01
  8.50000000E-01  8.50000000E-01  8.50000000E-01  8.50000000E-01  8.50000000E-01
  8.50000000E-01  8.50000000E-01  8.50000000E-01  8.50000000E-01  8.50000000E-01
  8.50000000E-01  8.50000000E-01  8.50000000E-01  8.50000000E-01  8.50000000E-01
  8.50000000E-01  8.50000000E-01  8.50000000E-01  8.50000000E-01  8.50000000E-01
  8.50000000E-01  8.50000000E-01  8.50000000E-01  8.50000000E-01  8.50000000E-01
  8.50000000E-01  8.50000000E-01  8.50000000E-01  8.50000000E-01  8.50000000E-01
  8.50000000E-01  8.50000000E-01  8.50000000E-01  8.50000000E-01  8.50000000E-01
  8.50000000E-01  8.50000000E-01  8.50000000E-01  8.50000000E-01  8.50000000E-01
  8.50000000E-01  8.50000000E-01  8.50000000E-01  8.50000000E-01  8.50000000E-01
  8.50000000E-01  8.50000000E-01  8.50000000E-01  8.50000000E-01  8.50000000E-01
  8.50000000E-01  8.50000000E-01  8.50000000E-01  8.50000000E-01  8.50000000E-01
  8.50000000E-01  8.50000000E-01  8.50000000E-01  8.50000000E-01  8.50000000E-01
  8.50000000E-01  8.50000000E-01  8.50000000E-01  8.50000000E-01  8.50000000E-01
  8.50000000E-01  8.50000000E-01  8.50000000E-01  8.50000000E-01  8.50000000E-01
  8.50000000E-01  8.50000000E-01  8.50000000E-01  8.50000000E-01  8.50000000E-01
  8.50000000E-01  8.50000000E-01  8.50000000E-01  8.50000000E-01  8.50000000E-01
  8.50000000E-01  8.50000000E-01  8.50000000E-01  8.50000000E-01  8.50000000E-01
  8.50000000E-01  8.50000000E-01  8.50000000E-01  8.50000000E-01  8.50000000E-01
  8.50000000E-01  8.50000000E-01  8.50000000E-01  8.50000000E-01  8.50000000E-01
  8.50000000E-01  8.50000000E-01  8.50000000E-01  8.50000000E-01  8.50000000E-01
  8.50000000E-01  8.50000000E-01  8.50000000E-01  8.50000000E-01  8.50000000E-01
  8.50000000E-01  8.50000000E-01  8.50000000E-01  8.50000000E-01  8.50000000E-01
  8.50000000E-01  8.50000000E-01  8.50000000E-01  8.50000000E-01  8.50000000E-01
  8.50000000E-01  8.50000000E-01  8.50000000E-01  8.50000000E-01  8.50000000E-01
  8.50000000E-01  8.50000000E-01  8.50000000E-01  8.50000000E-01  8.50000000E-01
  8.50000000E-01  8.50000000E-01  8.50000000E-01  8.50000000E-01  8.50000000E-01
  8.50000000E-01  8.50000000E-01  8.50000000E-01  8.50000000E-01  8.50000000E-01
  8.50000000E-01  8.50000000E-01  8.50000000E-01  8.50000000E-01  8.50000000E-01
  8.50000000E-01  8.50000000E-01  8.50000000E-01  8.50000000E-01  8.50000000E-01
  8.50000000E-01  8.50000000E-01  8.50000000E-01  8.50000000E-01  8.50000000E-01
  8.50000000E-01  8.50000000E-01  8.50000000E-01  8.50000000E-01  8.50000000E-01
  8.50000000E-01  8.50000000E-01  8.50000000E-01  8.50000000E-01  8.50000000E-01
  8.50000000E-01  8.50000000E-01  8.50000000E-01  8.50000000E-01  8.50000000E-01
  8.50000000E-01  8.50000000E-01  8.50000000E-01  8.50000000E-01  8.50000000E-01
  8.50000000E-01  8.50000000E-01  8.50000000E-01  8.50000000E-01  8.50000000E-01
  8.50000000E-01  8.50000000E-01  8.50000000E-01  8.50000000E-01  8.50000000E-01
  8.50000000E-01  8.50000000E-01  8.50000000E-01  8.50000000E-01  8.50000000E-01
  8.50000000E-01  8.50000000E-01  8.50000000E-01  8.50000000E-01  8.50000000E-01
  8.50000000E-01  8.50000000E-01  8.50000000E-01  8.50000000E-01  8.50000000E-01
  8.50000000E-01  8.50000000E-01  8.50000000E-01  8.50000000E-01  8.50000000E-01
  8.50000000E-01  8.50000000E-01  8.50000000E-01  8.50000000E-01  8.50000000E-01
  8.50000000E-01  8.50000000E-01  8.50000000E-01  8.50000000E-01  8.50000000E-01
  8.50000000E-01  8.50000000E-01  8.50000000E-01  8.50000000E-01  8.50000000E-01
  8.50000000E-01  8.50000000E-01  8.50000000E-01  8.50000000E-01  8.50000000E-01
  8.50000000E-01  8.50000000E-01  8.50000000E-01  8.50000000E-01  8.50000000E-01
  8.50000000E-01  8.50000000E-01  8.50000000E-01  8.50000000E-01  8.50000000E-01
  8.50000000E-01  8.50000000E-01  8.50000000E-01  8.50000000E-01  8.50000000E-01
  8.50000000E-01  8.50000000E-01  8.50000000E-01  8.50000000E-01  8.50000000E-01
  8.50000000E-01  8.50000000E-01  8.50000000E-01  8.50000000E-01  8.50000000E-01
  8.50000000E-01  8.50000000E-01  8.50000000E-01  8.50000000E-01  8.50000000E-01
  8.50000000E-01  8.50000000E-01  8.50000000E-01  8.50000000E-01  8.50000000E-01
  8.50000000E-01  8.50000000E-01  8.50000000E-01  8.50000000E-01  8.50000000E-01
  8.50000000E-01  8.50000000E-01  8.50000000E-01  8.50000000E-01  8.50000000E-01
  8.50000000E-01  8.50000000E-01  8.50000000E-01  8.50000000E-01  8.50000000E-01
  8.50000000E-01  8.50000000E-01  8.50000000E-01  8.50000000E-01  8.50000000E-01
  8.50000000E-01  8.50000000E-01  8.50000000E-01  8.50000000E-01  8.50000000E-01
  8.50000000E-01  8.50000000E-01  8.50000000E-01  8.50000000E-01  8.50000000E-01
  8.50000000E-01  8.50000000E-01  8.50000000E-01  8.50000000E-01  8.50000000E-01
  8.50000000E-01  8.50000000E-01  8.50000000E-01  8.50000000E-01  8.50000000E-01
  8.50000000E-01  8.50000000E-01  8.50000000E-01  8.50000000E-01  8.50000000E-01
  8.50000000E-01  8.50000000E-01  8.50000000E-01  8.50000000E-01  8.50000000E-01
  8.50000000E-01  8.50000000E-01  8.50000000E-01  8.50000000E-01  8.50000000E-01
  8.50000000E-01  8.50000000E-01  8.50000000E-01  8.50000000E-01  8.50000000E-01
  8.50000000E-01  8.50000000E-01  8.50000000E-01  8.50000000E-01  8.50000000E-01
  8.50000000E-01  8.50000000E-01  8.50000000E-01  8.50000000E-01  8.50000000E-01
  8.50000000E-01  8.50000000E-01  8.50000000E-01  8.50000000E-01  8.50000000E-01
  8.50000000E-01  8.50000000E-01  8.50000000E-01  8.50000000E-01  8.50000000E-01
  8.50000000E-01  8.50000000E-01  8.50000000E-01  8.50000000E-01  8.50000000E-01
  8.50000000E-01  8.50000000E-01  8.50000000E-01  8.50000000E-01  8.50000000E-01
  8.50000000E-01  8.50000000E-01  8.50000000E-01  8.50000000E-01  8.50000000E-01
  8.50000000E-01  8.50000000E-01  8.50000000E-01  8.50000000E-01  8.50000000E-01
  8.50000000E-01  8.50000000E-01  8.50000000E-01  8.50000000E-01  8.50000000E-01
  8.50000000E-01  8.50000000E-01  8.50000000E-01  8.50000000E-01  8.50000000E-01
  8.50000000E-01  8.50000000E-01  8.50000000E-01  8.50000000E-01  8.50000000E-01
  8.50000000E-01  8.50000000E-01  8.50000000E-01  8.50000000E-01  8.50000000E-01
  8.50000000E-01  8.50000000E-01  8.50000000E-01  8.50000000E-01  8.50000000E-01
  8.50000000E-01  8.50000000E-01  8.50000000E-01  8.50000000E-01  8.50000000E-01
  8.50000000E-01  8.50000000E-01  8.50000000E-01  8.50000000E-01  8.50000000E-01
  8.50000000E-01  8.50000000E-01  8.50000000E-01  8.50000000E-01  8.50000000E-01
  8.50000000E-01  8.50000000E-01  8.50000000E-01  8.50000000E-01  8.50000000E-01
  8.50000000E-01  8.50000000E-01  8.50000000E-01  8.50000000E-01  8.50000000E-01
  8.50000000E-01  8.50000000E-01  8.50000000E-01  8.50000000E-01  8.50000000E-01
  8.50000000E-01  8.50000000E-01  8.50000000E-01  8.50000000E-01  8.50000000E-01
  8.50000000E-01  8.50000000E-01  8.50000000E-01  8.50000000E-01  8.50000000E-01
  8.50000000E-01  8.50000000E-01  8.50000000E-01  8.50000000E-01  8.50000000E-01
  8.50000000E-01  8.50000000E-01  8.50000000E-01  8.50000000E-01  8.50000000E-01
  8.50000000E-01  8.50000000E-01  8.50000000E-01  8.50000000E-01  8.50000000E-01
  8.50000000E-01  8.50000000E-01  8.50000000E-01  8.50000000E-01  8.50000000E-01
  8.50000000E-01  8.50000000E-01  8.50000000E-01  8.50000000E-01  8.50000000E-01
  8.50000000E-01  8.50000000E-01  8.50000000E-01  8.50000000E-01  8.50000000E-01
  8.50000000E-01  8.50000000E-01  8.50000000E-01  8.50000000E-01  8.50000000E-01
  8.50000000E-01  8.50000000E-01  8.50000000E-01  8.50000000E-01  8.50000000E-01
  8.50000000E-01  8.50000000E-01  8.50000000E-01  8.50000000E-01  8.50000000E-01
  8.50000000E-01  8.50000000E-01  8.50000000E-01  8.50000000E-01  8.50000000E-01
  8.50000000E-01  8.50000000E-01  8.50000000E-01  8.50000000E-01  8.50000000E-01
  8.50000000E-01  8.50000000E-01  8.50000000E-01  8.50000000E-01  8.50000000E-01
  8.50000000E-01  8.50000000E-01  8.50000000E-01  8.50000000E-01  8.50000000E-01
  8.50000000E-01  8.50000000E-01  8.50000000E-01  8.50000000E-01  8.50000000E-01
  8.50000000E-01  8.50000000E-01  8.50000000E-01  8.50000000E-01  8.50000000E-01
  8.50000000E-01  8.50000000E-01  8.50000000E-01  8.50000000E-01  8.50000000E-01
  8.50000000E-01  8.50000000E-01  8.50000000E-01  8.50000000E-01  8.50000000E-01
  8.50000000E-01  8.50000000E-01  8.50000000E-01  8.50000000E-01  8.50000000E-01
  8.50000000E-01  8.50000000E-01  8.50000000E-01  8.50000000E-01  8.50000000E-01
  8.50000000E-01  8.50000000E-01  8.50000000E-01  8.50000000E-01  8.50000000E-01
  8.50000000E-01  8.50000000E-01  8.50000000E-01  8.50000000E-01  8.50000000E-01
  8.50000000E-01  8.50000000E-01  8.50000000E-01  8.50000000E-01  8.50000000E-01
  8.50000000E-01  8.50000000E-01  8.50000000E-01  8.50000000E-01  8.50000000E-01
  8.50000000E-01  8.50000000E-01  8.50000000E-01  8.50000000E-01  8.50000000E-01
  8.50000000E-01  8.50000000E-01  8.50000000E-01  8.50000000E-01  8.50000000E-01
  8.50000000E-01  8.50000000E-01  8.50000000E-01  8.50000000E-01  8.50000000E-01
  8.50000000E-01  8.50000000E-01  8.50000000E-01  8.50000000E-01  8.50000000E-01
  8.50000000E-01  8.50000000E-01  8.50000000E-01  8.50000000E-01  8.50000000E-01
  8.50000000E-01  8.50000000E-01  8.50000000E-01  8.50000000E-01  8.50000000E-01
  8.50000000E-01  8.50000000E-01  8.50000000E-01  8.50000000E-01  8.50000000E-01
  8.50000000E-01  8.50000000E-01  8.50000000E-01  8.50000000E-01  8.50000000E-01
  8.50000000E-01  8.50000000E-01  8.50000000E-01  8.50000000E-01  8.50000000E-01
  8.50000000E-01  8.50000000E-01  8.50000000E-01  8.50000000E-01  8.50000000E-01
  8.50000000E-01  8.50000000E-01  8.50000000E-01  8.50000000E-01  8.50000000E-01
  8.50000000E-01  8.50000000E-01  8.50000000E-01  8.50000000E-01  8.50000000E-01
  8.50000000E-01  8.50000000E-01  8.50000000E-01  8.50000000E-01  8.50000000E-01
  8.50000000E-01  8.50000000E-01  8.50000000E-01  8.50000000E-01  8.50000000E-01
  8.50000000E-01  8.50000000E-01  8.50000000E-01  8.50000000E-01  8.50000000E-01
  8.50000000E-01  8.50000000E-01  8.50000000E-01  8.50000000E-01  8.50000000E-01
  8.50000000E-01  8.50000000E-01  8.50000000E-01  8.50000000E-01  8.50000000E-01
  8.50000000E-01  8.50000000E-01  8.50000000E-01  8.50000000E-01  8.50000000E-01
  8.50000000E-01  8.50000000E-01  8.50000000E-01  8.50000000E-01  8.50000000E-01
  8.50000000E-01  8.50000000E-01  8.50000000E-01  8.50000000E-01  8.50000000E-01
  8.50000000E-01  8.50000000E-01  8.50000000E-01  8.50000000E-01  8.50000000E-01
  8.50000000E-01  8.50000000E-01  8.50000000E-01  8.50000000E-01  8.50000000E-01
  8.50000000E-01  8.50000000E-01  8.50000000E-01  8.50000000E-01  8.50000000E-01
  8.50000000E-01  8.50000000E-01  8.50000000E-01  8.50000000E-01  8.50000000E-01
  8.50000000E-01  8.50000000E-01  8.50000000E-01  8.50000000E-01  8.50000000E-01
  8.50000000E-01  8.50000000E-01  8.50000000E-01  8.50000000E-01  8.50000000E-01
  8.50000000E-01  8.50000000E-01  8.50000000E-01  8.50000000E-01  8.50000000E-01
  8.50000000E-01  8.50000000E-01  8.50000000E-01  8.50000000E-01  8.50000000E-01
  8.50000000E-01  8.50000000E-01  8.50000000E-01  8.50000000E-01  8.50000000E-01
  8.50000000E-01  8.50000000E-01  8.50000000E-01  8.50000000E-01  8.50000000E-01
  8.50000000E-01  8.50000000E-01  8.50000000E-01  8.50000000E-01  8.50000000E-01
  8.50000000E-01  8.50000000E-01  8.50000000E-01  8.50000000E-01  8.50000000E-01
  8.50000000E-01  8.50000000E-01  8.50000000E-01  8.50000000E-01  8.50000000E-01
  8.50000000E-01  8.50000000E-01  8.50000000E-01  8.50000000E-01  8.50000000E-01
  8.50000000E-01  8.50000000E-01  8.50000000E-01  8.50000000E-01  8.50000000E-01
  8.50000000E-01  8.50000000E-01  8.50000000E-01  8.50000000E-01  8.50000000E-01
  8.50000000E-01  8.50000000E-01  8.50000000E-01  8.50000000E-01  8.50000000E-01
  8.50000000E-01  8.50000000E-01  8.50000000E-01  8.50000000E-01  8.50000000E-01
  8.50000000E-01  8.50000000E-01  8.50000000E-01  8.50000000E-01  8.50000000E-01
  8.50000000E-01  8.50000000E-01  8.50000000E-01  8.50000000E-01  8.50000000E-01
  8.50000000E-01  8.50000000E-01  8.50000000E-01  8.50000000E-01  8.50000000E-01
  8.50000000E-01  8.50000000E-01  8.50000000E-01  8.50000000E-01  8.50000000E-01
  8.50000000E-01  8.50000000E-01  8.50000000E-01  8.50000000E-01  8.50000000E-01
  8.50000000E-01  8.50000000E-01  8.50000000E-01  8.50000000E-01  8.50000000E-01
  8.50000000E-01  8.50000000E-01  8.50000000E-01  8.50000000E-01  8.50000000E-01
  8.50000000E-01  8.50000000E-01  8.50000000E-01  8.50000000E-01  8.50000000E-01
  8.50000000E-01  8.50000000E-01  8.50000000E-01  8.50000000E-01  8.50000000E-01
  8.50000000E-01  8.50000000E-01  8.50000000E-01  8.50000000E-01  8.50000000E-01
  8.50000000E-01  8.50000000E-01  8.50000000E-01  8.50000000E-01  8.50000000E-01
  8.50000000E-01  8.50000000E-01  8.50000000E-01  8.50000000E-01  8.50000000E-01
  8.50000000E-01  8.50000000E-01  8.50000000E-01  8.50000000E-01  8.50000000E-01
  8.50000000E-01  8.50000000E-01  8.50000000E-01  8.50000000E-01  8.50000000E-01
  8.50000000E-01  8.50000000E-01  8.50000000E-01  8.50000000E-01  8.50000000E-01
  8.50000000E-01  8.50000000E-01  8.50000000E-01  8.50000000E-01  8.50000000E-01
  8.50000000E-01  8.50000000E-01  8.50000000E-01  8.50000000E-01  8.50000000E-01
  8.50000000E-01  8.50000000E-01  8.50000000E-01  8.50000000E-01  8.50000000E-01
  8.50000000E-01  8.50000000E-01  8.50000000E-01  8.50000000E-01  8.50000000E-01
  8.50000000E-01  8.50000000E-01  8.50000000E-01  8.50000000E-01  8.50000000E-01
  8.50000000E-01  8.50000000E-01  8.50000000E-01  8.50000000E-01  8.50000000E-01
  8.50000000E-01  8.50000000E-01  8.50000000E-01  8.50000000E-01  8.50000000E-01
  8.50000000E-01  8.50000000E-01  8.50000000E-01  8.50000000E-01  8.50000000E-01
  8.50000000E-01  8.50000000E-01  8.50000000E-01  8.50000000E-01  8.50000000E-01
  8.50000000E-01  8.50000000E-01  8.50000000E-01  8.50000000E-01  8.50000000E-01
  8.50000000E-01  8.50000000E-01  8.50000000E-01  8.50000000E-01  8.50000000E-01
  8.50000000E-01  8.50000000E-01  8.50000000E-01  8.50000000E-01  8.50000000E-01
  8.50000000E-01  8.50000000E-01  8.50000000E-01  8.50000000E-01  8.50000000E-01
  8.50000000E-01  8.50000000E-01  8.50000000E-01  8.50000000E-01  8.50000000E-01
  8.50000000E-01  8.50000000E-01  8.50000000E-01  8.50000000E-01  8.50000000E-01
  8.50000000E-01  8.50000000E-01  8.50000000E-01  8.50000000E-01  8.50000000E-01
  8.50000000E-01  8.50000000E-01  8.50000000E-01  8.50000000E-01  8.50000000E-01
  8.50000000E-01  8.50000000E-01  8.50000000E-01  8.50000000E-01  8.50000000E-01
  8.50000000E-01  8.50000000E-01  8.50000000E-01  8.50000000E-01  8.50000000E-01
  8.50000000E-01  8.50000000E-01  8.50000000E-01  8.50000000E-01  8.50000000E-01
  8.50000000E-01  8.50000000E-01  8.50000000E-01  8.50000000E-01  8.50000000E-01
  8.50000000E-01  8.50000000E-01  8.50000000E-01  8.50000000E-01  8.50000000E-01
  8.50000000E-01  8.50000000E-01  8.50000000E-01  8.50000000E-01  8.50000000E-01
  8.50000000E-01  8.50000000E-01  8.50000000E-01  8.50000000E-01  8.50000000E-01
  8.50000000E-01  8.50000000E-01  8.50000000E-01  8.50000000E-01  8.50000000E-01
  8.50000000E-01  8.50000000E-01  8.50000000E-01  8.50000000E-01  8.50000000E-01
  8.50000000E-01  8.50000000E-01  8.50000000E-01  8.50000000E-01  8.50000000E-01
  8.50000000E-01  8.50000000E-01  8.50000000E-01  8.50000000E-01  8.50000000E-01
  8.50000000E-01  8.50000000E-01  8.50000000E-01  8.50000000E-01  8.50000000E-01
  8.50000000E-01  8.50000000E-01  8.50000000E-01  8.50000000E-01  8.50000000E-01
  8.50000000E-01  8.50000000E-01  8.50000000E-01  8.50000000E-01  8.50000000E-01
  8.50000000E-01  8.50000000E-01  8.50000000E-01  8.50000000E-01  8.50000000E-01
  8.50000000E-01  8.50000000E-01  8.50000000E-01  8.50000000E-01  8.50000000E-01
  8.50000000E-01  8.50000000E-01  8.50000000E-01  8.50000000E-01  8.50000000E-01
  8.50000000E-01  8.50000000E-01  8.50000000E-01  8.50000000E-01  8.50000000E-01
  8.50000000E-01  8.50000000E-01  8.50000000E-01  8.50000000E-01  8.50000000E-01
  8.50000000E-01  8.50000000E-01  8.50000000E-01  8.50000000E-01  8.50000000E-01
  8.50000000E-01  8.50000000E-01  8.50000000E-01  8.50000000E-01  8.50000000E-01
  8.50000000E-01  8.50000000E-01  8.50000000E-01  8.50000000E-01  8.50000000E-01
  8.50000000E-01  8.50000000E-01  8.50000000E-01  8.50000000E-01  8.50000000E-01
  8.50000000E-01  8.50000000E-01  8.50000000E-01  8.50000000E-01  8.50000000E-01
  8.50000000E-01  8.50000000E-01  8.50000000E-01  8.50000000E-01  8.50000000E-01
  8.50000000E-01  8.50000000E-01  8.50000000E-01  8.50000000E-01  8.50000000E-01
  8.50000000E-01  8.50000000E-01  8.50000000E-01  8.50000000E-01  8.50000000E-01
  8.50000000E-01  8.50000000E-01  8.50000000E-01  8.50000000E-01  8.50000000E-01
  8.50000000E-01  8.50000000E-01  8.50000000E-01  8.50000000E-01  8.50000000E-01
  8.50000000E-01  8.50000000E-01  8.50000000E-01  8.50000000E-01  8.50000000E-01
  8.50000000E-01  8.50000000E-01  8.50000000E-01  8.50000000E-01  8.50000000E-01
  8.50000000E-01  8.50000000E-01  8.50000000E-01  8.50000000E-01  8.50000000E-01
  8.50000000E-01  8.50000000E-01  8.50000000E-01  8.50000000E-01  8.50000000E-01
  8.50000000E-01  8.50000000E-01  8.50000000E-01  8.50000000E-01  8.50000000E-01
  8.50000000E-01  8.50000000E-01  8.50000000E-01  8.50000000E-01  8.50000000E-01
  8.50000000E-01  8.50000000E-01  8.50000000E-01  8.50000000E-01  8.50000000E-01
  8.50000000E-01  8.50000000E-01  8.50000000E-01  8.50000000E-01  8.50000000E-01
  8.50000000E-01  8.50000000E-01  8.50000000E-01  8.50000000E-01  8.50000000E-01
  8.50000000E-01  8.50000000E-01  8.50000000E-01  8.50000000E-01  8.50000000E-01
  8.50000000E-01  8.50000000E-01  8.50000000E-01  8.50000000E-01  8.50000000E-01
  8.50000000E-01  8.50000000E-01  8.50000000E-01  8.50000000E-01  8.50000000E-01
  8.50000000E-01  8.50000000E-01  8.50000000E-01  8.50000000E-01  8.50000000E-01
  8.50000000E-01  8.50000000E-01  8.50000000E-01  8.50000000E-01  8.50000000E-01
  8.50000000E-01  8.50000000E-01  8.50000000E-01  8.50000000E-01  8.50000000E-01
  8.50000000E-01  8.50000000E-01  8.50000000E-01  8.50000000E-01  8.50000000E-01
  8.50000000E-01  8.50000000E-01  8.50000000E-01  8.50000000E-01  8.50000000E-01
  8.50000000E-01  8.50000000E-01  8.50000000E-01  8.50000000E-01  8.50000000E-01
  8.50000000E-01  8.50000000E-01  8.50000000E-01  8.50000000E-01  8.50000000E-01
  8.50000000E-01  8.50000000E-01  8.50000000E-01  8.50000000E-01  8.50000000E-01
  8.50000000E-01  8.50000000E-01  8.50000000E-01  8.50000000E-01  8.50000000E-01
  8.50000000E-01  8.50000000E-01  8.50000000E-01  8.50000000E-01  8.50000000E-01
  8.50000000E-01  8.50000000E-01  8.50000000E-01  8.50000000E-01  8.50000000E-01
  8.50000000E-01  8.50000000E-01  8.50000000E-01  8.50000000E-01  8.50000000E-01
  8.50000000E-01  8.50000000E-01  8.50000000E-01  8.50000000E-01  8.50000000E-01
  8.50000000E-01  8.50000000E-01  8.50000000E-01  8.50000000E-01  8.50000000E-01
  8.50000000E-01  8.50000000E-01  8.50000000E-01  8.50000000E-01  8.50000000E-01
  8.50000000E-01  8.50000000E-01  8.50000000E-01  8.50000000E-01  8.50000000E-01
  8.50000000E-01  8.50000000E-01  8.50000000E-01  8.50000000E-01  8.50000000E-01
  8.50000000E-01  8.50000000E-01  8.50000000E-01  8.50000000E-01  8.50000000E-01
  8.50000000E-01  8.50000000E-01  8.50000000E-01  8.50000000E-01  8.50000000E-01
  8.50000000E-01  8.50000000E-01  8.50000000E-01  8.50000000E-01  8.50000000E-01
  8.50000000E-01  8.50000000E-01  8.50000000E-01  8.50000000E-01  8.50000000E-01
  8.50000000E-01  8.50000000E-01  8.50000000E-01  8.50000000E-01  8.50000000E-01
  8.50000000E-01  8.50000000E-01  8.50000000E-01  8.50000000E-01  8.50000000E-01
  8.50000000E-01  8.50000000E-01  8.50000000E-01  8.50000000E-01  8.50000000E-01
  8.50000000E-01  8.50000000E-01  8.50000000E-01  8.50000000E-01  8.50000000E-01
  8.50000000E-01  8.50000000E-01  8.50000000E-01  8.50000000E-01  8.50000000E-01
  8.50000000E-01  8.50000000E-01  8.50000000E-01  8.50000000E-01  8.50000000E-01
  8.50000000E-01  8.50000000E-01  8.50000000E-01  8.50000000E-01  8.50000000E-01
  8.50000000E-01  8.50000000E-01  8.50000000E-01  8.50000000E-01  8.50000000E-01
  8.50000000E-01  8.50000000E-01  8.50000000E-01  8.50000000E-01  8.50000000E-01
  8.50000000E-01  8.50000000E-01  8.50000000E-01  8.50000000E-01  8.50000000E-01
  8.50000000E-01  8.50000000E-01  8.50000000E-01  8.50000000E-01  8.50000000E-01
  8.50000000E-01  8.50000000E-01  8.50000000E-01  8.50000000E-01  8.50000000E-01
  8.50000000E-01  8.50000000E-01  8.50000000E-01  8.50000000E-01  8.50000000E-01
  8.50000000E-01  8.50000000E-01  8.50000000E-01  8.50000000E-01  8.50000000E-01
  8.50000000E-01  8.50000000E-01  8.50000000E-01  8.50000000E-01  8.50000000E-01
  8.50000000E-01  8.50000000E-01  8.50000000E-01  8.50000000E-01  8.50000000E-01
  8.50000000E-01  8.50000000E-01  8.50000000E-01  8.50000000E-01  8.50000000E-01
  8.50000000E-01  8.50000000E-01  8.50000000E-01  8.50000000E-01  8.50000000E-01
  8.50000000E-01  8.50000000E-01  8.50000000E-01  8.50000000E-01  8.50000000E-01
  8.50000000E-01  8.50000000E-01  8.50000000E-01  8.50000000E-01  8.50000000E-01
  8.50000000E-01  8.50000000E-01  8.50000000E-01  8.50000000E-01  8.50000000E-01
  8.50000000E-01  8.50000000E-01  8.50000000E-01  8.50000000E-01  8.50000000E-01
  8.50000000E-01  8.50000000E-01  8.50000000E-01  8.50000000E-01  8.50000000E-01
  8.50000000E-01  8.50000000E-01  8.50000000E-01  8.50000000E-01  8.50000000E-01
  8.50000000E-01  8.50000000E-01  8.50000000E-01  8.50000000E-01  8.50000000E-01
  8.50000000E-01  8.50000000E-01  8.50000000E-01  8.50000000E-01  8.50000000E-01
  8.50000000E-01  8.50000000E-01  8.50000000E-01  8.50000000E-01  8.50000000E-01
  8.50000000E-01  8.50000000E-01  8.50000000E-01  8.50000000E-01  8.50000000E-01
  8.50000000E-01  8.50000000E-01  8.50000000E-01  8.50000000E-01  8.50000000E-01
  8.50000000E-01  8.50000000E-01  8.50000000E-01  8.50000000E-01  8.50000000E-01
  8.50000000E-01  8.50000000E-01  8.50000000E-01  8.50000000E-01  8.50000000E-01
  8.50000000E-01  8.50000000E-01  8.50000000E-01  8.50000000E-01  8.50000000E-01
  8.50000000E-01  8.50000000E-01  8.50000000E-01  8.50000000E-01  8.50000000E-01
  8.50000000E-01  8.50000000E-01  8.50000000E-01  8.50000000E-01  8.50000000E-01
  8.50000000E-01  8.50000000E-01  8.50000000E-01  8.50000000E-01  8.50000000E-01
  8.50000000E-01  8.50000000E-01  8.50000000E-01  8.50000000E-01  8.50000000E-01
  8.50000000E-01  8.50000000E-01  8.50000000E-01  8.50000000E-01  8.50000000E-01
  8.50000000E-01  8.50000000E-01  8.50000000E-01  8.50000000E-01  8.50000000E-01
  8.50000000E-01  8.50000000E-01  8.50000000E-01  8.50000000E-01  8.50000000E-01
  8.50000000E-01  8.50000000E-01  8.50000000E-01  8.50000000E-01  8.50000000E-01
  8.50000000E-01  8.50000000E-01  8.50000000E-01  8.50000000E-01  8.50000000E-01
  8.50000000E-01  8.50000000E-01  8.50000000E-01  8.50000000E-01  8.50000000E-01
  8.50000000E-01  8.50000000E-01  8.50000000E-01  8.50000000E-01  8.50000000E-01
  8.50000000E-01  8.50000000E-01  8.50000000E-01  8.50000000E-01  8.50000000E-01
  8.50000000E-01  8.50000000E-01  8.50000000E-01  8.50000000E-01  8.50000000E-01
  8.50000000E-01  8.50000000E-01  8.50000000E-01  8.50000000E-01  8.50000000E-01
  8.50000000E-01  8.50000000E-01  8.50000000E-01  8.50000000E-01  8.50000000E-01
  8.50000000E-01  8.50000000E-01  8.50000000E-01  8.50000000E-01  8.50000000E-01
  8.50000000E-01  8.50000000E-01  8.50000000E-01  8.50000000E-01  8.50000000E-01
  8.50000000E-01  8.50000000E-01  8.50000000E-01  8.50000000E-01  8.50000000E-01
  8.50000000E-01  8.50000000E-01  8.50000000E-01  8.50000000E-01  8.50000000E-01
  8.50000000E-01  8.50000000E-01  8.50000000E-01  8.50000000E-01  8.50000000E-01
  8.50000000E-01  8.50000000E-01  8.50000000E-01  8.50000000E-01  8.50000000E-01
  8.50000000E-01  8.50000000E-01  8.50000000E-01  8.50000000E-01  8.50000000E-01
  8.50000000E-01  8.50000000E-01  8.50000000E-01  8.50000000E-01  8.50000000E-01
  8.50000000E-01  8.50000000E-01  8.50000000E-01  8.50000000E-01  8.50000000E-01
  8.50000000E-01  8.50000000E-01  8.50000000E-01  8.50000000E-01  8.50000000E-01
  8.50000000E-01  8.50000000E-01  8.50000000E-01  8.50000000E-01  8.50000000E-01
  8.50000000E-01  8.50000000E-01  8.50000000E-01  8.50000000E-01  8.50000000E-01
  8.50000000E-01  8.50000000E-01  8.50000000E-01  8.50000000E-01  8.50000000E-01
  8.50000000E-01  8.50000000E-01  8.50000000E-01  8.50000000E-01  8.50000000E-01
  8.50000000E-01  8.50000000E-01  8.50000000E-01  8.50000000E-01  8.50000000E-01
  8.50000000E-01  8.50000000E-01  8.50000000E-01  8.50000000E-01  8.50000000E-01
  8.50000000E-01  8.50000000E-01  8.50000000E-01  8.50000000E-01  8.50000000E-01
  8.50000000E-01  8.50000000E-01  8.50000000E-01  8.50000000E-01  8.50000000E-01
  8.50000000E-01  8.50000000E-01  8.50000000E-01  8.50000000E-01  8.50000000E-01
  8.50000000E-01  8.50000000E-01  8.50000000E-01  8.50000000E-01  8.50000000E-01
  8.50000000E-01  8.50000000E-01  8.50000000E-01  8.50000000E-01  8.50000000E-01
  8.50000000E-01  8.50000000E-01  8.50000000E-01  8.50000000E-01  8.50000000E-01
  8.50000000E-01  8.50000000E-01  8.50000000E-01  8.50000000E-01  8.50000000E-01
  8.50000000E-01  8.50000000E-01  8.50000000E-01  8.50000000E-01  8.50000000E-01
  8.50000000E-01  8.50000000E-01  8.50000000E-01  8.50000000E-01  8.50000000E-01
  8.50000000E-01  8.50000000E-01  8.50000000E-01  8.50000000E-01  8.50000000E-01
  8.50000000E-01  8.50000000E-01  8.50000000E-01  8.50000000E-01  8.50000000E-01
  8.50000000E-01  8.50000000E-01  8.50000000E-01  8.50000000E-01  8.50000000E-01
  8.50000000E-01  8.50000000E-01  8.50000000E-01  8.50000000E-01  8.50000000E-01
  8.50000000E-01  8.50000000E-01  8.50000000E-01  8.50000000E-01  8.50000000E-01
  8.50000000E-01  8.50000000E-01  8.50000000E-01  8.50000000E-01  8.50000000E-01
  8.50000000E-01  8.50000000E-01  8.50000000E-01  8.50000000E-01  8.50000000E-01
  8.50000000E-01  8.50000000E-01  8.50000000E-01  8.50000000E-01  8.50000000E-01
  8.50000000E-01  8.50000000E-01  8.50000000E-01  8.50000000E-01  8.50000000E-01
  8.50000000E-01  8.50000000E-01  8.50000000E-01  8.50000000E-01  8.50000000E-01
  8.50000000E-01  8.50000000E-01  8.50000000E-01  8.50000000E-01  8.50000000E-01
  8.50000000E-01  8.50000000E-01  8.50000000E-01  8.50000000E-01  8.50000000E-01
  8.50000000E-01  8.50000000E-01  8.50000000E-01  8.50000000E-01  8.50000000E-01
  8.50000000E-01  8.50000000E-01  8.50000000E-01  8.50000000E-01  8.50000000E-01
  8.50000000E-01  8.50000000E-01  8.50000000E-01  8.50000000E-01  8.50000000E-01
  8.50000000E-01  8.50000000E-01  8.50000000E-01  8.50000000E-01  8.50000000E-01
  8.50000000E-01  8.50000000E-01  8.50000000E-01  8.50000000E-01  8.50000000E-01
  8.50000000E-01  8.50000000E-01  8.50000000E-01  8.50000000E-01  8.50000000E-01
  8.50000000E-01  8.50000000E-01  8.50000000E-01  8.50000000E-01  8.50000000E-01
  8.50000000E-01  8.50000000E-01  8.50000000E-01  8.50000000E-01  8.50000000E-01
  8.50000000E-01  8.50000000E-01  8.50000000E-01  8.50000000E-01  8.50000000E-01
  8.50000000E-01  8.50000000E-01  8.50000000E-01  8.50000000E-01  8.50000000E-01
  8.50000000E-01  8.50000000E-01  8.50000000E-01  8.50000000E-01  8.50000000E-01
  8.50000000E-01  8.50000000E-01  8.50000000E-01  8.50000000E-01  8.50000000E-01
  8.50000000E-01  8.50000000E-01  8.50000000E-01  8.50000000E-01  8.50000000E-01
  8.50000000E-01  8.50000000E-01  8.50000000E-01  8.50000000E-01  8.50000000E-01
  8.50000000E-01  8.50000000E-01  8.50000000E-01  8.50000000E-01  8.50000000E-01
  8.50000000E-01  8.50000000E-01  8.50000000E-01  8.50000000E-01  8.50000000E-01
  8.50000000E-01  8.50000000E-01  8.50000000E-01  8.50000000E-01  8.50000000E-01
  8.50000000E-01  8.50000000E-01  8.50000000E-01  8.50000000E-01  8.50000000E-01
  8.50000000E-01  8.50000000E-01  8.50000000E-01  8.50000000E-01  8.50000000E-01
  8.50000000E-01  8.50000000E-01  8.50000000E-01  8.50000000E-01  8.50000000E-01
  8.50000000E-01  8.50000000E-01  8.50000000E-01  8.50000000E-01  8.50000000E-01
  8.50000000E-01  8.50000000E-01  8.50000000E-01  8.50000000E-01  8.50000000E-01
  8.50000000E-01  8.50000000E-01  8.50000000E-01  8.50000000E-01  8.50000000E-01
  8.50000000E-01  8.50000000E-01  8.50000000E-01  8.50000000E-01  8.50000000E-01
  8.50000000E-01  8.50000000E-01  8.50000000E-01  8.50000000E-01  8.50000000E-01
  8.50000000E-01  8.50000000E-01  8.50000000E-01  8.50000000E-01  8.50000000E-01
  8.50000000E-01  8.50000000E-01  8.50000000E-01  8.50000000E-01  8.50000000E-01
  8.50000000E-01  8.50000000E-01  8.50000000E-01  8.50000000E-01  8.50000000E-01
  8.50000000E-01  8.50000000E-01  8.50000000E-01  8.50000000E-01  8.50000000E-01
  8.50000000E-01  8.50000000E-01  8.50000000E-01  8.50000000E-01  8.50000000E-01
  8.50000000E-01  8.50000000E-01  8.50000000E-01  8.50000000E-01  8.50000000E-01
  8.50000000E-01  8.50000000E-01  8.50000000E-01  8.50000000E-01  8.50000000E-01
  8.50000000E-01  8.50000000E-01  8.50000000E-01  8.50000000E-01  8.50000000E-01
  8.50000000E-01  8.50000000E-01  8.50000000E-01  8.50000000E-01  8.50000000E-01
  8.50000000E-01  8.50000000E-01  8.50000000E-01  8.50000000E-01  8.50000000E-01
  8.50000000E-01  8.50000000E-01  8.50000000E-01  8.50000000E-01  8.50000000E-01
  8.50000000E-01  8.50000000E-01  8.50000000E-01  8.50000000E-01  8.50000000E-01
  8.50000000E-01  8.50000000E-01  8.50000000E-01  8.50000000E-01  8.50000000E-01
  8.50000000E-01  8.50000000E-01  8.50000000E-01  8.50000000E-01  8.50000000E-01
  8.50000000E-01  8.50000000E-01  8.50000000E-01  8.50000000E-01  8.50000000E-01
  8.50000000E-01  8.50000000E-01  8.50000000E-01  8.50000000E-01  8.50000000E-01
  8.50000000E-01  8.50000000E-01  8.50000000E-01  8.50000000E-01  8.50000000E-01
  8.50000000E-01  8.50000000E-01  8.50000000E-01  8.50000000E-01  8.50000000E-01
  8.50000000E-01  8.50000000E-01  8.50000000E-01  8.50000000E-01  8.50000000E-01
  8.50000000E-01  8.50000000E-01  8.50000000E-01  8.50000000E-01  8.50000000E-01
  8.50000000E-01  8.50000000E-01  8.50000000E-01  8.50000000E-01  8.50000000E-01
  8.50000000E-01  8.50000000E-01  8.50000000E-01  8.50000000E-01  8.50000000E-01
  8.50000000E-01  8.50000000E-01  8.50000000E-01  8.50000000E-01  8.50000000E-01
  8.50000000E-01  8.50000000E-01  8.50000000E-01  8.50000000E-01  8.50000000E-01
  8.50000000E-01  8.50000000E-01  8.50000000E-01  8.50000000E-01  8.50000000E-01
  8.50000000E-01  8.50000000E-01  8.50000000E-01  8.50000000E-01  8.50000000E-01
  8.50000000E-01  8.50000000E-01  8.50000000E-01  8.50000000E-01  8.50000000E-01
  8.50000000E-01  8.50000000E-01  8.50000000E-01  8.50000000E-01  8.50000000E-01
  8.50000000E-01  8.50000000E-01  8.50000000E-01  8.50000000E-01  8.50000000E-01
  8.50000000E-01  8.50000000E-01  8.50000000E-01  8.50000000E-01  8.50000000E-01
  8.50000000E-01  8.50000000E-01  8.50000000E-01  8.50000000E-01  8.50000000E-01
  8.50000000E-01  8.50000000E-01  8.50000000E-01  8.50000000E-01  8.50000000E-01
  8.50000000E-01  8.50000000E-01  8.50000000E-01  8.50000000E-01  8.50000000E-01
  8.50000000E-01  8.50000000E-01  8.50000000E-01  8.50000000E-01  8.50000000E-01
  8.50000000E-01  8.50000000E-01  8.50000000E-01  8.50000000E-01  8.50000000E-01
  8.50000000E-01  8.50000000E-01  8.50000000E-01  8.50000000E-01  8.50000000E-01
  8.50000000E-01  8.50000000E-01  8.50000000E-01  8.50000000E-01  8.50000000E-01
  8.50000000E-01  8.50000000E-01  8.50000000E-01  8.50000000E-01  8.50000000E-01
  8.50000000E-01  8.50000000E-01  8.50000000E-01  8.50000000E-01  8.50000000E-01
  8.50000000E-01  8.50000000E-01  8.50000000E-01  8.50000000E-01  8.50000000E-01
  8.50000000E-01  8.50000000E-01  8.50000000E-01  8.50000000E-01  8.50000000E-01
  8.50000000E-01  8.50000000E-01  8.50000000E-01  8.50000000E-01  8.50000000E-01
  8.50000000E-01  8.50000000E-01  8.50000000E-01  8.50000000E-01  8.50000000E-01
  8.50000000E-01  8.50000000E-01  8.50000000E-01  8.50000000E-01  8.50000000E-01
  8.50000000E-01  8.50000000E-01  8.50000000E-01  8.50000000E-01  8.50000000E-01
  8.50000000E-01  8.50000000E-01  8.50000000E-01  8.50000000E-01  8.50000000E-01
  8.50000000E-01  8.50000000E-01  8.50000000E-01  8.50000000E-01  8.50000000E-01
  8.50000000E-01  8.50000000E-01  8.50000000E-01  8.50000000E-01  8.50000000E-01
  8.50000000E-01  8.50000000E-01  8.50000000E-01  8.50000000E-01  8.50000000E-01
  8.50000000E-01  8.50000000E-01  8.50000000E-01  8.50000000E-01  8.50000000E-01
  8.50000000E-01  8.50000000E-01  8.50000000E-01  8.50000000E-01  8.50000000E-01
  8.50000000E-01  8.50000000E-01  8.50000000E-01  8.50000000E-01  8.50000000E-01
  8.50000000E-01  8.50000000E-01  8.50000000E-01  8.50000000E-01  8.50000000E-01
  8.50000000E-01  8.50000000E-01  8.50000000E-01  8.50000000E-01  8.50000000E-01
  8.50000000E-01  8.50000000E-01  8.50000000E-01  8.50000000E-01  8.50000000E-01
  8.50000000E-01  8.50000000E-01  8.50000000E-01  8.50000000E-01  8.50000000E-01
  8.50000000E-01  8.50000000E-01  8.50000000E-01  8.50000000E-01  8.50000000E-01
  8.50000000E-01  8.50000000E-01  8.50000000E-01  8.50000000E-01  8.50000000E-01
  8.50000000E-01  8.50000000E-01  8.50000000E-01  8.50000000E-01  8.50000000E-01
  8.50000000E-01  8.50000000E-01  8.50000000E-01  8.50000000E-01  8.50000000E-01
  8.50000000E-01  8.50000000E-01  8.50000000E-01  8.50000000E-01  8.50000000E-01
  8.50000000E-01  8.50000000E-01  8.50000000E-01  8.50000000E-01  8.50000000E-01
  8.50000000E-01  8.50000000E-01  8.50000000E-01  8.50000000E-01  8.50000000E-01
  8.50000000E-01  8.50000000E-01  8.50000000E-01  8.50000000E-01  8.50000000E-01
  8.50000000E-01  8.50000000E-01  8.50000000E-01  8.50000000E-01  8.50000000E-01
  8.50000000E-01  8.50000000E-01  8.50000000E-01  8.50000000E-01  8.50000000E-01
  8.50000000E-01  8.50000000E-01  8.50000000E-01  8.50000000E-01  8.50000000E-01
  8.50000000E-01  8.50000000E-01  8.50000000E-01  8.50000000E-01  8.50000000E-01
  8.50000000E-01  8.50000000E-01  8.50000000E-01  8.50000000E-01  8.50000000E-01
  8.50000000E-01  8.50000000E-01  8.50000000E-01  8.50000000E-01  8.50000000E-01
  8.50000000E-01  8.50000000E-01  8.50000000E-01  8.50000000E-01  8.50000000E-01
  8.50000000E-01  8.50000000E-01  8.50000000E-01  8.50000000E-01  8.50000000E-01
  8.50000000E-01  8.50000000E-01  8.50000000E-01  8.50000000E-01  8.50000000E-01
  8.50000000E-01  8.50000000E-01  8.50000000E-01  8.50000000E-01  8.50000000E-01
  8.50000000E-01  8.50000000E-01  8.50000000E-01  8.50000000E-01  8.50000000E-01
  8.50000000E-01  8.50000000E-01  8.50000000E-01  8.50000000E-01  8.50000000E-01
  8.50000000E-01  8.50000000E-01  8.50000000E-01  8.50000000E-01  8.50000000E-01
  8.50000000E-01  8.50000000E-01  8.50000000E-01  8.50000000E-01  8.50000000E-01
  8.50000000E-01  8.50000000E-01  8.50000000E-01  8.50000000E-01  8.50000000E-01
  8.50000000E-01  8.50000000E-01  8.50000000E-01  8.50000000E-01  8.50000000E-01
  8.50000000E-01  8.50000000E-01  8.50000000E-01  8.50000000E-01  8.50000000E-01
  8.50000000E-01  8.50000000E-01  8.50000000E-01  8.50000000E-01  8.50000000E-01
  8.50000000E-01  8.50000000E-01  8.50000000E-01  8.50000000E-01  8.50000000E-01
  8.50000000E-01  8.50000000E-01  8.50000000E-01  8.50000000E-01  8.50000000E-01
  8.50000000E-01  8.50000000E-01  8.50000000E-01  8.50000000E-01  8.50000000E-01
  8.50000000E-01  8.50000000E-01  8.50000000E-01  8.50000000E-01  8.50000000E-01
  8.50000000E-01  8.50000000E-01  8.50000000E-01  8.50000000E-01  8.50000000E-01
  8.50000000E-01  8.50000000E-01  8.50000000E-01  8.50000000E-01  8.50000000E-01
  8.50000000E-01  8.50000000E-01  8.50000000E-01  8.50000000E-01  8.50000000E-01
  8.50000000E-01  8.50000000E-01  8.50000000E-01  8.50000000E-01  8.50000000E-01
  8.50000000E-01  8.50000000E-01  8.50000000E-01  8.50000000E-01  8.50000000E-01
  8.50000000E-01  8.50000000E-01  8.50000000E-01  8.50000000E-01  8.50000000E-01
  8.50000000E-01  8.50000000E-01  8.50000000E-01  8.50000000E-01  8.50000000E-01
  8.50000000E-01  8.50000000E-01  8.50000000E-01  8.50000000E-01  8.50000000E-01
  8.50000000E-01  8.50000000E-01  8.50000000E-01  8.50000000E-01  8.50000000E-01
  8.50000000E-01  8.50000000E-01  8.50000000E-01  8.50000000E-01  8.50000000E-01
  8.50000000E-01  8.50000000E-01  8.50000000E-01  8.50000000E-01  8.50000000E-01
  8.50000000E-01  8.50000000E-01  8.50000000E-01  8.50000000E-01  8.50000000E-01
  8.50000000E-01  8.50000000E-01  8.50000000E-01  8.50000000E-01  8.50000000E-01
  8.50000000E-01  8.50000000E-01  8.50000000E-01  8.50000000E-01  8.50000000E-01
  8.50000000E-01  8.50000000E-01  8.50000000E-01  8.50000000E-01  8.50000000E-01
  8.50000000E-01  8.50000000E-01  8.50000000E-01  8.50000000E-01  8.50000000E-01
  8.50000000E-01  8.50000000E-01  8.50000000E-01  8.50000000E-01  8.50000000E-01
  8.50000000E-01  8.50000000E-01  8.50000000E-01  8.50000000E-01  8.50000000E-01
  8.50000000E-01  8.50000000E-01  8.50000000E-01  8.50000000E-01  8.50000000E-01
  8.50000000E-01  8.50000000E-01  8.50000000E-01  8.50000000E-01  8.50000000E-01
  8.50000000E-01  8.50000000E-01  8.50000000E-01  8.50000000E-01  8.50000000E-01
  8.50000000E-01  8.50000000E-01  8.50000000E-01  8.50000000E-01  8.50000000E-01
  8.50000000E-01  8.50000000E-01  8.50000000E-01  8.50000000E-01  8.50000000E-01
  8.50000000E-01  8.50000000E-01  8.50000000E-01  8.50000000E-01  8.50000000E-01
  8.50000000E-01  8.50000000E-01  8.50000000E-01  8.50000000E-01  8.50000000E-01
  8.50000000E-01  8.50000000E-01  8.50000000E-01  8.50000000E-01  8.50000000E-01
  8.50000000E-01  8.50000000E-01  8.50000000E-01  8.50000000E-01  8.50000000E-01
  8.50000000E-01  8.50000000E-01  8.50000000E-01  8.50000000E-01  8.50000000E-01
  8.50000000E-01  8.50000000E-01  8.50000000E-01  8.50000000E-01  8.50000000E-01
  8.50000000E-01  8.50000000E-01  8.50000000E-01  8.50000000E-01  8.50000000E-01
  8.50000000E-01  8.50000000E-01  8.50000000E-01  8.50000000E-01  8.50000000E-01
  8.50000000E-01  8.50000000E-01  8.50000000E-01  8.50000000E-01  8.50000000E-01
  8.50000000E-01  8.50000000E-01  8.50000000E-01  8.50000000E-01  8.50000000E-01
  8.50000000E-01  8.50000000E-01  8.50000000E-01  8.50000000E-01  8.50000000E-01
  8.50000000E-01  8.50000000E-01  8.50000000E-01  8.50000000E-01  8.50000000E-01
  8.50000000E-01  8.50000000E-01  8.50000000E-01  8.50000000E-01  8.50000000E-01
  8.50000000E-01  8.50000000E-01  8.50000000E-01  8.50000000E-01  8.50000000E-01
  8.50000000E-01  8.50000000E-01  8.50000000E-01  8.50000000E-01  8.50000000E-01
  8.50000000E-01  8.50000000E-01  8.50000000E-01  8.50000000E-01  8.50000000E-01
  8.50000000E-01  8.50000000E-01  8.50000000E-01  8.50000000E-01  8.50000000E-01
  8.50000000E-01  8.50000000E-01  8.50000000E-01  8.50000000E-01  8.50000000E-01
  8.50000000E-01  8.50000000E-01  8.50000000E-01  8.50000000E-01  8.50000000E-01
  8.50000000E-01  8.50000000E-01  8.50000000E-01  8.50000000E-01  8.50000000E-01
  8.50000000E-01  8.50000000E-01  8.50000000E-01  8.50000000E-01  8.50000000E-01
  8.50000000E-01  8.50000000E-01  8.50000000E-01  8.50000000E-01  8.50000000E-01
  8.50000000E-01  8.50000000E-01  8.50000000E-01  8.50000000E-01  8.50000000E-01
  8.50000000E-01  8.50000000E-01  8.50000000E-01  8.50000000E-01  8.50000000E-01
  8.50000000E-01  8.50000000E-01  8.50000000E-01  8.50000000E-01  8.50000000E-01
  8.50000000E-01  8.50000000E-01  8.50000000E-01  8.50000000E-01  8.50000000E-01
  8.50000000E-01  8.50000000E-01  8.50000000E-01  8.50000000E-01  8.50000000E-01
  8.50000000E-01  8.50000000E-01  8.50000000E-01  8.50000000E-01  8.50000000E-01
  8.50000000E-01  8.50000000E-01  8.50000000E-01  8.50000000E-01  8.50000000E-01
  8.50000000E-01  8.50000000E-01  8.50000000E-01  8.50000000E-01  8.50000000E-01
  8.50000000E-01  8.50000000E-01  8.50000000E-01  8.50000000E-01  8.50000000E-01
  8.50000000E-01  8.50000000E-01  8.50000000E-01  8.50000000E-01  8.50000000E-01
  8.50000000E-01  8.50000000E-01  8.50000000E-01  8.50000000E-01  8.50000000E-01
  8.50000000E-01  8.50000000E-01  8.50000000E-01  8.50000000E-01  8.50000000E-01
  8.50000000E-01  8.50000000E-01  8.50000000E-01  8.50000000E-01  8.50000000E-01
  8.50000000E-01  8.50000000E-01  8.50000000E-01  8.50000000E-01  8.50000000E-01
  8.50000000E-01  8.50000000E-01  8.50000000E-01  8.50000000E-01  8.50000000E-01
  8.50000000E-01  8.50000000E-01  8.50000000E-01  8.50000000E-01  8.50000000E-01
  8.50000000E-01  8.50000000E-01  8.50000000E-01  8.50000000E-01  8.50000000E-01
  8.50000000E-01  8.50000000E-01  8.50000000E-01  8.50000000E-01  8.50000000E-01
  8.50000000E-01  8.50000000E-01  8.50000000E-01  8.50000000E-01  8.50000000E-01
  8.50000000E-01  8.50000000E-01  8.50000000E-01  8.50000000E-01  8.50000000E-01
  8.50000000E-01  8.50000000E-01  8.50000000E-01  8.50000000E-01  8.50000000E-01
  8.50000000E-01  8.50000000E-01  8.50000000E-01  8.50000000E-01  8.50000000E-01
  8.50000000E-01  8.50000000E-01  8.50000000E-01  8.50000000E-01  8.50000000E-01
  8.50000000E-01  8.50000000E-01  8.50000000E-01  8.50000000E-01  8.50000000E-01
  8.50000000E-01  8.50000000E-01  8.50000000E-01  8.50000000E-01  8.50000000E-01
  8.50000000E-01  8.50000000E-01  8.50000000E-01  8.50000000E-01  8.50000000E-01
  8.50000000E-01  8.50000000E-01  8.50000000E-01  8.50000000E-01  8.50000000E-01
  8.50000000E-01  8.50000000E-01  8.50000000E-01  8.50000000E-01  8.50000000E-01
  8.50000000E-01  8.50000000E-01  8.50000000E-01  8.50000000E-01  8.50000000E-01
  8.50000000E-01  8.50000000E-01  8.50000000E-01  8.50000000E-01  8.50000000E-01
  8.50000000E-01  8.50000000E-01  8.50000000E-01  8.50000000E-01  8.50000000E-01
  8.50000000E-01  8.50000000E-01  8.50000000E-01  8.50000000E-01  8.50000000E-01
  8.50000000E-01  8.50000000E-01  8.50000000E-01  8.50000000E-01  8.50000000E-01
  8.50000000E-01  8.50000000E-01  8.50000000E-01  8.50000000E-01  8.50000000E-01
  8.50000000E-01  8.50000000E-01  8.50000000E-01  8.50000000E-01  8.50000000E-01
  8.50000000E-01  8.50000000E-01  8.50000000E-01  8.50000000E-01  8.50000000E-01
  8.50000000E-01  8.50000000E-01  8.50000000E-01  8.50000000E-01  8.50000000E-01
  8.50000000E-01  8.50000000E-01  8.50000000E-01  8.50000000E-01  8.50000000E-01
  8.50000000E-01  8.50000000E-01  8.50000000E-01  8.50000000E-01  8.50000000E-01
  8.50000000E-01  8.50000000E-01  8.50000000E-01  8.50000000E-01  8.50000000E-01
  8.50000000E-01  8.50000000E-01  8.50000000E-01  8.50000000E-01  8.50000000E-01
  8.50000000E-01  8.50000000E-01  8.50000000E-01  8.50000000E-01  8.50000000E-01
  8.50000000E-01  8.50000000E-01  8.50000000E-01  8.50000000E-01  8.50000000E-01
  8.50000000E-01  8.50000000E-01  8.50000000E-01  8.50000000E-01  8.50000000E-01
  8.50000000E-01  8.50000000E-01  8.50000000E-01  8.50000000E-01  8.50000000E-01
  8.50000000E-01  8.50000000E-01  8.50000000E-01  8.50000000E-01  8.50000000E-01
  8.50000000E-01  8.50000000E-01  8.50000000E-01  8.50000000E-01  8.50000000E-01
  8.50000000E-01  8.50000000E-01  8.50000000E-01  8.50000000E-01  8.50000000E-01
  8.50000000E-01  8.50000000E-01  8.50000000E-01  8.50000000E-01  8.50000000E-01
  8.50000000E-01  8.50000000E-01  8.50000000E-01  8.50000000E-01  8.50000000E-01
  8.50000000E-01  8.50000000E-01  8.50000000E-01  8.50000000E-01  8.50000000E-01
  8.50000000E-01  8.50000000E-01  8.50000000E-01  8.50000000E-01  8.50000000E-01
  8.50000000E-01  8.50000000E-01  8.50000000E-01  8.50000000E-01  8.50000000E-01
  8.50000000E-01  8.50000000E-01  8.50000000E-01  8.50000000E-01  8.50000000E-01
  8.50000000E-01  8.50000000E-01  8.50000000E-01  8.50000000E-01  8.50000000E-01
  8.50000000E-01  8.50000000E-01  8.50000000E-01  8.50000000E-01  8.50000000E-01
  8.50000000E-01  8.50000000E-01  8.50000000E-01  8.50000000E-01  8.50000000E-01
  8.50000000E-01  8.50000000E-01  8.50000000E-01  8.50000000E-01  8.50000000E-01
  8.50000000E-01  8.50000000E-01  8.50000000E-01  8.50000000E-01  8.50000000E-01
  8.50000000E-01  8.50000000E-01  8.50000000E-01  8.50000000E-01  8.50000000E-01
  8.50000000E-01  8.50000000E-01  8.50000000E-01  8.50000000E-01  8.50000000E-01
  8.50000000E-01  8.50000000E-01  8.50000000E-01  8.50000000E-01  8.50000000E-01
  8.50000000E-01  8.50000000E-01  8.50000000E-01  8.50000000E-01  8.50000000E-01
  8.50000000E-01  8.50000000E-01  8.50000000E-01  8.50000000E-01  8.50000000E-01
  8.50000000E-01  8.50000000E-01  8.50000000E-01  8.50000000E-01  8.50000000E-01
  8.50000000E-01  8.50000000E-01  8.50000000E-01  8.50000000E-01  8.50000000E-01
  8.50000000E-01  8.50000000E-01  8.50000000E-01  8.50000000E-01  8.50000000E-01
  8.50000000E-01  8.50000000E-01  8.50000000E-01  8.50000000E-01  8.50000000E-01
  8.50000000E-01  8.50000000E-01  8.50000000E-01  8.50000000E-01  8.50000000E-01
  8.50000000E-01  8.50000000E-01  8.50000000E-01  8.50000000E-01  8.50000000E-01
  8.50000000E-01  8.50000000E-01  8.50000000E-01  8.50000000E-01  8.50000000E-01
  8.50000000E-01  8.50000000E-01  8.50000000E-01  8.50000000E-01  8.50000000E-01
  8.50000000E-01  8.50000000E-01  8.50000000E-01  8.50000000E-01  8.50000000E-01
  8.50000000E-01  8.50000000E-01  8.50000000E-01  8.50000000E-01  8.50000000E-01
  8.50000000E-01  8.50000000E-01  8.50000000E-01  8.50000000E-01  8.50000000E-01
  8.50000000E-01  8.50000000E-01  8.50000000E-01  8.50000000E-01  8.50000000E-01
  8.50000000E-01  8.50000000E-01  8.50000000E-01  8.50000000E-01  8.50000000E-01
  8.50000000E-01  8.50000000E-01  8.50000000E-01  8.50000000E-01  8.50000000E-01
  8.50000000E-01  8.50000000E-01  8.50000000E-01  8.50000000E-01  8.50000000E-01
  8.50000000E-01  8.50000000E-01  8.50000000E-01  8.50000000E-01  8.50000000E-01
  8.50000000E-01  8.50000000E-01  8.50000000E-01  8.50000000E-01  8.50000000E-01
  8.50000000E-01  8.50000000E-01  8.50000000E-01  8.50000000E-01  8.50000000E-01
  8.50000000E-01  8.50000000E-01  8.50000000E-01  8.50000000E-01  8.50000000E-01
  8.50000000E-01  8.50000000E-01  8.50000000E-01  8.50000000E-01  8.50000000E-01
  8.50000000E-01  8.50000000E-01  8.50000000E-01  8.50000000E-01  8.50000000E-01
  8.50000000E-01  8.50000000E-01  8.50000000E-01  8.50000000E-01  8.50000000E-01
  8.50000000E-01  8.50000000E-01  8.50000000E-01  8.50000000E-01  8.50000000E-01
  8.50000000E-01  8.50000000E-01  8.50000000E-01  8.50000000E-01  8.50000000E-01
  8.50000000E-01  8.50000000E-01  8.50000000E-01  8.50000000E-01  8.50000000E-01
  8.50000000E-01  8.50000000E-01  8.50000000E-01  8.50000000E-01  8.50000000E-01
  8.50000000E-01  8.50000000E-01  8.50000000E-01  8.50000000E-01  8.50000000E-01
  8.50000000E-01  8.50000000E-01  8.50000000E-01  8.50000000E-01  8.50000000E-01
  8.50000000E-01  8.50000000E-01  8.50000000E-01  8.50000000E-01  8.50000000E-01
  8.50000000E-01  8.50000000E-01  8.50000000E-01  8.50000000E-01  8.50000000E-01
  8.50000000E-01  8.50000000E-01  8.50000000E-01  8.50000000E-01  8.50000000E-01
  8.50000000E-01  8.50000000E-01  8.50000000E-01  8.50000000E-01  8.50000000E-01
  8.50000000E-01  8.50000000E-01  8.50000000E-01  8.50000000E-01  8.50000000E-01
  8.50000000E-01  8.50000000E-01  8.50000000E-01  8.50000000E-01  8.50000000E-01
  8.50000000E-01  8.50000000E-01  8.50000000E-01  8.50000000E-01  8.50000000E-01
  8.50000000E-01  8.50000000E-01  8.50000000E-01  8.50000000E-01  8.50000000E-01
  8.50000000E-01  8.50000000E-01  8.50000000E-01  8.50000000E-01  8.50000000E-01
  8.50000000E-01  8.50000000E-01  8.50000000E-01  8.50000000E-01  8.50000000E-01
  8.50000000E-01  8.50000000E-01  8.50000000E-01  8.50000000E-01  8.50000000E-01
  8.50000000E-01  8.50000000E-01  8.50000000E-01  8.50000000E-01  8.50000000E-01
  8.50000000E-01  8.50000000E-01  8.50000000E-01  8.50000000E-01  8.50000000E-01
  8.50000000E-01  8.50000000E-01  8.50000000E-01  8.50000000E-01  8.50000000E-01
  8.50000000E-01  8.50000000E-01  8.50000000E-01  8.50000000E-01  8.50000000E-01
  8.50000000E-01  8.50000000E-01  8.50000000E-01  8.50000000E-01  8.50000000E-01
  8.50000000E-01  8.50000000E-01  8.50000000E-01  8.50000000E-01  8.50000000E-01
  8.50000000E-01  8.50000000E-01  8.50000000E-01  8.50000000E-01  8.50000000E-01
  8.50000000E-01  8.50000000E-01  8.50000000E-01  8.50000000E-01  8.50000000E-01
  8.50000000E-01  8.50000000E-01  8.50000000E-01  8.50000000E-01  8.50000000E-01
  8.50000000E-01  8.50000000E-01  8.50000000E-01  8.50000000E-01  8.50000000E-01
  8.50000000E-01  8.50000000E-01  8.50000000E-01  8.50000000E-01  8.50000000E-01
  8.50000000E-01  8.50000000E-01  8.50000000E-01  8.50000000E-01  8.50000000E-01
  8.50000000E-01  8.50000000E-01  8.50000000E-01  8.50000000E-01  8.50000000E-01
  8.50000000E-01  8.50000000E-01  8.50000000E-01  8.50000000E-01  8.50000000E-01
  8.50000000E-01  8.50000000E-01  8.50000000E-01  8.50000000E-01  8.50000000E-01
  8.50000000E-01  8.50000000E-01  8.50000000E-01  8.50000000E-01  8.50000000E-01
  8.50000000E-01  8.50000000E-01  8.50000000E-01  8.50000000E-01  8.50000000E-01
  8.50000000E-01  8.50000000E-01  8.50000000E-01  8.50000000E-01  8.50000000E-01
  8.50000000E-01  8.50000000E-01  8.50000000E-01  8.50000000E-01  8.50000000E-01
  8.50000000E-01  8.50000000E-01  8.50000000E-01  8.50000000E-01  8.50000000E-01
  8.50000000E-01  8.50000000E-01  8.50000000E-01  8.50000000E-01  8.50000000E-01
  8.50000000E-01  8.50000000E-01  8.50000000E-01  8.50000000E-01  8.50000000E-01
  8.50000000E-01  8.50000000E-01  8.50000000E-01  8.50000000E-01  8.50000000E-01
  8.50000000E-01  8.50000000E-01  8.50000000E-01  8.50000000E-01  8.50000000E-01
  8.50000000E-01  8.50000000E-01  8.50000000E-01  8.50000000E-01  8.50000000E-01
  8.50000000E-01  8.50000000E-01  8.50000000E-01  8.50000000E-01  8.50000000E-01
  8.50000000E-01  8.50000000E-01  8.50000000E-01  8.50000000E-01  8.50000000E-01
  8.50000000E-01  8.50000000E-01  8.50000000E-01  8.50000000E-01  8.50000000E-01
  8.50000000E-01  8.50000000E-01  8.50000000E-01  8.50000000E-01  8.50000000E-01
  8.50000000E-01  8.50000000E-01  8.50000000E-01  8.50000000E-01  8.50000000E-01
  8.50000000E-01  8.50000000E-01  8.50000000E-01  8.50000000E-01  8.50000000E-01
  8.50000000E-01  8.50000000E-01  8.50000000E-01  8.50000000E-01  8.50000000E-01
  8.50000000E-01  8.50000000E-01  8.50000000E-01  8.50000000E-01  8.50000000E-01
  8.50000000E-01  8.50000000E-01  8.50000000E-01  8.50000000E-01  8.50000000E-01
  8.50000000E-01  8.50000000E-01  8.50000000E-01  8.50000000E-01  8.50000000E-01
  8.50000000E-01  8.50000000E-01  8.50000000E-01  8.50000000E-01  8.50000000E-01
  8.50000000E-01  8.50000000E-01  8.50000000E-01  8.50000000E-01  8.50000000E-01
  8.50000000E-01  8.50000000E-01  8.50000000E-01  8.50000000E-01  8.50000000E-01
  8.50000000E-01  8.50000000E-01  8.50000000E-01  8.50000000E-01  8.50000000E-01
  8.50000000E-01  8.50000000E-01  8.50000000E-01  8.50000000E-01  8.50000000E-01
  8.50000000E-01  8.50000000E-01  8.50000000E-01  8.50000000E-01  8.50000000E-01
  8.50000000E-01  8.50000000E-01  8.50000000E-01  8.50000000E-01  8.50000000E-01
  8.50000000E-01  8.50000000E-01  8.50000000E-01  8.50000000E-01  8.50000000E-01
  8.50000000E-01  8.50000000E-01  8.50000000E-01  8.50000000E-01  8.50000000E-01
  8.50000000E-01  8.50000000E-01  8.50000000E-01  8.50000000E-01  8.50000000E-01
  8.50000000E-01  8.50000000E-01  8.50000000E-01  8.50000000E-01  8.50000000E-01
  8.50000000E-01  8.50000000E-01  8.50000000E-01  8.50000000E-01  8.50000000E-01
  8.50000000E-01  8.50000000E-01  8.50000000E-01  8.50000000E-01  8.50000000E-01
  8.50000000E-01  8.50000000E-01  8.50000000E-01  8.50000000E-01  8.50000000E-01
  8.50000000E-01  8.50000000E-01  8.50000000E-01  8.50000000E-01  8.50000000E-01
  8.50000000E-01  8.50000000E-01  8.50000000E-01  8.50000000E-01  8.50000000E-01
  8.50000000E-01  8.50000000E-01  8.50000000E-01  8.50000000E-01  8.50000000E-01
  8.50000000E-01  8.50000000E-01  8.50000000E-01  8.50000000E-01  8.50000000E-01
  8.50000000E-01  8.50000000E-01  8.50000000E-01  8.50000000E-01  8.50000000E-01
  8.50000000E-01  8.50000000E-01  8.50000000E-01  8.50000000E-01  8.50000000E-01
  8.50000000E-01  8.50000000E-01  8.50000000E-01  8.50000000E-01  8.50000000E-01
  8.50000000E-01  8.50000000E-01  8.50000000E-01  8.50000000E-01  8.50000000E-01
  8.50000000E-01  8.50000000E-01  8.50000000E-01  8.50000000E-01  8.50000000E-01
  8.50000000E-01  8.50000000E-01  8.50000000E-01  8.50000000E-01  8.50000000E-01
  8.50000000E-01  8.50000000E-01  8.50000000E-01  8.50000000E-01  8.50000000E-01
  8.50000000E-01  8.50000000E-01  8.50000000E-01  8.50000000E-01  8.50000000E-01
  8.50000000E-01  8.50000000E-01  8.50000000E-01  8.50000000E-01  8.50000000E-01
  8.50000000E-01  8.50000000E-01  8.50000000E-01  8.50000000E-01  8.50000000E-01
  8.50000000E-01  8.50000000E-01  8.50000000E-01  8.50000000E-01  8.50000000E-01
  8.50000000E-01  8.50000000E-01  8.50000000E-01  8.50000000E-01  8.50000000E-01
  8.50000000E-01  8.50000000E-01  8.50000000E-01  8.50000000E-01  8.50000000E-01
  8.50000000E-01  8.50000000E-01  8.50000000E-01  8.50000000E-01  8.50000000E-01
  8.50000000E-01  8.50000000E-01  8.50000000E-01  8.50000000E-01  8.50000000E-01
  8.50000000E-01  8.50000000E-01  8.50000000E-01  8.50000000E-01  8.50000000E-01
  8.50000000E-01  8.50000000E-01  8.50000000E-01  8.50000000E-01  8.50000000E-01
  8.50000000E-01  8.50000000E-01  8.50000000E-01  8.50000000E-01  8.50000000E-01
  8.50000000E-01  8.50000000E-01  8.50000000E-01  8.50000000E-01  8.50000000E-01
  8.50000000E-01  8.50000000E-01  8.50000000E-01  8.50000000E-01  8.50000000E-01
  8.50000000E-01  8.50000000E-01  8.50000000E-01  8.50000000E-01  8.50000000E-01
  8.50000000E-01  8.50000000E-01  8.50000000E-01  8.50000000E-01  8.50000000E-01
  8.50000000E-01  8.50000000E-01  8.50000000E-01  8.50000000E-01  8.50000000E-01
  8.50000000E-01  8.50000000E-01  8.50000000E-01  8.50000000E-01  8.50000000E-01
  8.50000000E-01  8.50000000E-01  8.50000000E-01  8.50000000E-01  8.50000000E-01
  8.50000000E-01  8.50000000E-01  8.50000000E-01  8.50000000E-01  8.50000000E-01
  8.50000000E-01  8.50000000E-01  8.50000000E-01  8.50000000E-01  8.50000000E-01
  8.50000000E-01  8.50000000E-01  8.50000000E-01  8.50000000E-01  8.50000000E-01
  8.50000000E-01  8.50000000E-01  8.50000000E-01  8.50000000E-01  8.50000000E-01
  8.50000000E-01  8.50000000E-01  8.50000000E-01  8.50000000E-01  8.50000000E-01
  8.50000000E-01  8.50000000E-01  8.50000000E-01  8.50000000E-01  8.50000000E-01
  8.50000000E-01  8.50000000E-01  8.50000000E-01  8.50000000E-01  8.50000000E-01
  8.50000000E-01  8.50000000E-01  8.50000000E-01  8.50000000E-01  8.50000000E-01
  8.50000000E-01  8.50000000E-01  8.50000000E-01  8.50000000E-01  8.50000000E-01
  8.50000000E-01  8.50000000E-01  8.50000000E-01  8.50000000E-01  8.50000000E-01
  8.50000000E-01  8.50000000E-01  8.50000000E-01  8.50000000E-01  8.50000000E-01
  8.50000000E-01  8.50000000E-01  8.50000000E-01  8.50000000E-01  8.50000000E-01
  8.50000000E-01  8.50000000E-01  8.50000000E-01  8.50000000E-01  8.50000000E-01
  8.50000000E-01  8.50000000E-01  8.50000000E-01  8.50000000E-01  8.50000000E-01
  8.50000000E-01  8.50000000E-01  8.50000000E-01  8.50000000E-01  8.50000000E-01
  8.50000000E-01  8.50000000E-01  8.50000000E-01  8.50000000E-01  8.50000000E-01
  8.50000000E-01  8.50000000E-01  8.50000000E-01  8.50000000E-01  8.50000000E-01
  8.50000000E-01  8.50000000E-01  8.50000000E-01  8.50000000E-01  8.50000000E-01
  8.50000000E-01  8.50000000E-01  8.50000000E-01  8.50000000E-01  8.50000000E-01
  8.50000000E-01  8.50000000E-01  8.50000000E-01  8.50000000E-01  8.50000000E-01
  8.50000000E-01  8.50000000E-01  8.50000000E-01  8.50000000E-01  8.50000000E-01
  8.50000000E-01  8.50000000E-01  8.50000000E-01  8.50000000E-01  8.50000000E-01
  8.50000000E-01  8.50000000E-01  8.50000000E-01  8.50000000E-01  8.50000000E-01
  8.50000000E-01  8.50000000E-01  8.50000000E-01  8.50000000E-01  8.50000000E-01
  8.50000000E-01  8.50000000E-01  8.50000000E-01  8.50000000E-01  8.50000000E-01
  8.50000000E-01  8.50000000E-01  8.50000000E-01  8.50000000E-01  8.50000000E-01
  8.50000000E-01  8.50000000E-01  8.50000000E-01  8.50000000E-01  8.50000000E-01
  8.50000000E-01  8.50000000E-01  8.50000000E-01  8.50000000E-01  8.50000000E-01
  8.50000000E-01  8.50000000E-01  8.50000000E-01  8.50000000E-01  8.50000000E-01
  8.50000000E-01  8.50000000E-01  8.50000000E-01  8.50000000E-01  8.50000000E-01
  8.50000000E-01  8.50000000E-01  8.50000000E-01  8.50000000E-01  8.50000000E-01
  8.50000000E-01  8.50000000E-01  8.50000000E-01  8.50000000E-01  8.50000000E-01
  8.50000000E-01  8.50000000E-01  8.50000000E-01  8.50000000E-01  8.50000000E-01
  8.50000000E-01  8.50000000E-01  8.50000000E-01  8.50000000E-01  8.50000000E-01
  8.50000000E-01  8.50000000E-01  8.50000000E-01  8.50000000E-01  8.50000000E-01
  8.50000000E-01  8.50000000E-01  8.50000000E-01  8.50000000E-01  8.50000000E-01
  8.50000000E-01  8.50000000E-01  8.50000000E-01  8.50000000E-01  8.50000000E-01
  8.50000000E-01  8.50000000E-01  8.50000000E-01  8.50000000E-01  8.50000000E-01
  8.50000000E-01  8.50000000E-01  8.50000000E-01  8.50000000E-01  8.50000000E-01
  8.50000000E-01  8.50000000E-01  8.50000000E-01  8.50000000E-01  8.50000000E-01
  8.50000000E-01  8.50000000E-01  8.50000000E-01  8.50000000E-01  8.50000000E-01
  8.50000000E-01  8.50000000E-01  8.50000000E-01  8.50000000E-01  8.50000000E-01
  8.50000000E-01  8.50000000E-01  8.50000000E-01  8.50000000E-01  8.50000000E-01
  8.50000000E-01  8.50000000E-01  8.50000000E-01  8.50000000E-01  8.50000000E-01
  8.50000000E-01  8.50000000E-01  8.50000000E-01  8.50000000E-01  8.50000000E-01
  8.50000000E-01  8.50000000E-01  8.50000000E-01  8.50000000E-01  8.50000000E-01
  8.50000000E-01  8.50000000E-01  8.50000000E-01  8.50000000E-01  8.50000000E-01
  8.50000000E-01  8.50000000E-01  8.50000000E-01  8.50000000E-01  8.50000000E-01
  8.50000000E-01  8.50000000E-01  8.50000000E-01  8.50000000E-01  8.50000000E-01
  8.50000000E-01  8.50000000E-01  8.50000000E-01  8.50000000E-01  8.50000000E-01
  8.50000000E-01  8.50000000E-01  8.50000000E-01  8.50000000E-01  8.50000000E-01
  8.50000000E-01  8.50000000E-01  8.50000000E-01  8.50000000E-01  8.50000000E-01
  8.50000000E-01  8.50000000E-01  8.50000000E-01  8.50000000E-01  8.50000000E-01
  8.50000000E-01  8.50000000E-01  8.50000000E-01  8.50000000E-01  8.50000000E-01
  8.50000000E-01  8.50000000E-01  8.50000000E-01  8.50000000E-01  8.50000000E-01
  8.50000000E-01  8.50000000E-01  8.50000000E-01  8.50000000E-01  8.50000000E-01
  8.50000000E-01  8.50000000E-01  8.50000000E-01  8.50000000E-01  8.50000000E-01
  8.50000000E-01  8.50000000E-01  8.50000000E-01  8.50000000E-01  8.50000000E-01
  8.50000000E-01  8.50000000E-01  8.50000000E-01  8.50000000E-01  8.50000000E-01
  8.50000000E-01  8.50000000E-01  8.50000000E-01  8.50000000E-01  8.50000000E-01
  8.50000000E-01  8.50000000E-01  8.50000000E-01  8.50000000E-01  8.50000000E-01
  8.50000000E-01  8.50000000E-01  8.50000000E-01  8.50000000E-01  8.50000000E-01
  8.50000000E-01  8.50000000E-01  8.50000000E-01  8.50000000E-01  8.50000000E-01
  8.50000000E-01  8.50000000E-01  8.50000000E-01  8.50000000E-01  8.50000000E-01
  8.50000000E-01  8.50000000E-01  8.50000000E-01  8.50000000E-01  8.50000000E-01
  8.50000000E-01  8.50000000E-01  8.50000000E-01  8.50000000E-01  8.50000000E-01
  8.50000000E-01  8.50000000E-01  8.50000000E-01  8.50000000E-01  8.50000000E-01
  8.50000000E-01  8.50000000E-01  8.50000000E-01  8.50000000E-01  8.50000000E-01
  8.50000000E-01  8.50000000E-01  8.50000000E-01  8.50000000E-01  8.50000000E-01
  8.50000000E-01  8.50000000E-01  8.50000000E-01  8.50000000E-01  8.50000000E-01
  8.50000000E-01  8.50000000E-01  8.50000000E-01  8.50000000E-01  8.50000000E-01
  8.50000000E-01  8.50000000E-01  8.50000000E-01  8.50000000E-01  8.50000000E-01
  8.50000000E-01  8.50000000E-01  8.50000000E-01  8.50000000E-01  8.50000000E-01
  8.50000000E-01  8.50000000E-01  8.50000000E-01  8.50000000E-01  8.50000000E-01
  8.50000000E-01  8.50000000E-01  8.50000000E-01  8.50000000E-01  8.50000000E-01
  8.50000000E-01  8.50000000E-01  8.50000000E-01  8.50000000E-01  8.50000000E-01
  8.50000000E-01  8.50000000E-01  8.50000000E-01  8.50000000E-01  8.50000000E-01
  8.50000000E-01  8.50000000E-01  8.50000000E-01  8.50000000E-01  8.50000000E-01
  8.50000000E-01  8.50000000E-01  8.50000000E-01  8.50000000E-01  8.50000000E-01
  8.50000000E-01  8.50000000E-01  8.50000000E-01  8.50000000E-01  8.50000000E-01
  8.50000000E-01  8.50000000E-01  8.50000000E-01  8.50000000E-01  8.50000000E-01
  8.50000000E-01  8.50000000E-01  8.50000000E-01  8.50000000E-01  8.50000000E-01
  8.50000000E-01  8.50000000E-01  8.50000000E-01  8.50000000E-01  8.50000000E-01
  8.50000000E-01  8.50000000E-01  8.50000000E-01  8.50000000E-01  8.50000000E-01
  8.50000000E-01  8.50000000E-01  8.50000000E-01  8.50000000E-01  8.50000000E-01
  8.50000000E-01  8.50000000E-01  8.50000000E-01  8.50000000E-01  8.50000000E-01
  8.50000000E-01  8.50000000E-01  8.50000000E-01  8.50000000E-01  8.50000000E-01
  8.50000000E-01  8.50000000E-01  8.50000000E-01  8.50000000E-01  8.50000000E-01
  8.50000000E-01  8.50000000E-01  8.50000000E-01  8.50000000E-01  8.50000000E-01
  8.50000000E-01  8.50000000E-01  8.50000000E-01  8.50000000E-01  8.50000000E-01
  8.50000000E-01  8.50000000E-01  8.50000000E-01  8.50000000E-01  8.50000000E-01
  8.50000000E-01  8.50000000E-01  8.50000000E-01  8.50000000E-01  8.50000000E-01
  8.50000000E-01  8.50000000E-01  8.50000000E-01  8.50000000E-01  8.50000000E-01
  8.50000000E-01  8.50000000E-01  8.50000000E-01  8.50000000E-01  8.50000000E-01
  8.50000000E-01  8.50000000E-01  8.50000000E-01  8.50000000E-01  8.50000000E-01
  8.50000000E-01  8.50000000E-01  8.50000000E-01  8.50000000E-01  8.50000000E-01
  8.50000000E-01  8.50000000E-01  8.50000000E-01  8.50000000E-01  8.50000000E-01
  8.50000000E-01  8.50000000E-01  8.50000000E-01  8.50000000E-01  8.50000000E-01
  8.50000000E-01  8.50000000E-01  8.50000000E-01  8.50000000E-01  8.50000000E-01
  8.50000000E-01  8.50000000E-01  8.50000000E-01  8.50000000E-01  8.50000000E-01
  8.50000000E-01  8.50000000E-01  8.50000000E-01  8.50000000E-01  8.50000000E-01
  8.50000000E-01  8.50000000E-01  8.50000000E-01  8.50000000E-01  8.50000000E-01
  8.50000000E-01  8.50000000E-01  8.50000000E-01  8.50000000E-01  8.50000000E-01
  8.50000000E-01  8.50000000E-01  8.50000000E-01  8.50000000E-01  8.50000000E-01
  8.50000000E-01  8.50000000E-01  8.50000000E-01  8.50000000E-01  8.50000000E-01
  8.50000000E-01  8.50000000E-01  8.50000000E-01  8.50000000E-01  8.50000000E-01
  8.50000000E-01  8.50000000E-01  8.50000000E-01  8.50000000E-01  8.50000000E-01
  8.50000000E-01  8.50000000E-01  8.50000000E-01  8.50000000E-01  8.50000000E-01
  8.50000000E-01  8.50000000E-01  8.50000000E-01  8.50000000E-01  8.50000000E-01
  8.50000000E-01  8.50000000E-01  8.50000000E-01  8.50000000E-01  8.50000000E-01
  8.50000000E-01  8.50000000E-01  8.50000000E-01  8.50000000E-01  8.50000000E-01
  8.50000000E-01  8.50000000E-01  8.50000000E-01  8.50000000E-01  8.50000000E-01
  8.50000000E-01  8.50000000E-01  8.50000000E-01  8.50000000E-01  8.50000000E-01
  8.50000000E-01  8.50000000E-01  8.50000000E-01  8.50000000E-01  8.50000000E-01
  8.50000000E-01  8.50000000E-01  8.50000000E-01  8.50000000E-01  8.50000000E-01
  8.50000000E-01  8.50000000E-01  8.50000000E-01  8.50000000E-01  8.50000000E-01
  8.50000000E-01  8.50000000E-01  8.50000000E-01  8.50000000E-01  8.50000000E-01
  8.50000000E-01  8.50000000E-01  8.50000000E-01  8.50000000E-01  8.50000000E-01
  8.50000000E-01  8.50000000E-01  8.50000000E-01  8.50000000E-01  8.50000000E-01
  8.50000000E-01  8.50000000E-01  8.50000000E-01  8.50000000E-01  8.50000000E-01
  8.50000000E-01  8.50000000E-01  8.50000000E-01  8.50000000E-01  8.50000000E-01
  8.50000000E-01  8.50000000E-01  8.50000000E-01  8.50000000E-01  8.50000000E-01
  8.50000000E-01  8.50000000E-01  8.50000000E-01  8.50000000E-01  8.50000000E-01
  8.50000000E-01  8.50000000E-01  8.50000000E-01  8.50000000E-01  8.50000000E-01
  8.50000000E-01  8.50000000E-01  8.50000000E-01  8.50000000E-01  8.50000000E-01
  8.50000000E-01  8.50000000E-01  8.50000000E-01  8.50000000E-01  8.50000000E-01
  8.50000000E-01  8.50000000E-01  8.50000000E-01  8.50000000E-01  8.50000000E-01
  8.50000000E-01  8.50000000E-01  8.50000000E-01  8.50000000E-01  8.50000000E-01
  8.50000000E-01  8.50000000E-01  8.50000000E-01  8.50000000E-01  8.50000000E-01
  8.50000000E-01  8.50000000E-01  8.50000000E-01  8.50000000E-01  8.50000000E-01
  8.50000000E-01  8.50000000E-01  8.50000000E-01  8.50000000E-01  8.50000000E-01
  8.50000000E-01  8.50000000E-01  8.50000000E-01  8.50000000E-01  8.50000000E-01
  8.50000000E-01  8.50000000E-01  8.50000000E-01  8.50000000E-01  8.50000000E-01
  8.50000000E-01  8.50000000E-01  8.50000000E-01  8.50000000E-01  8.50000000E-01
  8.50000000E-01  8.50000000E-01  8.50000000E-01  8.50000000E-01  8.50000000E-01
  8.50000000E-01  8.50000000E-01  8.50000000E-01  8.50000000E-01  8.50000000E-01
  8.50000000E-01  8.50000000E-01  8.50000000E-01  8.50000000E-01  8.50000000E-01
  8.50000000E-01  8.50000000E-01  8.50000000E-01  8.50000000E-01  8.50000000E-01
  8.50000000E-01  8.50000000E-01  8.50000000E-01  8.50000000E-01  8.50000000E-01
  8.50000000E-01  8.50000000E-01  8.50000000E-01  8.50000000E-01  8.50000000E-01
  8.50000000E-01  8.50000000E-01  8.50000000E-01  8.50000000E-01  8.50000000E-01
  8.50000000E-01  8.50000000E-01  8.50000000E-01  8.50000000E-01  8.50000000E-01
  8.50000000E-01  8.50000000E-01  8.50000000E-01  8.50000000E-01  8.50000000E-01
  8.50000000E-01  8.50000000E-01  8.50000000E-01  8.50000000E-01  8.50000000E-01
  8.50000000E-01  8.50000000E-01  8.50000000E-01  8.50000000E-01  8.50000000E-01
  8.50000000E-01  8.50000000E-01  8.50000000E-01  8.50000000E-01  8.50000000E-01
  8.50000000E-01  8.50000000E-01  8.50000000E-01  8.50000000E-01  8.50000000E-01
  8.50000000E-01  8.50000000E-01  8.50000000E-01  8.50000000E-01  8.50000000E-01
  8.50000000E-01  8.50000000E-01  8.50000000E-01  8.50000000E-01  8.50000000E-01
  8.50000000E-01  8.50000000E-01  8.50000000E-01  8.50000000E-01  8.50000000E-01
  8.50000000E-01  8.50000000E-01  8.50000000E-01  8.50000000E-01  8.50000000E-01
  8.50000000E-01  8.50000000E-01  8.50000000E-01  8.50000000E-01  8.50000000E-01
  8.50000000E-01  8.50000000E-01  8.50000000E-01  8.50000000E-01  8.50000000E-01
  8.50000000E-01  8.50000000E-01  8.50000000E-01  8.50000000E-01  8.50000000E-01
  8.50000000E-01  8.50000000E-01  8.50000000E-01  8.50000000E-01  8.50000000E-01
  8.50000000E-01  8.50000000E-01  8.50000000E-01  8.50000000E-01  8.50000000E-01
  8.50000000E-01  8.50000000E-01  8.50000000E-01  8.50000000E-01  8.50000000E-01
  8.50000000E-01  8.50000000E-01  8.50000000E-01  8.50000000E-01  8.50000000E-01
  8.50000000E-01  8.50000000E-01  8.50000000E-01  8.50000000E-01  8.50000000E-01
  8.50000000E-01  8.50000000E-01  8.50000000E-01  8.50000000E-01  8.50000000E-01
  8.50000000E-01  8.50000000E-01  8.50000000E-01  8.50000000E-01  8.50000000E-01
  8.50000000E-01  8.50000000E-01  8.50000000E-01  8.50000000E-01  8.50000000E-01
  8.50000000E-01  8.50000000E-01  8.50000000E-01  8.50000000E-01  8.50000000E-01
  8.50000000E-01  8.50000000E-01  8.50000000E-01  8.50000000E-01  8.50000000E-01
  8.50000000E-01  8.50000000E-01  8.50000000E-01  8.50000000E-01  8.50000000E-01
  8.50000000E-01  8.50000000E-01  8.50000000E-01  8.50000000E-01  8.50000000E-01
  8.50000000E-01  8.50000000E-01  8.50000000E-01  8.50000000E-01  8.50000000E-01
  8.50000000E-01  8.50000000E-01  8.50000000E-01  8.50000000E-01  8.50000000E-01
  8.50000000E-01  8.50000000E-01  8.50000000E-01  8.50000000E-01  8.50000000E-01
  8.50000000E-01  8.50000000E-01  8.50000000E-01  8.50000000E-01  8.50000000E-01
  8.50000000E-01  8.50000000E-01  8.50000000E-01  8.50000000E-01  8.50000000E-01
  8.50000000E-01  8.50000000E-01  8.50000000E-01  8.50000000E-01  8.50000000E-01
  8.50000000E-01  8.50000000E-01  8.50000000E-01  8.50000000E-01  8.50000000E-01
  8.50000000E-01  8.50000000E-01  8.50000000E-01  8.50000000E-01  8.50000000E-01
  8.50000000E-01  8.50000000E-01  8.50000000E-01  8.50000000E-01  8.50000000E-01
  8.50000000E-01  8.50000000E-01  8.50000000E-01  8.50000000E-01  8.50000000E-01
  8.50000000E-01  8.50000000E-01  8.50000000E-01  8.50000000E-01  8.50000000E-01
  8.50000000E-01  8.50000000E-01  8.50000000E-01  8.50000000E-01  8.50000000E-01
  8.50000000E-01  8.50000000E-01  8.50000000E-01  8.50000000E-01  8.50000000E-01
  8.50000000E-01  8.50000000E-01  8.50000000E-01  8.50000000E-01  8.50000000E-01
  8.50000000E-01  8.50000000E-01  8.50000000E-01  8.50000000E-01  8.50000000E-01
  8.50000000E-01  8.50000000E-01  8.50000000E-01  8.50000000E-01  8.50000000E-01
  8.50000000E-01  8.50000000E-01  8.50000000E-01  8.50000000E-01  8.50000000E-01
  8.50000000E-01  8.50000000E-01  8.50000000E-01  8.50000000E-01  8.50000000E-01
  8.50000000E-01  8.50000000E-01  8.50000000E-01  8.50000000E-01  8.50000000E-01
  8.50000000E-01  8.50000000E-01  8.50000000E-01  8.50000000E-01  8.50000000E-01
  8.50000000E-01  8.50000000E-01  8.50000000E-01  8.50000000E-01  8.50000000E-01
  8.50000000E-01  8.50000000E-01  8.50000000E-01  8.50000000E-01  8.50000000E-01
  8.50000000E-01  8.50000000E-01  8.50000000E-01  8.50000000E-01  8.50000000E-01
  8.50000000E-01  8.50000000E-01  8.50000000E-01  8.50000000E-01  8.50000000E-01
  8.50000000E-01  8.50000000E-01  8.50000000E-01  8.50000000E-01  8.50000000E-01
  8.50000000E-01  8.50000000E-01  8.50000000E-01  8.50000000E-01  8.50000000E-01
  8.50000000E-01  8.50000000E-01  8.50000000E-01  8.50000000E-01  8.50000000E-01
  8.50000000E-01  8.50000000E-01  8.50000000E-01  8.50000000E-01  8.50000000E-01
  8.50000000E-01  8.50000000E-01  8.50000000E-01  8.50000000E-01  8.50000000E-01
  8.50000000E-01  8.50000000E-01  8.50000000E-01  8.50000000E-01  8.50000000E-01
  8.50000000E-01  8.50000000E-01  8.50000000E-01  8.50000000E-01  8.50000000E-01
  8.50000000E-01  8.50000000E-01  8.50000000E-01  8.50000000E-01  8.50000000E-01
  8.50000000E-01  8.50000000E-01  8.50000000E-01  8.50000000E-01  8.50000000E-01
  8.50000000E-01  8.50000000E-01  8.50000000E-01  8.50000000E-01  8.50000000E-01
  8.50000000E-01  8.50000000E-01  8.50000000E-01  8.50000000E-01  8.50000000E-01
  8.50000000E-01  8.50000000E-01  8.50000000E-01  8.50000000E-01  8.50000000E-01
  8.50000000E-01  8.50000000E-01  8.50000000E-01  8.50000000E-01  8.50000000E-01
  8.50000000E-01  8.50000000E-01  8.50000000E-01  8.50000000E-01  8.50000000E-01
  8.50000000E-01  8.50000000E-01  8.50000000E-01  8.50000000E-01  8.50000000E-01
  8.50000000E-01  8.50000000E-01  8.50000000E-01  8.50000000E-01  8.50000000E-01
  8.50000000E-01  8.50000000E-01  8.50000000E-01  8.50000000E-01  8.50000000E-01
  8.50000000E-01  8.50000000E-01  8.50000000E-01  8.50000000E-01  8.50000000E-01
  8.50000000E-01  8.50000000E-01  8.50000000E-01  8.50000000E-01  8.50000000E-01
  8.50000000E-01  8.50000000E-01  8.50000000E-01  8.50000000E-01  8.50000000E-01
  8.50000000E-01  8.50000000E-01  8.50000000E-01  8.50000000E-01  8.50000000E-01
  8.50000000E-01  8.50000000E-01  8.50000000E-01  8.50000000E-01  8.50000000E-01
  8.50000000E-01  8.50000000E-01  8.50000000E-01  8.50000000E-01  8.50000000E-01
  8.50000000E-01  8.50000000E-01  8.50000000E-01  8.50000000E-01  8.50000000E-01
  8.50000000E-01  8.50000000E-01  8.50000000E-01  8.50000000E-01  8.50000000E-01
  8.50000000E-01  8.50000000E-01  8.50000000E-01  8.50000000E-01  8.50000000E-01
  8.50000000E-01  8.50000000E-01  8.50000000E-01  8.50000000E-01  8.50000000E-01
  8.50000000E-01  8.50000000E-01  8.50000000E-01  8.50000000E-01  8.50000000E-01
  8.50000000E-01  8.50000000E-01  8.50000000E-01  8.50000000E-01  8.50000000E-01
  8.50000000E-01  8.50000000E-01  8.50000000E-01  8.50000000E-01  8.50000000E-01
  8.50000000E-01  8.50000000E-01  8.50000000E-01  8.50000000E-01  8.50000000E-01
  8.50000000E-01  8.50000000E-01  8.50000000E-01  8.50000000E-01  8.50000000E-01
  8.50000000E-01  8.50000000E-01  8.50000000E-01  8.50000000E-01  8.50000000E-01
  8.50000000E-01  8.50000000E-01  8.50000000E-01  8.50000000E-01  8.50000000E-01
  8.50000000E-01  8.50000000E-01  8.50000000E-01  8.50000000E-01  8.50000000E-01
  8.50000000E-01  8.50000000E-01  8.50000000E-01  8.50000000E-01  8.50000000E-01
  8.50000000E-01  8.50000000E-01  8.50000000E-01  8.50000000E-01  8.50000000E-01
  8.50000000E-01  8.50000000E-01  8.50000000E-01  8.50000000E-01  8.50000000E-01
  8.50000000E-01  8.50000000E-01  8.50000000E-01  8.50000000E-01  8.50000000E-01
  8.50000000E-01  8.50000000E-01  8.50000000E-01  8.50000000E-01  8.50000000E-01
  8.50000000E-01  8.50000000E-01  8.50000000E-01  8.50000000E-01  8.50000000E-01
  8.50000000E-01  8.50000000E-01  8.50000000E-01  8.50000000E-01  8.50000000E-01
  8.50000000E-01  8.50000000E-01  8.50000000E-01  8.50000000E-01  8.50000000E-01
  8.50000000E-01  8.50000000E-01  8.50000000E-01  8.50000000E-01  8.50000000E-01
  8.50000000E-01  8.50000000E-01  8.50000000E-01  8.50000000E-01  8.50000000E-01
  8.50000000E-01  8.50000000E-01  8.50000000E-01  8.50000000E-01  8.50000000E-01
  8.50000000E-01  8.50000000E-01  8.50000000E-01  8.50000000E-01  8.50000000E-01
  8.50000000E-01  8.50000000E-01  8.50000000E-01  8.50000000E-01  8.50000000E-01
  8.50000000E-01  8.50000000E-01  8.50000000E-01  8.50000000E-01  8.50000000E-01
  8.50000000E-01  8.50000000E-01  8.50000000E-01  8.50000000E-01  8.50000000E-01
  8.50000000E-01  8.50000000E-01  8.50000000E-01  8.50000000E-01  8.50000000E-01
  8.50000000E-01  8.50000000E-01  8.50000000E-01  8.50000000E-01  8.50000000E-01
  8.50000000E-01  8.50000000E-01  8.50000000E-01  8.50000000E-01  8.50000000E-01
  8.50000000E-01  8.50000000E-01  8.50000000E-01  8.50000000E-01  8.50000000E-01
  8.50000000E-01  8.50000000E-01  8.50000000E-01  8.50000000E-01  8.50000000E-01
  8.50000000E-01  8.50000000E-01  8.50000000E-01  8.50000000E-01  8.50000000E-01
  8.50000000E-01  8.50000000E-01  8.50000000E-01  8.50000000E-01  8.50000000E-01
  8.50000000E-01  8.50000000E-01  8.50000000E-01  8.50000000E-01  8.50000000E-01
  8.50000000E-01  8.50000000E-01  8.50000000E-01  8.50000000E-01  8.50000000E-01
  8.50000000E-01  8.50000000E-01  8.50000000E-01  8.50000000E-01  8.50000000E-01
  8.50000000E-01  8.50000000E-01  8.50000000E-01  8.50000000E-01  8.50000000E-01
  8.50000000E-01  8.50000000E-01  8.50000000E-01  8.50000000E-01  8.50000000E-01
  8.50000000E-01  8.50000000E-01  8.50000000E-01  8.50000000E-01  8.50000000E-01
  8.50000000E-01  8.50000000E-01  8.50000000E-01  8.50000000E-01  8.50000000E-01
  8.50000000E-01  8.50000000E-01  8.50000000E-01  8.50000000E-01  8.50000000E-01
  8.50000000E-01  8.50000000E-01  8.50000000E-01  8.50000000E-01  8.50000000E-01
  8.50000000E-01  8.50000000E-01  8.50000000E-01  8.50000000E-01  8.50000000E-01
  8.50000000E-01  8.50000000E-01  8.50000000E-01  8.50000000E-01  8.50000000E-01
  8.50000000E-01  8.50000000E-01  8.50000000E-01  8.50000000E-01  8.50000000E-01
  8.50000000E-01  8.50000000E-01  8.50000000E-01  8.50000000E-01  8.50000000E-01
  8.50000000E-01  8.50000000E-01  8.50000000E-01  8.50000000E-01  8.50000000E-01
  8.50000000E-01  8.50000000E-01  8.50000000E-01  8.50000000E-01  8.50000000E-01
  8.50000000E-01  8.50000000E-01  8.50000000E-01  8.50000000E-01  8.50000000E-01
  8.50000000E-01  8.50000000E-01  8.50000000E-01  8.50000000E-01  8.50000000E-01
  8.50000000E-01  8.50000000E-01  8.50000000E-01  8.50000000E-01  8.50000000E-01
  8.50000000E-01  8.50000000E-01  8.50000000E-01  8.50000000E-01  8.50000000E-01
  8.50000000E-01  8.50000000E-01  8.50000000E-01  8.50000000E-01  8.50000000E-01
  8.50000000E-01  8.50000000E-01  8.50000000E-01  8.50000000E-01  8.50000000E-01
  8.50000000E-01  8.50000000E-01  8.50000000E-01  8.50000000E-01  8.50000000E-01
  8.50000000E-01  8.50000000E-01  8.50000000E-01  8.50000000E-01  8.50000000E-01
  8.50000000E-01  8.50000000E-01  8.50000000E-01  8.50000000E-01  8.50000000E-01
  8.50000000E-01  8.50000000E-01  8.50000000E-01  8.50000000E-01  8.50000000E-01
  8.50000000E-01  8.50000000E-01  8.50000000E-01  8.50000000E-01  8.50000000E-01
  8.50000000E-01  8.50000000E-01  8.50000000E-01  8.50000000E-01  8.50000000E-01
  8.50000000E-01  8.50000000E-01  8.50000000E-01  8.50000000E-01  8.50000000E-01
  8.50000000E-01  8.50000000E-01  8.50000000E-01  8.50000000E-01  8.50000000E-01
  8.50000000E-01  8.50000000E-01  8.50000000E-01  8.50000000E-01  8.50000000E-01
  8.50000000E-01  8.50000000E-01  8.50000000E-01  8.50000000E-01  8.50000000E-01
  8.50000000E-01  8.50000000E-01  8.50000000E-01  8.50000000E-01  8.50000000E-01
  8.50000000E-01  8.50000000E-01  8.50000000E-01  8.50000000E-01  8.50000000E-01
  8.50000000E-01  8.50000000E-01  8.50000000E-01  8.50000000E-01  8.50000000E-01
  8.50000000E-01  8.50000000E-01  8.50000000E-01  8.50000000E-01  8.50000000E-01
  8.50000000E-01  8.50000000E-01  8.50000000E-01  8.50000000E-01  8.50000000E-01
  8.50000000E-01  8.50000000E-01  8.50000000E-01  8.50000000E-01  8.50000000E-01
  8.50000000E-01  8.50000000E-01  8.50000000E-01  8.50000000E-01  8.50000000E-01
  8.50000000E-01  8.50000000E-01  8.50000000E-01  8.50000000E-01  8.50000000E-01
  8.50000000E-01  8.50000000E-01  8.50000000E-01  8.50000000E-01  8.50000000E-01
  8.50000000E-01  8.50000000E-01  8.50000000E-01  8.50000000E-01  8.50000000E-01
  8.50000000E-01  8.50000000E-01  8.50000000E-01  8.50000000E-01  8.50000000E-01
  8.50000000E-01  8.50000000E-01  8.50000000E-01  8.50000000E-01  8.50000000E-01
  8.50000000E-01  8.50000000E-01  8.50000000E-01  8.50000000E-01  8.50000000E-01
  8.50000000E-01  8.50000000E-01  8.50000000E-01  8.50000000E-01  8.50000000E-01
  8.50000000E-01  8.50000000E-01  8.50000000E-01  8.50000000E-01  8.50000000E-01
  8.50000000E-01  8.50000000E-01  8.50000000E-01  8.50000000E-01  8.50000000E-01
  8.50000000E-01  8.50000000E-01  8.50000000E-01  8.50000000E-01  8.50000000E-01
  8.50000000E-01  8.50000000E-01  8.50000000E-01  8.50000000E-01  8.50000000E-01
  8.50000000E-01  8.50000000E-01  8.50000000E-01  8.50000000E-01  8.50000000E-01
  8.50000000E-01  8.50000000E-01  8.50000000E-01  8.50000000E-01  8.50000000E-01
  8.50000000E-01  8.50000000E-01  8.50000000E-01  8.50000000E-01  8.50000000E-01
  8.50000000E-01  8.50000000E-01  8.50000000E-01  8.50000000E-01  8.50000000E-01
  8.50000000E-01  8.50000000E-01  8.50000000E-01  8.50000000E-01  8.50000000E-01
  8.50000000E-01  8.50000000E-01  8.50000000E-01  8.50000000E-01  8.50000000E-01
  8.50000000E-01  8.50000000E-01  8.50000000E-01  8.50000000E-01  8.50000000E-01
  8.50000000E-01  8.50000000E-01  8.50000000E-01  8.50000000E-01  8.50000000E-01
  8.50000000E-01  8.50000000E-01  8.50000000E-01  8.50000000E-01  8.50000000E-01
  8.50000000E-01  8.50000000E-01  8.50000000E-01  8.50000000E-01  8.50000000E-01
  8.50000000E-01  8.50000000E-01  8.50000000E-01  8.50000000E-01  8.50000000E-01
  8.50000000E-01  8.50000000E-01  8.50000000E-01  8.50000000E-01  8.50000000E-01
  8.50000000E-01  8.50000000E-01  8.50000000E-01  8.50000000E-01  8.50000000E-01
  8.50000000E-01  8.50000000E-01  8.50000000E-01  8.50000000E-01  8.50000000E-01
  8.50000000E-01  8.50000000E-01  8.50000000E-01  8.50000000E-01  8.50000000E-01
  8.50000000E-01  8.50000000E-01  8.50000000E-01  8.50000000E-01  8.50000000E-01
  8.50000000E-01  8.50000000E-01  8.50000000E-01  8.50000000E-01  8.50000000E-01
  8.50000000E-01  8.50000000E-01  8.50000000E-01  8.50000000E-01  8.50000000E-01
  8.50000000E-01  8.50000000E-01  8.50000000E-01  8.50000000E-01  8.50000000E-01
  8.50000000E-01  8.50000000E-01  8.50000000E-01  8.50000000E-01  8.50000000E-01
  8.50000000E-01  8.50000000E-01  8.50000000E-01  8.50000000E-01  8.50000000E-01
  8.50000000E-01  8.50000000E-01  8.50000000E-01  8.50000000E-01  8.50000000E-01
  8.50000000E-01  8.50000000E-01  8.50000000E-01  8.50000000E-01  8.50000000E-01
  8.50000000E-01  8.50000000E-01  8.50000000E-01  8.50000000E-01  8.50000000E-01
  8.50000000E-01  8.50000000E-01  8.50000000E-01  8.50000000E-01  8.50000000E-01
  8.50000000E-01  8.50000000E-01  8.50000000E-01  8.50000000E-01  8.50000000E-01
  8.50000000E-01  8.50000000E-01  8.50000000E-01  8.50000000E-01  8.50000000E-01
  8.50000000E-01  8.50000000E-01  8.50000000E-01  8.50000000E-01  8.50000000E-01
  8.50000000E-01  8.50000000E-01  8.50000000E-01  8.50000000E-01  8.50000000E-01
  8.50000000E-01  8.50000000E-01  8.50000000E-01  8.50000000E-01  8.50000000E-01
  8.50000000E-01  8.50000000E-01  8.50000000E-01  8.50000000E-01  8.50000000E-01
  8.50000000E-01  8.50000000E-01  8.50000000E-01  8.50000000E-01  8.50000000E-01
  8.50000000E-01  8.50000000E-01  8.50000000E-01  8.50000000E-01  8.50000000E-01
  8.50000000E-01  8.50000000E-01  8.50000000E-01  8.50000000E-01  8.50000000E-01
  8.50000000E-01  8.50000000E-01  8.50000000E-01  8.50000000E-01  8.50000000E-01
  8.50000000E-01  8.50000000E-01  8.50000000E-01  8.50000000E-01  8.50000000E-01
  8.50000000E-01  8.50000000E-01  8.50000000E-01  8.50000000E-01  8.50000000E-01
  8.50000000E-01  8.50000000E-01  8.50000000E-01  8.50000000E-01  8.50000000E-01
  8.50000000E-01  8.50000000E-01  8.50000000E-01  8.50000000E-01  8.50000000E-01
  8.50000000E-01  8.50000000E-01  8.50000000E-01  8.50000000E-01  8.50000000E-01
  8.50000000E-01  8.50000000E-01  8.50000000E-01  8.50000000E-01  8.50000000E-01
  8.50000000E-01  8.50000000E-01  8.50000000E-01  8.50000000E-01  8.50000000E-01
  8.50000000E-01  8.50000000E-01  8.50000000E-01  8.50000000E-01  8.50000000E-01
  8.50000000E-01  8.50000000E-01  8.50000000E-01  8.50000000E-01  8.50000000E-01
  8.50000000E-01  8.50000000E-01  8.50000000E-01  8.50000000E-01  8.50000000E-01
  8.50000000E-01  8.50000000E-01  8.50000000E-01  8.50000000E-01  8.50000000E-01
  8.50000000E-01  8.50000000E-01  8.50000000E-01  8.50000000E-01  8.50000000E-01
  8.50000000E-01  8.50000000E-01  8.50000000E-01  8.50000000E-01  8.50000000E-01
  8.50000000E-01  8.50000000E-01  8.50000000E-01  8.50000000E-01  8.50000000E-01
  8.50000000E-01  8.50000000E-01  8.50000000E-01  8.50000000E-01  8.50000000E-01
  8.50000000E-01  8.50000000E-01  8.50000000E-01  8.50000000E-01  8.50000000E-01
  8.50000000E-01  8.50000000E-01  8.50000000E-01  8.50000000E-01  8.50000000E-01
  8.50000000E-01  8.50000000E-01  8.50000000E-01  8.50000000E-01  8.50000000E-01
  8.50000000E-01  8.50000000E-01  8.50000000E-01  8.50000000E-01  8.50000000E-01
  8.50000000E-01  8.50000000E-01  8.50000000E-01  8.50000000E-01  8.50000000E-01
  8.50000000E-01  8.50000000E-01  8.50000000E-01  8.50000000E-01  8.50000000E-01
  8.50000000E-01  8.50000000E-01  8.50000000E-01  8.50000000E-01  8.50000000E-01
  8.50000000E-01  8.50000000E-01  8.50000000E-01  8.50000000E-01  8.50000000E-01
  8.50000000E-01  8.50000000E-01  8.50000000E-01  8.50000000E-01  8.50000000E-01
  8.50000000E-01  8.50000000E-01  8.50000000E-01  8.50000000E-01  8.50000000E-01
  8.50000000E-01  8.50000000E-01  8.50000000E-01  8.50000000E-01  8.50000000E-01
  8.50000000E-01  8.50000000E-01  8.50000000E-01  8.50000000E-01  8.50000000E-01
  8.50000000E-01  8.50000000E-01  8.50000000E-01  8.50000000E-01  8.50000000E-01
  8.50000000E-01  8.50000000E-01  8.50000000E-01  8.50000000E-01  8.50000000E-01
  8.50000000E-01  8.50000000E-01  8.50000000E-01  8.50000000E-01  8.50000000E-01
  8.50000000E-01  8.50000000E-01  8.50000000E-01  8.50000000E-01  8.50000000E-01
  8.50000000E-01  8.50000000E-01  8.50000000E-01  8.50000000E-01  8.50000000E-01
  8.50000000E-01  8.50000000E-01  8.50000000E-01  8.50000000E-01  8.50000000E-01
  8.50000000E-01  8.50000000E-01  8.50000000E-01  8.50000000E-01  8.50000000E-01
  8.50000000E-01  8.50000000E-01  8.50000000E-01  8.50000000E-01  8.50000000E-01
  8.50000000E-01  8.50000000E-01  8.50000000E-01  8.50000000E-01  8.50000000E-01
  8.50000000E-01  8.50000000E-01  8.50000000E-01  8.50000000E-01  8.50000000E-01
  8.50000000E-01  8.50000000E-01  8.50000000E-01  8.50000000E-01  8.50000000E-01
  8.50000000E-01  8.50000000E-01  8.50000000E-01  8.50000000E-01  8.50000000E-01
  8.50000000E-01  8.50000000E-01  8.50000000E-01  8.50000000E-01  8.50000000E-01
  8.50000000E-01  8.50000000E-01  8.50000000E-01  8.50000000E-01  8.50000000E-01
  8.50000000E-01  8.50000000E-01  8.50000000E-01  8.50000000E-01  8.50000000E-01
  8.50000000E-01  8.50000000E-01  8.50000000E-01  8.50000000E-01  8.50000000E-01
  8.50000000E-01  8.50000000E-01  8.50000000E-01  8.50000000E-01  8.50000000E-01
  8.50000000E-01  8.50000000E-01  8.50000000E-01  8.50000000E-01  8.50000000E-01
  8.50000000E-01  8.50000000E-01  8.50000000E-01  8.50000000E-01  8.50000000E-01
  8.50000000E-01  8.50000000E-01  8.50000000E-01  8.50000000E-01  8.50000000E-01
  8.50000000E-01  8.50000000E-01  8.50000000E-01  8.50000000E-01  8.50000000E-01
  8.50000000E-01  8.50000000E-01  8.50000000E-01  8.50000000E-01  8.50000000E-01
  8.50000000E-01  8.50000000E-01  8.50000000E-01  8.50000000E-01  8.50000000E-01
  8.50000000E-01  8.50000000E-01  8.50000000E-01  8.50000000E-01  8.50000000E-01
  8.50000000E-01  8.50000000E-01  8.50000000E-01  8.50000000E-01  8.50000000E-01
  8.50000000E-01  8.50000000E-01  8.50000000E-01  8.50000000E-01  8.50000000E-01
  8.50000000E-01  8.50000000E-01  8.50000000E-01  8.50000000E-01  8.50000000E-01
  8.50000000E-01  8.50000000E-01  8.50000000E-01  8.50000000E-01  8.50000000E-01
  8.50000000E-01  8.50000000E-01  8.50000000E-01  8.50000000E-01  8.50000000E-01
  8.50000000E-01  8.50000000E-01  8.50000000E-01  8.50000000E-01  8.50000000E-01
  8.50000000E-01  8.50000000E-01  8.50000000E-01  8.50000000E-01  8.50000000E-01
  8.50000000E-01  8.50000000E-01  8.50000000E-01  8.50000000E-01  8.50000000E-01
  8.50000000E-01  8.50000000E-01  8.50000000E-01  8.50000000E-01  8.50000000E-01
  8.50000000E-01  8.50000000E-01  8.50000000E-01  8.50000000E-01  8.50000000E-01
  8.50000000E-01  8.50000000E-01  8.50000000E-01  8.50000000E-01  8.50000000E-01
  8.50000000E-01  8.50000000E-01  8.50000000E-01  8.50000000E-01  8.50000000E-01
  8.50000000E-01  8.50000000E-01  8.50000000E-01  8.50000000E-01  8.50000000E-01
  8.50000000E-01  8.50000000E-01  8.50000000E-01  8.50000000E-01  8.50000000E-01
  8.50000000E-01  8.50000000E-01  8.50000000E-01  8.50000000E-01  8.50000000E-01
  8.50000000E-01  8.50000000E-01  8.50000000E-01  8.50000000E-01  8.50000000E-01
  8.50000000E-01  8.50000000E-01  8.50000000E-01  8.50000000E-01  8.50000000E-01
  8.50000000E-01  8.50000000E-01  8.50000000E-01  8.50000000E-01  8.50000000E-01
  8.50000000E-01  8.50000000E-01  8.50000000E-01  8.50000000E-01  8.50000000E-01
  8.50000000E-01  8.50000000E-01  8.50000000E-01  8.50000000E-01  8.50000000E-01
  8.50000000E-01  8.50000000E-01  8.50000000E-01  8.50000000E-01  8.50000000E-01
  8.50000000E-01  8.50000000E-01  8.50000000E-01  8.50000000E-01  8.50000000E-01
  8.50000000E-01  8.50000000E-01  8.50000000E-01  8.50000000E-01  8.50000000E-01
  8.50000000E-01  8.50000000E-01  8.50000000E-01  8.50000000E-01  8.50000000E-01
  8.50000000E-01  8.50000000E-01  8.50000000E-01  8.50000000E-01  8.50000000E-01
  8.50000000E-01  8.50000000E-01  8.50000000E-01  8.50000000E-01  8.50000000E-01
  8.50000000E-01  8.50000000E-01  8.50000000E-01  8.50000000E-01  8.50000000E-01
  8.50000000E-01  8.50000000E-01  8.50000000E-01  8.50000000E-01  8.50000000E-01
  8.50000000E-01  8.50000000E-01  8.50000000E-01  8.50000000E-01  8.50000000E-01
  8.50000000E-01  8.50000000E-01  8.50000000E-01  8.50000000E-01  8.50000000E-01
  8.50000000E-01  8.50000000E-01  8.50000000E-01  8.50000000E-01  8.50000000E-01
  8.50000000E-01  8.50000000E-01  8.50000000E-01  8.50000000E-01  8.50000000E-01
  8.50000000E-01  8.50000000E-01  8.50000000E-01  8.50000000E-01  8.50000000E-01
  8.50000000E-01  8.50000000E-01  8.50000000E-01  8.50000000E-01  8.50000000E-01
  8.50000000E-01  8.50000000E-01  8.50000000E-01  8.50000000E-01  8.50000000E-01
  8.50000000E-01  8.50000000E-01  8.50000000E-01  8.50000000E-01  8.50000000E-01
  8.50000000E-01  8.50000000E-01  8.50000000E-01  8.50000000E-01  8.50000000E-01
  8.50000000E-01  8.50000000E-01  8.50000000E-01  8.50000000E-01  8.50000000E-01
  8.50000000E-01  8.50000000E-01  8.50000000E-01  8.50000000E-01  8.50000000E-01
  8.50000000E-01  8.50000000E-01  8.50000000E-01  8.50000000E-01  8.50000000E-01
  8.50000000E-01  8.50000000E-01  8.50000000E-01  8.50000000E-01  8.50000000E-01
  8.50000000E-01  8.50000000E-01  8.50000000E-01  8.50000000E-01  8.50000000E-01
  8.50000000E-01  8.50000000E-01  8.50000000E-01  8.50000000E-01  8.50000000E-01
  8.50000000E-01  8.50000000E-01  8.50000000E-01  8.50000000E-01  8.50000000E-01
  8.50000000E-01  8.50000000E-01  8.50000000E-01  8.50000000E-01  8.50000000E-01
  8.50000000E-01  8.50000000E-01  8.50000000E-01  8.50000000E-01  8.50000000E-01
  8.50000000E-01  8.50000000E-01  8.50000000E-01  8.50000000E-01  8.50000000E-01
  8.50000000E-01  8.50000000E-01  8.50000000E-01  8.50000000E-01  8.50000000E-01
  8.50000000E-01  8.50000000E-01  8.50000000E-01  8.50000000E-01  8.50000000E-01
  8.50000000E-01  8.50000000E-01  8.50000000E-01  8.50000000E-01  8.50000000E-01
  8.50000000E-01  8.50000000E-01  8.50000000E-01  8.50000000E-01  8.50000000E-01
  8.50000000E-01  8.50000000E-01  8.50000000E-01  8.50000000E-01  8.50000000E-01
  8.50000000E-01  8.50000000E-01  8.50000000E-01  8.50000000E-01  8.50000000E-01
  8.50000000E-01  8.50000000E-01  8.50000000E-01  8.50000000E-01  8.50000000E-01
  8.50000000E-01  8.50000000E-01  8.50000000E-01  8.50000000E-01  8.50000000E-01
  8.50000000E-01  8.50000000E-01  8.50000000E-01  8.50000000E-01  8.50000000E-01
  8.50000000E-01  8.50000000E-01  8.50000000E-01  8.50000000E-01  8.50000000E-01
  8.50000000E-01  8.50000000E-01  8.50000000E-01  8.50000000E-01  8.50000000E-01
  8.50000000E-01  8.50000000E-01  8.50000000E-01  8.50000000E-01  8.50000000E-01
  8.50000000E-01  8.50000000E-01  8.50000000E-01  8.50000000E-01  8.50000000E-01
  8.50000000E-01  8.50000000E-01  8.50000000E-01  8.50000000E-01  8.50000000E-01
  8.50000000E-01  8.50000000E-01  8.50000000E-01  8.50000000E-01  8.50000000E-01
  8.50000000E-01  8.50000000E-01  8.50000000E-01  8.50000000E-01  8.50000000E-01
  8.50000000E-01  8.50000000E-01  8.50000000E-01  8.50000000E-01  8.50000000E-01
  8.50000000E-01  8.50000000E-01  8.50000000E-01  8.50000000E-01  8.50000000E-01
  8.50000000E-01  8.50000000E-01  8.50000000E-01  8.50000000E-01  8.50000000E-01
  8.50000000E-01  8.50000000E-01  8.50000000E-01  8.50000000E-01  8.50000000E-01
  8.50000000E-01  8.50000000E-01  8.50000000E-01  8.50000000E-01  8.50000000E-01
  8.50000000E-01  8.50000000E-01  8.50000000E-01  8.50000000E-01  8.50000000E-01
  8.50000000E-01  8.50000000E-01  8.50000000E-01  8.50000000E-01  8.50000000E-01
  8.50000000E-01  8.50000000E-01  8.50000000E-01  8.50000000E-01  8.50000000E-01
  8.50000000E-01  8.50000000E-01  8.50000000E-01  8.50000000E-01  8.50000000E-01
  8.50000000E-01  8.50000000E-01  8.50000000E-01  8.50000000E-01  8.50000000E-01
  8.50000000E-01  8.50000000E-01  8.50000000E-01  8.50000000E-01  8.50000000E-01
  8.50000000E-01  8.50000000E-01  8.50000000E-01  8.50000000E-01  8.50000000E-01
  8.50000000E-01  8.50000000E-01  8.50000000E-01  8.50000000E-01  8.50000000E-01
  8.50000000E-01  8.50000000E-01  8.50000000E-01  8.50000000E-01  8.50000000E-01
  8.50000000E-01  8.50000000E-01  8.50000000E-01  8.50000000E-01  8.50000000E-01
  8.50000000E-01  8.50000000E-01  8.50000000E-01  8.50000000E-01  8.50000000E-01
  8.50000000E-01  8.50000000E-01  8.50000000E-01  8.50000000E-01  8.50000000E-01
  8.50000000E-01  8.50000000E-01  8.50000000E-01  8.50000000E-01  8.50000000E-01
  8.50000000E-01  8.50000000E-01  8.50000000E-01  8.50000000E-01  8.50000000E-01
  8.50000000E-01  8.50000000E-01  8.50000000E-01  8.50000000E-01  8.50000000E-01
  8.50000000E-01  8.50000000E-01  8.50000000E-01  8.50000000E-01  8.50000000E-01
  8.50000000E-01  8.50000000E-01  8.50000000E-01  8.50000000E-01  8.50000000E-01
  8.50000000E-01  8.50000000E-01  8.50000000E-01  8.50000000E-01  8.50000000E-01
  8.50000000E-01  8.50000000E-01  8.50000000E-01  8.50000000E-01  8.50000000E-01
  8.50000000E-01  8.50000000E-01  8.50000000E-01  8.50000000E-01  8.50000000E-01
  8.50000000E-01  8.50000000E-01  8.50000000E-01  8.50000000E-01  8.50000000E-01
  8.50000000E-01  8.50000000E-01  8.50000000E-01  8.50000000E-01  8.50000000E-01
  8.50000000E-01  8.50000000E-01  8.50000000E-01  8.50000000E-01  8.50000000E-01
  8.50000000E-01  8.50000000E-01  8.50000000E-01  8.50000000E-01  8.50000000E-01
  8.50000000E-01  8.50000000E-01  8.50000000E-01  8.50000000E-01  8.50000000E-01
  8.50000000E-01  8.50000000E-01  8.50000000E-01  8.50000000E-01  8.50000000E-01
  8.50000000E-01  8.50000000E-01  8.50000000E-01  8.50000000E-01  8.50000000E-01
  8.50000000E-01  8.50000000E-01  8.50000000E-01  8.50000000E-01  8.50000000E-01
  8.50000000E-01  8.50000000E-01  8.50000000E-01  8.50000000E-01  8.50000000E-01
  8.50000000E-01  8.50000000E-01  8.50000000E-01  8.50000000E-01  8.50000000E-01
  8.50000000E-01  8.50000000E-01  8.50000000E-01  8.50000000E-01  8.50000000E-01
  8.50000000E-01  8.50000000E-01  8.50000000E-01  8.50000000E-01  8.50000000E-01
  8.50000000E-01  8.50000000E-01  8.50000000E-01  8.50000000E-01  8.50000000E-01
  8.50000000E-01  8.50000000E-01  8.50000000E-01  8.50000000E-01  8.50000000E-01
  8.50000000E-01  8.50000000E-01  8.50000000E-01  8.50000000E-01  8.50000000E-01
  8.50000000E-01  8.50000000E-01  8.50000000E-01  8.50000000E-01  8.50000000E-01
  8.50000000E-01  8.50000000E-01  8.50000000E-01  8.50000000E-01  8.50000000E-01
  8.50000000E-01  8.50000000E-01  8.50000000E-01  8.50000000E-01  8.50000000E-01
  8.50000000E-01  8.50000000E-01  8.50000000E-01  8.50000000E-01  8.50000000E-01
  8.50000000E-01  8.50000000E-01  8.50000000E-01  8.50000000E-01  8.50000000E-01
  8.50000000E-01  8.50000000E-01  8.50000000E-01  8.50000000E-01  8.50000000E-01
  8.50000000E-01  8.50000000E-01  8.50000000E-01  8.50000000E-01  8.50000000E-01
  8.50000000E-01  8.50000000E-01  8.50000000E-01  8.50000000E-01  8.50000000E-01
  8.50000000E-01  8.50000000E-01  8.50000000E-01  8.50000000E-01  8.50000000E-01
  8.50000000E-01  8.50000000E-01  8.50000000E-01  8.50000000E-01  8.50000000E-01
  8.50000000E-01  8.50000000E-01  8.50000000E-01  8.50000000E-01  8.50000000E-01
  8.50000000E-01  8.50000000E-01  8.50000000E-01  8.50000000E-01  8.50000000E-01
  8.50000000E-01  8.50000000E-01  8.50000000E-01  8.50000000E-01  8.50000000E-01
  8.50000000E-01  8.50000000E-01  8.50000000E-01  8.50000000E-01  8.50000000E-01
  8.50000000E-01  8.50000000E-01  8.50000000E-01  8.50000000E-01  8.50000000E-01
  8.50000000E-01  8.50000000E-01  8.50000000E-01  8.50000000E-01  8.50000000E-01
  8.50000000E-01  8.50000000E-01  8.50000000E-01  8.50000000E-01  8.50000000E-01
  8.50000000E-01  8.50000000E-01  8.50000000E-01  8.50000000E-01  8.50000000E-01
  8.50000000E-01  8.50000000E-01  8.50000000E-01  8.50000000E-01  8.50000000E-01
  8.50000000E-01  8.50000000E-01  8.50000000E-01  8.50000000E-01  8.50000000E-01
  8.50000000E-01  8.50000000E-01  8.50000000E-01  8.50000000E-01  8.50000000E-01
  8.50000000E-01  8.50000000E-01  8.50000000E-01  8.50000000E-01  8.50000000E-01
  8.50000000E-01  8.50000000E-01  8.50000000E-01  8.50000000E-01  8.50000000E-01
  8.50000000E-01  8.50000000E-01  8.50000000E-01  8.50000000E-01  8.50000000E-01
  8.50000000E-01  8.50000000E-01  8.50000000E-01  8.50000000E-01  8.50000000E-01
  8.50000000E-01  8.50000000E-01  8.50000000E-01  8.50000000E-01  8.50000000E-01
  8.50000000E-01  8.50000000E-01  8.50000000E-01  8.50000000E-01  8.50000000E-01
  8.50000000E-01  8.50000000E-01  8.50000000E-01  8.50000000E-01  8.50000000E-01
  8.50000000E-01  8.50000000E-01  8.50000000E-01  8.50000000E-01  8.50000000E-01
  8.50000000E-01  8.50000000E-01  8.50000000E-01  8.50000000E-01  8.50000000E-01
  8.50000000E-01  8.50000000E-01  8.50000000E-01  8.50000000E-01  8.50000000E-01
  8.50000000E-01  8.50000000E-01  8.50000000E-01  8.50000000E-01  8.50000000E-01
  8.50000000E-01  8.50000000E-01  8.50000000E-01  8.50000000E-01  8.50000000E-01
  8.50000000E-01  8.50000000E-01  8.50000000E-01  8.50000000E-01  8.50000000E-01
  8.50000000E-01  8.50000000E-01  8.50000000E-01  8.50000000E-01  8.50000000E-01
  8.50000000E-01  8.50000000E-01  8.50000000E-01  8.50000000E-01  8.50000000E-01
  8.50000000E-01  8.50000000E-01  8.50000000E-01  8.50000000E-01  8.50000000E-01
  8.50000000E-01  8.50000000E-01  8.50000000E-01  8.50000000E-01  8.50000000E-01
  8.50000000E-01  8.50000000E-01  8.50000000E-01  8.50000000E-01  8.50000000E-01
  8.50000000E-01  8.50000000E-01  8.50000000E-01  8.50000000E-01  8.50000000E-01
  8.50000000E-01  8.50000000E-01  8.50000000E-01  8.50000000E-01  8.50000000E-01
  8.50000000E-01  8.50000000E-01  8.50000000E-01  8.50000000E-01  8.50000000E-01
  8.50000000E-01  8.50000000E-01  8.50000000E-01  8.50000000E-01  8.50000000E-01
  8.50000000E-01  8.50000000E-01  8.50000000E-01  8.50000000E-01  8.50000000E-01
  8.50000000E-01  8.50000000E-01  8.50000000E-01  8.50000000E-01  8.50000000E-01
  8.50000000E-01  8.50000000E-01  8.50000000E-01  8.50000000E-01  8.50000000E-01
  8.50000000E-01  8.50000000E-01  8.50000000E-01  8.50000000E-01  8.50000000E-01
  8.50000000E-01  8.50000000E-01  8.50000000E-01  8.50000000E-01  8.50000000E-01
  8.50000000E-01  8.50000000E-01  8.50000000E-01  8.50000000E-01  8.50000000E-01
  8.50000000E-01  8.50000000E-01  8.50000000E-01  8.50000000E-01  8.50000000E-01
  8.50000000E-01  8.50000000E-01  8.50000000E-01  8.50000000E-01  8.50000000E-01
  8.50000000E-01  8.50000000E-01  8.50000000E-01  8.50000000E-01  8.50000000E-01
  8.50000000E-01  8.50000000E-01  8.50000000E-01  8.50000000E-01  8.50000000E-01
  8.50000000E-01  8.50000000E-01  8.50000000E-01  8.50000000E-01  8.50000000E-01
  8.50000000E-01  8.50000000E-01  8.50000000E-01  8.50000000E-01  8.50000000E-01
  8.50000000E-01  8.50000000E-01  8.50000000E-01  8.50000000E-01  8.50000000E-01
  8.50000000E-01  8.50000000E-01  8.50000000E-01  8.50000000E-01  8.50000000E-01
  8.50000000E-01  8.50000000E-01  8.50000000E-01  8.50000000E-01  8.50000000E-01
  8.50000000E-01  8.50000000E-01  8.50000000E-01  8.50000000E-01  8.50000000E-01
  8.50000000E-01  8.50000000E-01  8.50000000E-01  8.50000000E-01  8.50000000E-01
  8.50000000E-01  8.50000000E-01  8.50000000E-01  8.50000000E-01  8.50000000E-01
  8.50000000E-01  8.50000000E-01  8.50000000E-01  8.50000000E-01  8.50000000E-01
  8.50000000E-01  8.50000000E-01  8.50000000E-01  8.50000000E-01  8.50000000E-01
  8.50000000E-01  8.50000000E-01  8.50000000E-01  8.50000000E-01  8.50000000E-01
  8.50000000E-01  8.50000000E-01  8.50000000E-01  8.50000000E-01  8.50000000E-01
  8.50000000E-01  8.50000000E-01  8.50000000E-01  8.50000000E-01  8.50000000E-01
  8.50000000E-01  8.50000000E-01  8.50000000E-01  8.50000000E-01  8.50000000E-01
  8.50000000E-01  8.50000000E-01  8.50000000E-01  8.50000000E-01  8.50000000E-01
  8.50000000E-01  8.50000000E-01  8.50000000E-01  8.50000000E-01  8.50000000E-01
  8.50000000E-01  8.50000000E-01  8.50000000E-01  8.50000000E-01  8.50000000E-01
  8.50000000E-01  8.50000000E-01  8.50000000E-01  8.50000000E-01  8.50000000E-01
  8.50000000E-01  8.50000000E-01  8.50000000E-01  8.50000000E-01  8.50000000E-01
  8.50000000E-01  8.50000000E-01  8.50000000E-01  8.50000000E-01  8.50000000E-01
  8.50000000E-01  8.50000000E-01  8.50000000E-01  8.50000000E-01  8.50000000E-01
  8.50000000E-01  8.50000000E-01  8.50000000E-01  8.50000000E-01  8.50000000E-01
  8.50000000E-01  8.50000000E-01  8.50000000E-01  8.50000000E-01  8.50000000E-01
  8.50000000E-01  8.50000000E-01  8.50000000E-01  8.50000000E-01  8.50000000E-01
  8.50000000E-01  8.50000000E-01  8.50000000E-01  8.50000000E-01  8.50000000E-01
  8.50000000E-01  8.50000000E-01  8.50000000E-01  8.50000000E-01  8.50000000E-01
  8.50000000E-01  8.50000000E-01  8.50000000E-01  8.50000000E-01  8.50000000E-01
  8.50000000E-01  8.50000000E-01  8.50000000E-01  8.50000000E-01  8.50000000E-01
  8.50000000E-01  8.50000000E-01  8.50000000E-01  8.50000000E-01  8.50000000E-01
  8.50000000E-01  8.50000000E-01  8.50000000E-01  8.50000000E-01  8.50000000E-01
  8.50000000E-01  8.50000000E-01  8.50000000E-01  8.50000000E-01  8.50000000E-01
  8.50000000E-01  8.50000000E-01  8.50000000E-01  8.50000000E-01  8.50000000E-01
  8.50000000E-01  8.50000000E-01  8.50000000E-01  8.50000000E-01  8.50000000E-01
  8.50000000E-01  8.50000000E-01  8.50000000E-01  8.50000000E-01  8.50000000E-01
  8.50000000E-01  8.50000000E-01  8.50000000E-01  8.50000000E-01  8.50000000E-01
  8.50000000E-01  8.50000000E-01  8.50000000E-01  8.50000000E-01  8.50000000E-01
  8.50000000E-01  8.50000000E-01  8.50000000E-01  8.50000000E-01  8.50000000E-01
  8.50000000E-01  8.50000000E-01  8.50000000E-01  8.50000000E-01  8.50000000E-01
  8.50000000E-01  8.50000000E-01  8.50000000E-01  8.50000000E-01  8.50000000E-01
  8.50000000E-01  8.50000000E-01  8.50000000E-01  8.50000000E-01  8.50000000E-01
  8.50000000E-01  8.50000000E-01  8.50000000E-01  8.50000000E-01  8.50000000E-01
  8.50000000E-01  8.50000000E-01  8.50000000E-01  8.50000000E-01  8.50000000E-01
  8.50000000E-01  8.50000000E-01  8.50000000E-01  8.50000000E-01  8.50000000E-01
  8.50000000E-01  8.50000000E-01  8.50000000E-01  8.50000000E-01  8.50000000E-01
  8.50000000E-01  8.50000000E-01  8.50000000E-01  8.50000000E-01  8.50000000E-01
  8.50000000E-01  8.50000000E-01  8.50000000E-01  8.50000000E-01  8.50000000E-01
  8.50000000E-01  8.50000000E-01  8.50000000E-01  8.50000000E-01  8.50000000E-01
  8.50000000E-01  8.50000000E-01  8.50000000E-01  8.50000000E-01  8.50000000E-01
  8.50000000E-01  8.50000000E-01  8.50000000E-01  8.50000000E-01  8.50000000E-01
  8.50000000E-01  8.50000000E-01  8.50000000E-01  8.50000000E-01  8.50000000E-01
  8.50000000E-01  8.50000000E-01  8.50000000E-01  8.50000000E-01  8.50000000E-01
  8.50000000E-01  8.50000000E-01  8.50000000E-01  8.50000000E-01  8.50000000E-01
  8.50000000E-01  8.50000000E-01  8.50000000E-01  8.50000000E-01  8.50000000E-01
  8.50000000E-01  8.50000000E-01  8.50000000E-01  8.50000000E-01  8.50000000E-01
  8.50000000E-01  8.50000000E-01  8.50000000E-01  8.50000000E-01  8.50000000E-01
  8.50000000E-01  8.50000000E-01  8.50000000E-01  8.50000000E-01  8.50000000E-01
  8.50000000E-01  8.50000000E-01  8.50000000E-01  8.50000000E-01  8.50000000E-01
  8.50000000E-01  8.50000000E-01  8.50000000E-01  8.50000000E-01  8.50000000E-01
  8.50000000E-01  8.50000000E-01  8.50000000E-01  8.50000000E-01  8.50000000E-01
  8.50000000E-01  8.50000000E-01  8.50000000E-01  8.50000000E-01  8.50000000E-01
  8.50000000E-01  8.50000000E-01  8.50000000E-01  8.50000000E-01  8.50000000E-01
  8.50000000E-01  8.50000000E-01  8.50000000E-01  8.50000000E-01  8.50000000E-01
  8.50000000E-01  8.50000000E-01  8.50000000E-01  8.50000000E-01  8.50000000E-01
  8.50000000E-01  8.50000000E-01  8.50000000E-01  8.50000000E-01  8.50000000E-01
  8.50000000E-01  8.50000000E-01  8.50000000E-01  8.50000000E-01  8.50000000E-01
  8.50000000E-01  8.50000000E-01  8.50000000E-01  8.50000000E-01  8.50000000E-01
  8.50000000E-01  8.50000000E-01  8.50000000E-01  8.50000000E-01  8.50000000E-01
  8.50000000E-01  8.50000000E-01  8.50000000E-01  8.50000000E-01  8.50000000E-01
  8.50000000E-01  8.50000000E-01  8.50000000E-01  8.50000000E-01  8.50000000E-01
  8.50000000E-01  8.50000000E-01  8.50000000E-01  8.50000000E-01  8.50000000E-01
  8.50000000E-01  8.50000000E-01  8.50000000E-01  8.50000000E-01  8.50000000E-01
  8.50000000E-01  8.50000000E-01  8.50000000E-01  8.50000000E-01  8.50000000E-01
  8.50000000E-01  8.50000000E-01  8.50000000E-01  8.50000000E-01  8.50000000E-01
  8.50000000E-01  8.50000000E-01  8.50000000E-01  8.50000000E-01  8.50000000E-01
  8.50000000E-01  8.50000000E-01  8.50000000E-01  8.50000000E-01  8.50000000E-01
  8.50000000E-01  8.50000000E-01  8.50000000E-01  8.50000000E-01  8.50000000E-01
  8.50000000E-01  8.50000000E-01  8.50000000E-01  8.50000000E-01  8.50000000E-01
  8.50000000E-01  8.50000000E-01  8.50000000E-01  8.50000000E-01  8.50000000E-01
  8.50000000E-01  8.50000000E-01  8.50000000E-01  8.50000000E-01  8.50000000E-01
  8.50000000E-01  8.50000000E-01  8.50000000E-01  8.50000000E-01  8.50000000E-01
  8.50000000E-01  8.50000000E-01  8.50000000E-01  8.50000000E-01  8.50000000E-01
  8.50000000E-01  8.50000000E-01  8.50000000E-01  8.50000000E-01  8.50000000E-01
  8.50000000E-01  8.50000000E-01  8.50000000E-01  8.50000000E-01  8.50000000E-01
  8.50000000E-01  8.50000000E-01  8.50000000E-01  8.50000000E-01  8.50000000E-01
  8.50000000E-01  8.50000000E-01  8.50000000E-01  8.50000000E-01  8.50000000E-01
  8.50000000E-01  8.50000000E-01  8.50000000E-01  8.50000000E-01  8.50000000E-01
  8.50000000E-01  8.50000000E-01  8.50000000E-01  8.50000000E-01  8.50000000E-01
  8.50000000E-01  8.50000000E-01  8.50000000E-01  8.50000000E-01  8.50000000E-01
  8.50000000E-01  8.50000000E-01  8.50000000E-01  8.50000000E-01  8.50000000E-01
  8.50000000E-01  8.50000000E-01  8.50000000E-01  8.50000000E-01  8.50000000E-01
  8.50000000E-01  8.50000000E-01  8.50000000E-01  8.50000000E-01  8.50000000E-01
  8.50000000E-01  8.50000000E-01  8.50000000E-01  8.50000000E-01  8.50000000E-01
  8.50000000E-01  8.50000000E-01  8.50000000E-01  8.50000000E-01  8.50000000E-01
  8.50000000E-01  8.50000000E-01  8.50000000E-01  8.50000000E-01  8.50000000E-01
  8.50000000E-01  8.50000000E-01  8.50000000E-01  8.50000000E-01  8.50000000E-01
  8.50000000E-01  8.50000000E-01  8.50000000E-01  8.50000000E-01  8.50000000E-01
  8.50000000E-01  8.50000000E-01  8.50000000E-01  8.50000000E-01  8.50000000E-01
  8.50000000E-01  8.50000000E-01  8.50000000E-01  8.50000000E-01  8.50000000E-01
  8.50000000E-01  8.50000000E-01  8.50000000E-01  8.50000000E-01  8.50000000E-01
  8.50000000E-01  8.50000000E-01  8.50000000E-01  8.50000000E-01  8.50000000E-01
  8.50000000E-01  8.50000000E-01  8.50000000E-01  8.50000000E-01  8.50000000E-01
  8.50000000E-01  8.50000000E-01  8.50000000E-01  8.50000000E-01  8.50000000E-01
  8.50000000E-01  8.50000000E-01  8.50000000E-01  8.50000000E-01  8.50000000E-01
  8.50000000E-01  8.50000000E-01  8.50000000E-01  8.50000000E-01  8.50000000E-01
  8.50000000E-01  8.50000000E-01  8.50000000E-01  8.50000000E-01  8.50000000E-01
  8.50000000E-01  8.50000000E-01  8.50000000E-01  8.50000000E-01  8.50000000E-01
  8.50000000E-01  8.50000000E-01  8.50000000E-01  8.50000000E-01  8.50000000E-01
  8.50000000E-01  8.50000000E-01  8.50000000E-01  8.50000000E-01  8.50000000E-01
  8.50000000E-01  8.50000000E-01  8.50000000E-01  8.50000000E-01  8.50000000E-01
  8.50000000E-01  8.50000000E-01  8.50000000E-01  8.50000000E-01  8.50000000E-01
  8.50000000E-01  8.50000000E-01  8.50000000E-01  8.50000000E-01  8.50000000E-01
  8.50000000E-01  8.50000000E-01  8.50000000E-01  8.50000000E-01  8.50000000E-01
  8.50000000E-01  8.50000000E-01  8.50000000E-01  8.50000000E-01  8.50000000E-01
  8.50000000E-01  8.50000000E-01  8.50000000E-01  8.50000000E-01  8.50000000E-01
  8.50000000E-01  8.50000000E-01  8.50000000E-01  8.50000000E-01  8.50000000E-01
  8.50000000E-01  8.50000000E-01  8.50000000E-01  8.50000000E-01  8.50000000E-01
  8.50000000E-01  8.50000000E-01  8.50000000E-01  8.50000000E-01  8.50000000E-01
  8.50000000E-01  8.50000000E-01  8.50000000E-01  8.50000000E-01  8.50000000E-01
  8.50000000E-01  8.50000000E-01  8.50000000E-01  8.50000000E-01  8.50000000E-01
  8.50000000E-01  8.50000000E-01  8.50000000E-01  8.50000000E-01  8.50000000E-01
  8.50000000E-01  8.50000000E-01  8.50000000E-01  8.50000000E-01  8.50000000E-01
  8.50000000E-01  8.50000000E-01  8.50000000E-01  8.50000000E-01  8.50000000E-01
  8.50000000E-01  8.50000000E-01  8.50000000E-01  8.50000000E-01  8.50000000E-01
  8.50000000E-01  8.50000000E-01  8.50000000E-01  8.50000000E-01  8.50000000E-01
  8.50000000E-01  8.50000000E-01  8.50000000E-01  8.50000000E-01  8.50000000E-01
  8.50000000E-01  8.50000000E-01  8.50000000E-01  8.50000000E-01  8.50000000E-01
  8.50000000E-01  8.50000000E-01  8.50000000E-01  8.50000000E-01  8.50000000E-01
  8.50000000E-01  8.50000000E-01  8.50000000E-01  8.50000000E-01  8.50000000E-01
  8.50000000E-01  8.50000000E-01  8.50000000E-01  8.50000000E-01  8.50000000E-01
  8.50000000E-01  8.50000000E-01  8.50000000E-01  8.50000000E-01  8.50000000E-01
  8.50000000E-01  8.50000000E-01  8.50000000E-01  8.50000000E-01  8.50000000E-01
  8.50000000E-01  8.50000000E-01  8.50000000E-01  8.50000000E-01  8.50000000E-01
  8.50000000E-01  8.50000000E-01  8.50000000E-01  8.50000000E-01  8.50000000E-01
  8.50000000E-01  8.50000000E-01  8.50000000E-01  8.50000000E-01  8.50000000E-01
  8.50000000E-01  8.50000000E-01  8.50000000E-01  8.50000000E-01  8.50000000E-01
  8.50000000E-01  8.50000000E-01  8.50000000E-01  8.50000000E-01  8.50000000E-01
  8.50000000E-01  8.50000000E-01  8.50000000E-01  8.50000000E-01  8.50000000E-01
  8.50000000E-01  8.50000000E-01  8.50000000E-01  8.50000000E-01  8.50000000E-01
  8.50000000E-01  8.50000000E-01  8.50000000E-01  8.50000000E-01  8.50000000E-01
  8.50000000E-01  8.50000000E-01  8.50000000E-01  8.50000000E-01  8.50000000E-01
  8.50000000E-01  8.50000000E-01  8.50000000E-01  8.50000000E-01  8.50000000E-01
  8.50000000E-01  8.50000000E-01  8.50000000E-01  8.50000000E-01  8.50000000E-01
  8.50000000E-01  8.50000000E-01  8.50000000E-01  8.50000000E-01  8.50000000E-01
  8.50000000E-01  8.50000000E-01  8.50000000E-01  8.50000000E-01  8.50000000E-01
  8.50000000E-01  8.50000000E-01  8.50000000E-01  8.50000000E-01  8.50000000E-01
  8.50000000E-01  8.50000000E-01  8.50000000E-01  8.50000000E-01  8.50000000E-01
  8.50000000E-01  8.50000000E-01  8.50000000E-01  8.50000000E-01  8.50000000E-01
  8.50000000E-01  8.50000000E-01  8.50000000E-01  8.50000000E-01  8.50000000E-01
  8.50000000E-01  8.50000000E-01  8.50000000E-01  8.50000000E-01  8.50000000E-01
  8.50000000E-01  8.50000000E-01  8.50000000E-01  8.50000000E-01  8.50000000E-01
  8.50000000E-01  8.50000000E-01  8.50000000E-01  8.50000000E-01  8.50000000E-01
  8.50000000E-01  8.50000000E-01  8.50000000E-01  8.50000000E-01  8.50000000E-01
  8.50000000E-01  8.50000000E-01  8.50000000E-01  8.50000000E-01  8.50000000E-01
  8.50000000E-01  8.50000000E-01  8.50000000E-01  8.50000000E-01  8.50000000E-01
  8.50000000E-01  8.50000000E-01  8.50000000E-01  8.50000000E-01  8.50000000E-01
  8.50000000E-01  8.50000000E-01  8.50000000E-01  8.50000000E-01  8.50000000E-01
  8.50000000E-01  8.50000000E-01  8.50000000E-01  8.50000000E-01  8.50000000E-01
  8.50000000E-01  8.50000000E-01  8.50000000E-01  8.50000000E-01  8.50000000E-01
  8.50000000E-01  8.50000000E-01  8.50000000E-01  8.50000000E-01  8.50000000E-01
  8.50000000E-01  8.50000000E-01  8.50000000E-01  8.50000000E-01  8.50000000E-01
  8.50000000E-01  8.50000000E-01  8.50000000E-01  8.50000000E-01  8.50000000E-01
  8.50000000E-01  8.50000000E-01  8.50000000E-01  8.50000000E-01  8.50000000E-01
  8.50000000E-01  8.50000000E-01  8.50000000E-01  8.50000000E-01  8.50000000E-01
  8.50000000E-01  8.50000000E-01  8.50000000E-01  8.50000000E-01  8.50000000E-01
  8.50000000E-01  8.50000000E-01  8.50000000E-01  8.50000000E-01  8.50000000E-01
  8.50000000E-01  8.50000000E-01  8.50000000E-01  8.50000000E-01  8.50000000E-01
  8.50000000E-01  8.50000000E-01  8.50000000E-01  8.50000000E-01  8.50000000E-01
  8.50000000E-01  8.50000000E-01  8.50000000E-01  8.50000000E-01  8.50000000E-01
  8.50000000E-01  8.50000000E-01  8.50000000E-01  8.50000000E-01  8.50000000E-01
  8.50000000E-01  8.50000000E-01  8.50000000E-01  8.50000000E-01  8.50000000E-01
  8.50000000E-01  8.50000000E-01  8.50000000E-01  8.50000000E-01  8.50000000E-01
  8.50000000E-01  8.50000000E-01  8.50000000E-01  8.50000000E-01  8.50000000E-01
  8.50000000E-01  8.50000000E-01  8.50000000E-01  8.50000000E-01  8.50000000E-01
  8.50000000E-01  8.50000000E-01  8.50000000E-01  8.50000000E-01  8.50000000E-01
  8.50000000E-01  8.50000000E-01  8.50000000E-01  8.50000000E-01  8.50000000E-01
  8.50000000E-01  8.50000000E-01  8.50000000E-01  8.50000000E-01  8.50000000E-01
  8.50000000E-01  8.50000000E-01  8.50000000E-01  8.50000000E-01  8.50000000E-01
  8.50000000E-01  8.50000000E-01  8.50000000E-01  8.50000000E-01  8.50000000E-01
  8.50000000E-01  8.50000000E-01  8.50000000E-01  8.50000000E-01  8.50000000E-01
  8.50000000E-01  8.50000000E-01  8.50000000E-01  8.50000000E-01  8.50000000E-01
  8.50000000E-01  8.50000000E-01  8.50000000E-01  8.50000000E-01  8.50000000E-01
  8.50000000E-01  8.50000000E-01  8.50000000E-01  8.50000000E-01  8.50000000E-01
  8.50000000E-01  8.50000000E-01  8.50000000E-01  8.50000000E-01  8.50000000E-01
  8.50000000E-01  8.50000000E-01  8.50000000E-01  8.50000000E-01  8.50000000E-01
  8.50000000E-01  8.50000000E-01  8.50000000E-01  8.50000000E-01  8.50000000E-01
  8.50000000E-01  8.50000000E-01  8.50000000E-01  8.50000000E-01  8.50000000E-01
  8.50000000E-01  8.50000000E-01  8.50000000E-01  8.50000000E-01  8.50000000E-01
  8.50000000E-01  8.50000000E-01  8.50000000E-01  8.50000000E-01  8.50000000E-01
  8.50000000E-01  8.50000000E-01  8.50000000E-01  8.50000000E-01  8.50000000E-01
  8.50000000E-01  8.50000000E-01  8.50000000E-01  8.50000000E-01  8.50000000E-01
  8.50000000E-01  8.50000000E-01  8.50000000E-01  8.50000000E-01  8.50000000E-01
  8.50000000E-01  8.50000000E-01  8.50000000E-01  8.50000000E-01  8.50000000E-01
  8.50000000E-01  8.50000000E-01  8.50000000E-01  8.50000000E-01  8.50000000E-01
  8.50000000E-01  8.50000000E-01  8.50000000E-01  8.50000000E-01  8.50000000E-01
  8.50000000E-01  8.50000000E-01  8.50000000E-01  8.50000000E-01  8.50000000E-01
  8.50000000E-01  8.50000000E-01  8.50000000E-01  8.50000000E-01  8.50000000E-01
  8.50000000E-01  8.50000000E-01  8.50000000E-01  8.50000000E-01  8.50000000E-01
  8.50000000E-01  8.50000000E-01  8.50000000E-01  8.50000000E-01  8.50000000E-01
  8.50000000E-01  8.50000000E-01  8.50000000E-01  8.50000000E-01  8.50000000E-01
  8.50000000E-01  8.50000000E-01  8.50000000E-01  8.50000000E-01  8.50000000E-01
  8.50000000E-01  8.50000000E-01  8.50000000E-01  8.50000000E-01  8.50000000E-01
  8.50000000E-01  8.50000000E-01  8.50000000E-01  8.50000000E-01  8.50000000E-01
  8.50000000E-01  8.50000000E-01  8.50000000E-01  8.50000000E-01  8.50000000E-01
  8.50000000E-01  8.50000000E-01  8.50000000E-01  8.50000000E-01  8.50000000E-01
  8.50000000E-01  8.50000000E-01  8.50000000E-01  8.50000000E-01  8.50000000E-01
  8.50000000E-01  8.50000000E-01  8.50000000E-01  8.50000000E-01  8.50000000E-01
  8.50000000E-01  8.50000000E-01  8.50000000E-01  8.50000000E-01  8.50000000E-01
  8.50000000E-01  8.50000000E-01  8.50000000E-01  8.50000000E-01  8.50000000E-01
  8.50000000E-01  8.50000000E-01  8.50000000E-01  8.50000000E-01  8.50000000E-01
  8.50000000E-01  8.50000000E-01  8.50000000E-01  8.50000000E-01  8.50000000E-01
  8.50000000E-01  8.50000000E-01  8.50000000E-01  8.50000000E-01  8.50000000E-01
  8.50000000E-01  8.50000000E-01  8.50000000E-01  8.50000000E-01  8.50000000E-01
  8.50000000E-01  8.50000000E-01  8.50000000E-01  8.50000000E-01  8.50000000E-01
  8.50000000E-01  8.50000000E-01  8.50000000E-01  8.50000000E-01  8.50000000E-01
  8.50000000E-01  8.50000000E-01  8.50000000E-01  8.50000000E-01  8.50000000E-01
  8.50000000E-01  8.50000000E-01  8.50000000E-01  8.50000000E-01  8.50000000E-01
  8.50000000E-01  8.50000000E-01  8.50000000E-01  8.50000000E-01  8.50000000E-01
  8.50000000E-01  8.50000000E-01  8.50000000E-01  8.50000000E-01  8.50000000E-01
  8.50000000E-01  8.50000000E-01  8.50000000E-01  8.50000000E-01  8.50000000E-01
  8.50000000E-01  8.50000000E-01  8.50000000E-01  8.50000000E-01  8.50000000E-01
  8.50000000E-01  8.50000000E-01  8.50000000E-01  8.50000000E-01  8.50000000E-01
  8.50000000E-01  8.50000000E-01  8.50000000E-01  8.50000000E-01  8.50000000E-01
  8.50000000E-01  8.50000000E-01  8.50000000E-01  8.50000000E-01  8.50000000E-01
  8.50000000E-01  8.50000000E-01  8.50000000E-01  8.50000000E-01  8.50000000E-01
  8.50000000E-01  8.50000000E-01  8.50000000E-01  8.50000000E-01  8.50000000E-01
  8.50000000E-01  8.50000000E-01  8.50000000E-01  8.50000000E-01  8.50000000E-01
  8.50000000E-01  8.50000000E-01  8.50000000E-01  8.50000000E-01  8.50000000E-01
  8.50000000E-01  8.50000000E-01  8.50000000E-01  8.50000000E-01  8.50000000E-01
  8.50000000E-01  8.50000000E-01  8.50000000E-01  8.50000000E-01  8.50000000E-01
  8.50000000E-01  8.50000000E-01  8.50000000E-01  8.50000000E-01  8.50000000E-01
  8.50000000E-01  8.50000000E-01  8.50000000E-01  8.50000000E-01  8.50000000E-01
  8.50000000E-01  8.50000000E-01  8.50000000E-01  8.50000000E-01  8.50000000E-01
  8.50000000E-01  8.50000000E-01  8.50000000E-01  8.50000000E-01  8.50000000E-01
  8.50000000E-01  8.50000000E-01  8.50000000E-01  8.50000000E-01  8.50000000E-01
  8.50000000E-01  8.50000000E-01  8.50000000E-01  8.50000000E-01  8.50000000E-01
  8.50000000E-01  8.50000000E-01  8.50000000E-01  8.50000000E-01  8.50000000E-01
  8.50000000E-01  8.50000000E-01  8.50000000E-01  8.50000000E-01  8.50000000E-01
  8.50000000E-01  8.50000000E-01  8.50000000E-01  8.50000000E-01  8.50000000E-01
  8.50000000E-01  8.50000000E-01  8.50000000E-01  8.50000000E-01  8.50000000E-01
  8.50000000E-01  8.50000000E-01  8.50000000E-01  8.50000000E-01  8.50000000E-01
  8.50000000E-01  8.50000000E-01  8.50000000E-01  8.50000000E-01  8.50000000E-01
  8.50000000E-01  8.50000000E-01  8.50000000E-01  8.50000000E-01  8.50000000E-01
  8.50000000E-01  8.50000000E-01  8.50000000E-01  8.50000000E-01  8.50000000E-01
  8.50000000E-01  8.50000000E-01  8.50000000E-01  8.50000000E-01  8.50000000E-01
  8.50000000E-01  8.50000000E-01  8.50000000E-01  8.50000000E-01  8.50000000E-01
  8.50000000E-01  8.50000000E-01  8.50000000E-01  8.50000000E-01  8.50000000E-01
  8.50000000E-01  8.50000000E-01  8.50000000E-01  8.50000000E-01  8.50000000E-01
  8.50000000E-01  8.50000000E-01  8.50000000E-01  8.50000000E-01  8.50000000E-01
  8.50000000E-01  8.50000000E-01  8.50000000E-01  8.50000000E-01  8.50000000E-01
  8.50000000E-01  8.50000000E-01  8.50000000E-01  8.50000000E-01  8.50000000E-01
  8.50000000E-01  8.50000000E-01  8.50000000E-01  8.50000000E-01  8.50000000E-01
  8.50000000E-01  8.50000000E-01  8.50000000E-01  8.50000000E-01  8.50000000E-01
  8.50000000E-01  8.50000000E-01  8.50000000E-01  8.50000000E-01  8.50000000E-01
  8.50000000E-01  8.50000000E-01  8.50000000E-01  8.50000000E-01  8.50000000E-01
  8.50000000E-01  8.50000000E-01  8.50000000E-01  8.50000000E-01  8.50000000E-01
  8.50000000E-01  8.50000000E-01  8.50000000E-01  8.50000000E-01  8.50000000E-01
  8.50000000E-01  8.50000000E-01  8.50000000E-01  8.50000000E-01  8.50000000E-01
  8.50000000E-01  8.50000000E-01  8.50000000E-01  8.50000000E-01  8.50000000E-01
  8.50000000E-01  8.50000000E-01  8.50000000E-01  8.50000000E-01  8.50000000E-01
  8.50000000E-01  8.50000000E-01  8.50000000E-01  8.50000000E-01  8.50000000E-01
  8.50000000E-01  8.50000000E-01  8.50000000E-01  8.50000000E-01  8.50000000E-01
  8.50000000E-01  8.50000000E-01  8.50000000E-01  8.50000000E-01  8.50000000E-01
  8.50000000E-01  8.50000000E-01  8.50000000E-01  8.50000000E-01  8.50000000E-01
  8.50000000E-01  8.50000000E-01  8.50000000E-01  8.50000000E-01  8.50000000E-01
  8.50000000E-01  8.50000000E-01  8.50000000E-01  8.50000000E-01  8.50000000E-01
  8.50000000E-01  8.50000000E-01  8.50000000E-01  8.50000000E-01  8.50000000E-01
  8.50000000E-01  8.50000000E-01  8.50000000E-01  8.50000000E-01  8.50000000E-01
  8.50000000E-01  8.50000000E-01  8.50000000E-01  8.50000000E-01  8.50000000E-01
  8.50000000E-01  8.50000000E-01  8.50000000E-01  8.50000000E-01  8.50000000E-01
  8.50000000E-01  8.50000000E-01  8.50000000E-01  8.50000000E-01  8.50000000E-01
  8.50000000E-01  8.50000000E-01  8.50000000E-01  8.50000000E-01  8.50000000E-01
  8.50000000E-01  8.50000000E-01  8.50000000E-01  8.50000000E-01  8.50000000E-01
  8.50000000E-01  8.50000000E-01  8.50000000E-01  8.50000000E-01  8.50000000E-01
  8.50000000E-01  8.50000000E-01  8.50000000E-01  8.50000000E-01  8.50000000E-01
  8.50000000E-01  8.50000000E-01  8.50000000E-01  8.50000000E-01  8.50000000E-01
  8.50000000E-01  8.50000000E-01  8.50000000E-01  8.50000000E-01  8.50000000E-01
  8.50000000E-01  8.50000000E-01  8.50000000E-01  8.50000000E-01  8.50000000E-01
  8.50000000E-01  8.50000000E-01  8.50000000E-01  8.50000000E-01  8.50000000E-01
  8.50000000E-01  8.50000000E-01  8.50000000E-01  8.50000000E-01  8.50000000E-01
  8.50000000E-01  8.50000000E-01  8.50000000E-01  8.50000000E-01  8.50000000E-01
  8.50000000E-01  8.50000000E-01  8.50000000E-01  8.50000000E-01  8.50000000E-01
  8.50000000E-01  8.50000000E-01  8.50000000E-01  8.50000000E-01  8.50000000E-01
  8.50000000E-01  8.50000000E-01  8.50000000E-01  8.50000000E-01  8.50000000E-01
  8.50000000E-01  8.50000000E-01  8.50000000E-01  8.50000000E-01  8.50000000E-01
  8.50000000E-01  8.50000000E-01  8.50000000E-01  8.50000000E-01  8.50000000E-01
  8.50000000E-01  8.50000000E-01  8.50000000E-01  8.50000000E-01  8.50000000E-01
  8.50000000E-01  8.50000000E-01  8.50000000E-01  8.50000000E-01  8.50000000E-01
  8.50000000E-01  8.50000000E-01  8.50000000E-01  8.50000000E-01  8.50000000E-01
  8.50000000E-01  8.50000000E-01  8.50000000E-01  8.50000000E-01  8.50000000E-01
  8.50000000E-01  8.50000000E-01  8.50000000E-01  8.50000000E-01  8.50000000E-01
  8.50000000E-01  8.50000000E-01  8.50000000E-01  8.50000000E-01  8.50000000E-01
  8.50000000E-01  8.50000000E-01  8.50000000E-01  8.50000000E-01  8.50000000E-01
  8.50000000E-01  8.50000000E-01  8.50000000E-01  8.50000000E-01  8.50000000E-01
  8.50000000E-01  8.50000000E-01  8.50000000E-01  8.50000000E-01  8.50000000E-01
  8.50000000E-01  8.50000000E-01  8.50000000E-01  8.50000000E-01  8.50000000E-01
  8.50000000E-01  8.50000000E-01  8.50000000E-01  8.50000000E-01  8.50000000E-01
  8.50000000E-01  8.50000000E-01  8.50000000E-01  8.50000000E-01  8.50000000E-01
  8.50000000E-01  8.50000000E-01  8.50000000E-01  8.50000000E-01  8.50000000E-01
  8.50000000E-01  8.50000000E-01  8.50000000E-01  8.50000000E-01  8.50000000E-01
  8.50000000E-01  8.50000000E-01  8.50000000E-01  8.50000000E-01  8.50000000E-01
  8.50000000E-01  8.50000000E-01  8.50000000E-01  8.50000000E-01  8.50000000E-01
  8.50000000E-01  8.50000000E-01  8.50000000E-01  8.50000000E-01  8.50000000E-01
  8.50000000E-01  8.50000000E-01  8.50000000E-01  8.50000000E-01  8.50000000E-01
  8.50000000E-01  8.50000000E-01  8.50000000E-01  8.50000000E-01  8.50000000E-01
  8.50000000E-01  8.50000000E-01  8.50000000E-01  8.50000000E-01  8.50000000E-01
  8.50000000E-01  8.50000000E-01  8.50000000E-01  8.50000000E-01  8.50000000E-01
  8.50000000E-01  8.50000000E-01  8.50000000E-01  8.50000000E-01  8.50000000E-01
  8.50000000E-01  8.50000000E-01  8.50000000E-01  8.50000000E-01  8.50000000E-01
  8.50000000E-01  8.50000000E-01  8.50000000E-01  8.50000000E-01  8.50000000E-01
  8.50000000E-01  8.50000000E-01  8.50000000E-01  8.50000000E-01  8.50000000E-01
  8.50000000E-01  8.50000000E-01  8.50000000E-01  8.50000000E-01  8.50000000E-01
  8.50000000E-01  8.50000000E-01  8.50000000E-01  8.50000000E-01  8.50000000E-01
  8.50000000E-01  8.50000000E-01  8.50000000E-01  8.50000000E-01  8.50000000E-01
  8.50000000E-01  8.50000000E-01  8.50000000E-01  8.50000000E-01  8.50000000E-01
  8.50000000E-01  8.50000000E-01  8.50000000E-01  8.50000000E-01  8.50000000E-01
  8.50000000E-01  8.50000000E-01  8.50000000E-01  8.50000000E-01  8.50000000E-01
  8.50000000E-01  8.50000000E-01  8.50000000E-01  8.50000000E-01  8.50000000E-01
  8.50000000E-01  8.50000000E-01  8.50000000E-01  8.50000000E-01  8.50000000E-01
  8.50000000E-01  8.50000000E-01  8.50000000E-01  8.50000000E-01  8.50000000E-01
  8.50000000E-01  8.50000000E-01  8.50000000E-01  8.50000000E-01  8.50000000E-01
  8.50000000E-01  8.50000000E-01  8.50000000E-01  8.50000000E-01  8.50000000E-01
  8.50000000E-01  8.50000000E-01  8.50000000E-01  8.50000000E-01  8.50000000E-01
  8.50000000E-01  8.50000000E-01  8.50000000E-01  8.50000000E-01  8.50000000E-01
  8.50000000E-01  8.50000000E-01  8.50000000E-01  8.50000000E-01  8.50000000E-01
  8.50000000E-01  8.50000000E-01  8.50000000E-01  8.50000000E-01  8.50000000E-01
  8.50000000E-01  8.50000000E-01  8.50000000E-01  8.50000000E-01  8.50000000E-01
  8.50000000E-01  8.50000000E-01  8.50000000E-01  8.50000000E-01  8.50000000E-01
  8.50000000E-01  8.50000000E-01  8.50000000E-01  8.50000000E-01  8.50000000E-01
  8.50000000E-01  8.50000000E-01  8.50000000E-01  8.50000000E-01  8.50000000E-01
  8.50000000E-01  8.50000000E-01  8.50000000E-01  8.50000000E-01  8.50000000E-01
  8.50000000E-01  8.50000000E-01  8.50000000E-01  8.50000000E-01  8.50000000E-01
  8.50000000E-01  8.50000000E-01  8.50000000E-01  8.50000000E-01  8.50000000E-01
  8.50000000E-01  8.50000000E-01  8.50000000E-01  8.50000000E-01  8.50000000E-01
  8.50000000E-01  8.50000000E-01  8.50000000E-01  8.50000000E-01  8.50000000E-01
  8.50000000E-01  8.50000000E-01  8.50000000E-01  8.50000000E-01  8.50000000E-01
  8.50000000E-01  8.50000000E-01  8.50000000E-01  8.50000000E-01  8.50000000E-01
  8.50000000E-01  8.50000000E-01  8.50000000E-01  8.50000000E-01  8.50000000E-01
  8.50000000E-01  8.50000000E-01  8.50000000E-01  8.50000000E-01  8.50000000E-01
  8.50000000E-01  8.50000000E-01  8.50000000E-01  8.50000000E-01  8.50000000E-01
  8.50000000E-01  8.50000000E-01  8.50000000E-01  8.50000000E-01  8.50000000E-01
  8.50000000E-01  8.50000000E-01  8.50000000E-01  8.50000000E-01  8.50000000E-01
  8.50000000E-01  8.50000000E-01  8.50000000E-01  8.50000000E-01  8.50000000E-01
  8.50000000E-01  8.50000000E-01  8.50000000E-01  8.50000000E-01  8.50000000E-01
  8.50000000E-01  8.50000000E-01  8.50000000E-01  8.50000000E-01  8.50000000E-01
  8.50000000E-01  8.50000000E-01  8.50000000E-01  8.50000000E-01  8.50000000E-01
  8.50000000E-01  8.50000000E-01  8.50000000E-01  8.50000000E-01  8.50000000E-01
  8.50000000E-01  8.50000000E-01  8.50000000E-01  8.50000000E-01  8.50000000E-01
  8.50000000E-01  8.50000000E-01  8.50000000E-01  8.50000000E-01  8.50000000E-01
  8.50000000E-01  8.50000000E-01  8.50000000E-01  8.50000000E-01  8.50000000E-01
  8.50000000E-01  8.50000000E-01  8.50000000E-01  8.50000000E-01  8.50000000E-01
  8.50000000E-01  8.50000000E-01  8.50000000E-01  8.50000000E-01  8.50000000E-01
  8.50000000E-01  8.50000000E-01  8.50000000E-01  8.50000000E-01  8.50000000E-01
  8.50000000E-01  8.50000000E-01  8.50000000E-01  8.50000000E-01  8.50000000E-01
  8.50000000E-01  8.50000000E-01  8.50000000E-01  8.50000000E-01  8.50000000E-01
  8.50000000E-01  8.50000000E-01  8.50000000E-01  8.50000000E-01  8.50000000E-01
  8.50000000E-01  8.50000000E-01  8.50000000E-01  8.50000000E-01  8.50000000E-01
  8.50000000E-01  8.50000000E-01  8.50000000E-01  8.50000000E-01  8.50000000E-01
  8.50000000E-01  8.50000000E-01  8.50000000E-01  8.50000000E-01  8.50000000E-01
  8.50000000E-01  8.50000000E-01  8.50000000E-01  8.50000000E-01  8.50000000E-01
  8.50000000E-01  8.50000000E-01  8.50000000E-01  8.50000000E-01  8.50000000E-01
  8.50000000E-01  8.50000000E-01  8.50000000E-01  8.50000000E-01  8.50000000E-01
  8.50000000E-01  8.50000000E-01  8.50000000E-01  8.50000000E-01  8.50000000E-01
  8.50000000E-01  8.50000000E-01  8.50000000E-01  8.50000000E-01  8.50000000E-01
  8.50000000E-01  8.50000000E-01  8.50000000E-01  8.50000000E-01  8.50000000E-01
  8.50000000E-01  8.50000000E-01  8.50000000E-01  8.50000000E-01  8.50000000E-01
  8.50000000E-01  8.50000000E-01  8.50000000E-01  8.50000000E-01  8.50000000E-01
  8.50000000E-01  8.50000000E-01  8.50000000E-01  8.50000000E-01  8.50000000E-01
  8.50000000E-01  8.50000000E-01  8.50000000E-01  8.50000000E-01  8.50000000E-01
  8.50000000E-01  8.50000000E-01  8.50000000E-01  8.50000000E-01  8.50000000E-01
  8.50000000E-01  8.50000000E-01  8.50000000E-01  8.50000000E-01  8.50000000E-01
  8.50000000E-01  8.50000000E-01  8.50000000E-01  8.50000000E-01  8.50000000E-01
  8.50000000E-01  8.50000000E-01  8.50000000E-01  8.50000000E-01  8.50000000E-01
  8.50000000E-01  8.50000000E-01  8.50000000E-01  8.50000000E-01  8.50000000E-01
  8.50000000E-01  8.50000000E-01  8.50000000E-01  8.50000000E-01  8.50000000E-01
  8.50000000E-01  8.50000000E-01  8.50000000E-01  8.50000000E-01  8.50000000E-01
  8.50000000E-01  8.50000000E-01  8.50000000E-01  8.50000000E-01  8.50000000E-01
  8.50000000E-01  8.50000000E-01  8.50000000E-01  8.50000000E-01  8.50000000E-01
  8.50000000E-01  8.50000000E-01  8.50000000E-01  8.50000000E-01  8.50000000E-01
  8.50000000E-01  8.50000000E-01  8.50000000E-01  8.50000000E-01  8.50000000E-01
  8.50000000E-01  8.50000000E-01  8.50000000E-01  8.50000000E-01  8.50000000E-01
  8.50000000E-01  8.50000000E-01  8.50000000E-01  8.50000000E-01  8.50000000E-01
  8.50000000E-01  8.50000000E-01  8.50000000E-01  8.50000000E-01  8.50000000E-01
  8.50000000E-01  8.50000000E-01  8.50000000E-01  8.50000000E-01  8.50000000E-01
  8.50000000E-01  8.50000000E-01  8.50000000E-01  8.50000000E-01  8.50000000E-01
  8.50000000E-01  8.50000000E-01  8.50000000E-01  8.50000000E-01  8.50000000E-01
  8.50000000E-01  8.50000000E-01  8.50000000E-01  8.50000000E-01  8.50000000E-01
  8.50000000E-01  8.50000000E-01  8.50000000E-01  8.50000000E-01  8.50000000E-01
  8.50000000E-01  8.50000000E-01  8.50000000E-01  8.50000000E-01  8.50000000E-01
  8.50000000E-01  8.50000000E-01  8.50000000E-01  8.50000000E-01  8.50000000E-01
  8.50000000E-01  8.50000000E-01  8.50000000E-01  8.50000000E-01  8.50000000E-01
  8.50000000E-01  8.50000000E-01  8.50000000E-01  8.50000000E-01  8.50000000E-01
  8.50000000E-01  8.50000000E-01  8.50000000E-01  8.50000000E-01  8.50000000E-01
  8.50000000E-01  8.50000000E-01  8.50000000E-01  8.50000000E-01  8.50000000E-01
  8.50000000E-01  8.50000000E-01  8.50000000E-01  8.50000000E-01  8.50000000E-01
  8.50000000E-01  8.50000000E-01  8.50000000E-01  8.50000000E-01  8.50000000E-01
  8.50000000E-01  8.50000000E-01  8.50000000E-01  8.50000000E-01  8.50000000E-01
  8.50000000E-01  8.50000000E-01  8.50000000E-01  8.50000000E-01  8.50000000E-01
  8.50000000E-01  8.50000000E-01  8.50000000E-01  8.50000000E-01  8.50000000E-01
  8.50000000E-01  8.50000000E-01  8.50000000E-01  8.50000000E-01  8.50000000E-01
  8.50000000E-01  8.50000000E-01  8.50000000E-01  8.50000000E-01  8.50000000E-01
  8.50000000E-01  8.50000000E-01  8.50000000E-01  8.50000000E-01  8.50000000E-01
  8.50000000E-01  8.50000000E-01  8.50000000E-01  8.50000000E-01  8.50000000E-01
  8.50000000E-01  8.50000000E-01  8.50000000E-01  8.50000000E-01  8.50000000E-01
  8.50000000E-01  8.50000000E-01  8.50000000E-01  8.50000000E-01  8.50000000E-01
  8.50000000E-01  8.50000000E-01  8.50000000E-01  8.50000000E-01  8.50000000E-01
  8.50000000E-01  8.50000000E-01  8.50000000E-01  8.50000000E-01  8.50000000E-01
  8.50000000E-01  8.50000000E-01  8.50000000E-01  8.50000000E-01  8.50000000E-01
  8.50000000E-01  8.50000000E-01  8.50000000E-01  8.50000000E-01  8.50000000E-01
  8.50000000E-01  8.50000000E-01  8.50000000E-01  8.50000000E-01  8.50000000E-01
  8.50000000E-01  8.50000000E-01  8.50000000E-01  8.50000000E-01  8.50000000E-01
  8.50000000E-01  8.50000000E-01  8.50000000E-01  8.50000000E-01  8.50000000E-01
  8.50000000E-01  8.50000000E-01  8.50000000E-01  8.50000000E-01  8.50000000E-01
  8.50000000E-01  8.50000000E-01  8.50000000E-01  8.50000000E-01  8.50000000E-01
  8.50000000E-01  8.50000000E-01  8.50000000E-01  8.50000000E-01  8.50000000E-01
  8.50000000E-01  8.50000000E-01  8.50000000E-01  8.50000000E-01  8.50000000E-01
  8.50000000E-01  8.50000000E-01  8.50000000E-01  8.50000000E-01  8.50000000E-01
  8.50000000E-01  8.50000000E-01  8.50000000E-01  8.50000000E-01  8.50000000E-01
  8.50000000E-01  8.50000000E-01  8.50000000E-01  8.50000000E-01  8.50000000E-01
  8.50000000E-01  8.50000000E-01  8.50000000E-01  8.50000000E-01  8.50000000E-01
  8.50000000E-01  8.50000000E-01  8.50000000E-01  8.50000000E-01  8.50000000E-01
  8.50000000E-01  8.50000000E-01  8.50000000E-01  8.50000000E-01  8.50000000E-01
  8.50000000E-01  8.50000000E-01  8.50000000E-01  8.50000000E-01  8.50000000E-01
  8.50000000E-01  8.50000000E-01  8.50000000E-01  8.50000000E-01  8.50000000E-01
  8.50000000E-01  8.50000000E-01  8.50000000E-01  8.50000000E-01  8.50000000E-01
  8.50000000E-01  8.50000000E-01  8.50000000E-01  8.50000000E-01  8.50000000E-01
  8.50000000E-01  8.50000000E-01  8.50000000E-01  8.50000000E-01  8.50000000E-01
  8.50000000E-01  8.50000000E-01  8.50000000E-01  8.50000000E-01  8.50000000E-01
  8.50000000E-01  8.50000000E-01  8.50000000E-01  8.50000000E-01  8.50000000E-01
  8.50000000E-01  8.50000000E-01  8.50000000E-01  8.50000000E-01  8.50000000E-01
  8.50000000E-01  8.50000000E-01  8.50000000E-01  8.50000000E-01  8.50000000E-01
  8.50000000E-01  8.50000000E-01  8.50000000E-01  8.50000000E-01  8.50000000E-01
  8.50000000E-01  8.50000000E-01  8.50000000E-01  8.50000000E-01  8.50000000E-01
  8.50000000E-01  8.50000000E-01  8.50000000E-01  8.50000000E-01  8.50000000E-01
  8.50000000E-01  8.50000000E-01  8.50000000E-01  8.50000000E-01  8.50000000E-01
  8.50000000E-01  8.50000000E-01  8.50000000E-01  8.50000000E-01  8.50000000E-01
  8.50000000E-01  8.50000000E-01  8.50000000E-01  8.50000000E-01  8.50000000E-01
  8.50000000E-01  8.50000000E-01  8.50000000E-01  8.50000000E-01  8.50000000E-01
  8.50000000E-01  8.50000000E-01  8.50000000E-01  8.50000000E-01  8.50000000E-01
  8.50000000E-01  8.50000000E-01  8.50000000E-01  8.50000000E-01  8.50000000E-01
  8.50000000E-01  8.50000000E-01  8.50000000E-01  8.50000000E-01  8.50000000E-01
  8.50000000E-01  8.50000000E-01  8.50000000E-01  8.50000000E-01  8.50000000E-01
  8.50000000E-01  8.50000000E-01  8.50000000E-01  8.50000000E-01  8.50000000E-01
  8.50000000E-01  8.50000000E-01  8.50000000E-01  8.50000000E-01  8.50000000E-01
  8.50000000E-01  8.50000000E-01  8.50000000E-01  8.50000000E-01  8.50000000E-01
  8.50000000E-01  8.50000000E-01  8.50000000E-01  8.50000000E-01  8.50000000E-01
  8.50000000E-01  8.50000000E-01  8.50000000E-01  8.50000000E-01  8.50000000E-01
  8.50000000E-01  8.50000000E-01  8.50000000E-01  8.50000000E-01  8.50000000E-01
  8.50000000E-01  8.50000000E-01  8.50000000E-01  8.50000000E-01  8.50000000E-01
  8.50000000E-01  8.50000000E-01  8.50000000E-01  8.50000000E-01  8.50000000E-01
  8.50000000E-01  8.50000000E-01  8.50000000E-01  8.50000000E-01  8.50000000E-01
  8.50000000E-01  8.50000000E-01  8.50000000E-01  8.50000000E-01  8.50000000E-01
  8.50000000E-01  8.50000000E-01  8.50000000E-01  8.50000000E-01  8.50000000E-01
  8.50000000E-01  8.50000000E-01  8.50000000E-01  8.50000000E-01  8.50000000E-01
  8.50000000E-01  8.50000000E-01  8.50000000E-01  8.50000000E-01  8.50000000E-01
  8.50000000E-01  8.50000000E-01  8.50000000E-01  8.50000000E-01  8.50000000E-01
  8.50000000E-01  8.50000000E-01  8.50000000E-01  8.50000000E-01  8.50000000E-01
  8.50000000E-01  8.50000000E-01  8.50000000E-01  8.50000000E-01  8.50000000E-01
  8.50000000E-01  8.50000000E-01  8.50000000E-01  8.50000000E-01  8.50000000E-01
  8.50000000E-01  8.50000000E-01  8.50000000E-01  8.50000000E-01  8.50000000E-01
  8.50000000E-01  8.50000000E-01  8.50000000E-01  8.50000000E-01  8.50000000E-01
  8.50000000E-01  8.50000000E-01  8.50000000E-01  8.50000000E-01  8.50000000E-01
  8.50000000E-01  8.50000000E-01  8.50000000E-01  8.50000000E-01  8.50000000E-01
  8.50000000E-01  8.50000000E-01  8.50000000E-01  8.50000000E-01  8.50000000E-01
  8.50000000E-01  8.50000000E-01  8.50000000E-01  8.50000000E-01  8.50000000E-01
  8.50000000E-01  8.50000000E-01  8.50000000E-01  8.50000000E-01  8.50000000E-01
  8.50000000E-01  8.50000000E-01  8.50000000E-01  8.50000000E-01  8.50000000E-01
  8.50000000E-01  8.50000000E-01  8.50000000E-01  8.50000000E-01  8.50000000E-01
  8.50000000E-01  8.50000000E-01  8.50000000E-01  8.50000000E-01  8.50000000E-01
  8.50000000E-01  8.50000000E-01  8.50000000E-01  8.50000000E-01  8.50000000E-01
  8.50000000E-01  8.50000000E-01  8.50000000E-01  8.50000000E-01  8.50000000E-01
  8.50000000E-01  8.50000000E-01  8.50000000E-01  8.50000000E-01  8.50000000E-01
  8.50000000E-01  8.50000000E-01  8.50000000E-01  8.50000000E-01  8.50000000E-01
  8.50000000E-01  8.50000000E-01  8.50000000E-01  8.50000000E-01  8.50000000E-01
  8.50000000E-01  8.50000000E-01  8.50000000E-01  8.50000000E-01  8.50000000E-01
  8.50000000E-01  8.50000000E-01  8.50000000E-01  8.50000000E-01  8.50000000E-01
  8.50000000E-01  8.50000000E-01  8.50000000E-01  8.50000000E-01  8.50000000E-01
  8.50000000E-01  8.50000000E-01  8.50000000E-01  8.50000000E-01  8.50000000E-01
  8.50000000E-01  8.50000000E-01  8.50000000E-01  8.50000000E-01  8.50000000E-01
  8.50000000E-01  8.50000000E-01  8.50000000E-01  8.50000000E-01  8.50000000E-01
  8.50000000E-01  8.50000000E-01  8.50000000E-01  8.50000000E-01  8.50000000E-01
  8.50000000E-01  8.50000000E-01  8.50000000E-01  8.50000000E-01  8.50000000E-01
  8.50000000E-01  8.50000000E-01  8.50000000E-01  8.50000000E-01  8.50000000E-01
  8.50000000E-01  8.50000000E-01  8.50000000E-01  8.50000000E-01  8.50000000E-01
  8.50000000E-01  8.50000000E-01  8.50000000E-01  8.50000000E-01  8.50000000E-01
  8.50000000E-01  8.50000000E-01  8.50000000E-01  8.50000000E-01  8.50000000E-01
  8.50000000E-01  8.50000000E-01  8.50000000E-01  8.50000000E-01  8.50000000E-01
  8.50000000E-01  8.50000000E-01  8.50000000E-01  8.50000000E-01  8.50000000E-01
  8.50000000E-01  8.50000000E-01  8.50000000E-01  8.50000000E-01  8.50000000E-01
  8.50000000E-01  8.50000000E-01  8.50000000E-01  8.50000000E-01  8.50000000E-01
  8.50000000E-01  8.50000000E-01  8.50000000E-01  8.50000000E-01  8.50000000E-01
  8.50000000E-01  8.50000000E-01  8.50000000E-01  8.50000000E-01  8.50000000E-01
  8.50000000E-01  8.50000000E-01  8.50000000E-01  8.50000000E-01  8.50000000E-01
  8.50000000E-01  8.50000000E-01  8.50000000E-01  8.50000000E-01  8.50000000E-01
  8.50000000E-01  8.50000000E-01  8.50000000E-01  8.50000000E-01  8.50000000E-01
  8.50000000E-01  8.50000000E-01  8.50000000E-01  8.50000000E-01  8.50000000E-01
  8.50000000E-01  8.50000000E-01  8.50000000E-01  8.50000000E-01  8.50000000E-01
  8.50000000E-01  8.50000000E-01  8.50000000E-01  8.50000000E-01  8.50000000E-01
  8.50000000E-01  8.50000000E-01  8.50000000E-01  8.50000000E-01  8.50000000E-01
  8.50000000E-01  8.50000000E-01  8.50000000E-01  8.50000000E-01  8.50000000E-01
  8.50000000E-01  8.50000000E-01  8.50000000E-01  8.50000000E-01  8.50000000E-01
  8.50000000E-01  8.50000000E-01  8.50000000E-01  8.50000000E-01  8.50000000E-01
  8.50000000E-01  8.50000000E-01  8.50000000E-01  8.50000000E-01  8.50000000E-01
  8.50000000E-01  8.50000000E-01  8.50000000E-01  8.50000000E-01  8.50000000E-01
  8.50000000E-01  8.50000000E-01  8.50000000E-01  8.50000000E-01  8.50000000E-01
  8.50000000E-01  8.50000000E-01  8.50000000E-01  8.50000000E-01  8.50000000E-01
  8.50000000E-01  8.50000000E-01  8.50000000E-01  8.50000000E-01  8.50000000E-01
  8.50000000E-01  8.50000000E-01  8.50000000E-01  8.50000000E-01  8.50000000E-01
  8.50000000E-01  8.50000000E-01  8.50000000E-01  8.50000000E-01  8.50000000E-01
  8.50000000E-01  8.50000000E-01  8.50000000E-01  8.50000000E-01  8.50000000E-01
  8.50000000E-01  8.50000000E-01  8.50000000E-01  8.50000000E-01  8.50000000E-01
  8.50000000E-01  8.50000000E-01  8.50000000E-01  8.50000000E-01  8.50000000E-01
  8.50000000E-01  8.50000000E-01  8.50000000E-01  8.50000000E-01  8.50000000E-01
  8.50000000E-01  8.50000000E-01  8.50000000E-01  8.50000000E-01  8.50000000E-01
  8.50000000E-01  8.50000000E-01  8.50000000E-01  8.50000000E-01  8.50000000E-01
  8.50000000E-01  8.50000000E-01  8.50000000E-01  8.50000000E-01  8.50000000E-01
  8.50000000E-01  8.50000000E-01  8.50000000E-01  8.50000000E-01  8.50000000E-01
  8.50000000E-01  8.50000000E-01  8.50000000E-01  8.50000000E-01  8.50000000E-01
  8.50000000E-01  8.50000000E-01  8.50000000E-01  8.50000000E-01  8.50000000E-01
  8.50000000E-01  8.50000000E-01  8.50000000E-01  8.50000000E-01  8.50000000E-01
  8.50000000E-01  8.50000000E-01  8.50000000E-01  8.50000000E-01  8.50000000E-01
  8.50000000E-01  8.50000000E-01  8.50000000E-01  8.50000000E-01  8.50000000E-01
  8.50000000E-01  8.50000000E-01  8.50000000E-01  8.50000000E-01  8.50000000E-01
  8.50000000E-01  8.50000000E-01  8.50000000E-01  8.50000000E-01  8.50000000E-01
  8.50000000E-01  8.50000000E-01  8.50000000E-01  8.50000000E-01  8.50000000E-01
  8.50000000E-01  8.50000000E-01  8.50000000E-01  8.50000000E-01  8.50000000E-01
  8.50000000E-01  8.50000000E-01  8.50000000E-01  8.50000000E-01  8.50000000E-01
  8.50000000E-01  8.50000000E-01  8.50000000E-01  8.50000000E-01  8.50000000E-01
  8.50000000E-01  8.50000000E-01  8.50000000E-01  8.50000000E-01  8.50000000E-01
  8.50000000E-01  8.50000000E-01  8.50000000E-01  8.50000000E-01  8.50000000E-01
  8.50000000E-01  8.50000000E-01  8.50000000E-01  8.50000000E-01  8.50000000E-01
  8.50000000E-01  8.50000000E-01  8.50000000E-01  8.50000000E-01  8.50000000E-01
  8.50000000E-01  8.50000000E-01  8.50000000E-01  8.50000000E-01  8.50000000E-01
  8.50000000E-01  8.50000000E-01  8.50000000E-01  8.50000000E-01  8.50000000E-01
  8.50000000E-01  8.50000000E-01  8.50000000E-01  8.50000000E-01  8.50000000E-01
  8.50000000E-01  8.50000000E-01  8.50000000E-01  8.50000000E-01  8.50000000E-01
  8.50000000E-01  8.50000000E-01  8.50000000E-01  8.50000000E-01  8.50000000E-01
  8.50000000E-01  8.50000000E-01  8.50000000E-01  8.50000000E-01  8.50000000E-01
  8.50000000E-01  8.50000000E-01  8.50000000E-01  8.50000000E-01  8.50000000E-01
  8.50000000E-01  8.50000000E-01  8.50000000E-01  8.50000000E-01  8.50000000E-01
  8.50000000E-01  8.50000000E-01  8.50000000E-01  8.50000000E-01  8.50000000E-01
  8.50000000E-01  8.50000000E-01  8.50000000E-01  8.50000000E-01  8.50000000E-01
  8.50000000E-01  8.50000000E-01  8.50000000E-01  8.50000000E-01  8.50000000E-01
  8.50000000E-01  8.50000000E-01  8.50000000E-01  8.50000000E-01  8.50000000E-01
  8.50000000E-01  8.50000000E-01  8.50000000E-01  8.50000000E-01  8.50000000E-01
  8.50000000E-01  8.50000000E-01  8.50000000E-01  8.50000000E-01  8.50000000E-01
  8.50000000E-01  8.50000000E-01  8.50000000E-01  8.50000000E-01  8.50000000E-01
  8.50000000E-01  8.50000000E-01  8.50000000E-01  8.50000000E-01  8.50000000E-01
  8.50000000E-01  8.50000000E-01  8.50000000E-01  8.50000000E-01  8.50000000E-01
  8.50000000E-01  8.50000000E-01  8.50000000E-01  8.50000000E-01  8.50000000E-01
  8.50000000E-01  8.50000000E-01  8.50000000E-01  8.50000000E-01  8.50000000E-01
  8.50000000E-01  8.50000000E-01  8.50000000E-01  8.50000000E-01  8.50000000E-01
  8.50000000E-01  8.50000000E-01  8.50000000E-01  8.50000000E-01  8.50000000E-01
  8.50000000E-01  8.50000000E-01  8.50000000E-01  8.50000000E-01  8.50000000E-01
  8.50000000E-01  8.50000000E-01  8.50000000E-01  8.50000000E-01  8.50000000E-01
  8.50000000E-01  8.50000000E-01  8.50000000E-01  8.50000000E-01  8.50000000E-01
  8.50000000E-01  8.50000000E-01  8.50000000E-01  8.50000000E-01  8.50000000E-01
  8.50000000E-01  8.50000000E-01  8.50000000E-01  8.50000000E-01  8.50000000E-01
  8.50000000E-01  8.50000000E-01  8.50000000E-01  8.50000000E-01  8.50000000E-01
  8.50000000E-01  8.50000000E-01  8.50000000E-01  8.50000000E-01  8.50000000E-01
  8.50000000E-01  8.50000000E-01  8.50000000E-01  8.50000000E-01  8.50000000E-01
  8.50000000E-01  8.50000000E-01  8.50000000E-01  8.50000000E-01  8.50000000E-01
  8.50000000E-01  8.50000000E-01  8.50000000E-01  8.50000000E-01  8.50000000E-01
  8.50000000E-01  8.50000000E-01  8.50000000E-01  8.50000000E-01  8.50000000E-01
  8.50000000E-01  8.50000000E-01  8.50000000E-01  8.50000000E-01  8.50000000E-01
  8.50000000E-01  8.50000000E-01  8.50000000E-01  8.50000000E-01  8.50000000E-01
  8.50000000E-01  8.50000000E-01  8.50000000E-01  8.50000000E-01  8.50000000E-01
  8.50000000E-01  8.50000000E-01  8.50000000E-01  8.50000000E-01  8.50000000E-01
  8.50000000E-01  8.50000000E-01  8.50000000E-01  8.50000000E-01  8.50000000E-01
  8.50000000E-01  8.50000000E-01  8.50000000E-01  8.50000000E-01  8.50000000E-01
  8.50000000E-01  8.50000000E-01  8.50000000E-01  8.50000000E-01  8.50000000E-01
  8.50000000E-01  8.50000000E-01  8.50000000E-01  8.50000000E-01  8.50000000E-01
  8.50000000E-01  8.50000000E-01  8.50000000E-01  8.50000000E-01  8.50000000E-01
  8.50000000E-01  8.50000000E-01  8.50000000E-01  8.50000000E-01  8.50000000E-01
  8.50000000E-01  8.50000000E-01  8.50000000E-01  8.50000000E-01  8.50000000E-01
  8.50000000E-01  8.50000000E-01  8.50000000E-01  8.50000000E-01  8.50000000E-01
  8.50000000E-01  8.50000000E-01  8.50000000E-01  8.50000000E-01  8.50000000E-01
  8.50000000E-01  8.50000000E-01  8.50000000E-01  8.50000000E-01  8.50000000E-01
  8.50000000E-01  8.50000000E-01  8.50000000E-01  8.50000000E-01  8.50000000E-01
  8.50000000E-01  8.50000000E-01  8.50000000E-01  8.50000000E-01  8.50000000E-01
  8.50000000E-01  8.50000000E-01  8.50000000E-01  8.50000000E-01  8.50000000E-01
  8.50000000E-01  8.50000000E-01  8.50000000E-01  8.50000000E-01  8.50000000E-01
  8.50000000E-01  8.50000000E-01  8.50000000E-01  8.50000000E-01  8.50000000E-01
  8.50000000E-01  8.50000000E-01  8.50000000E-01  8.50000000E-01  8.50000000E-01
  8.50000000E-01  8.50000000E-01  8.50000000E-01  8.50000000E-01  8.50000000E-01
  8.50000000E-01  8.50000000E-01  8.50000000E-01  8.50000000E-01  8.50000000E-01
  8.50000000E-01  8.50000000E-01  8.50000000E-01  8.50000000E-01  8.50000000E-01
  8.50000000E-01  8.50000000E-01  8.50000000E-01  8.50000000E-01  8.50000000E-01
  8.50000000E-01  8.50000000E-01  8.50000000E-01  8.50000000E-01  8.50000000E-01
  8.50000000E-01  8.50000000E-01  8.50000000E-01  8.50000000E-01  8.50000000E-01
  8.50000000E-01  8.50000000E-01  8.50000000E-01  8.50000000E-01  8.50000000E-01
  8.50000000E-01  8.50000000E-01  8.50000000E-01  8.50000000E-01  8.50000000E-01
  8.50000000E-01  8.50000000E-01  8.50000000E-01  8.50000000E-01  8.50000000E-01
  8.50000000E-01  8.50000000E-01  8.50000000E-01  8.50000000E-01  8.50000000E-01
  8.50000000E-01  8.50000000E-01  8.50000000E-01  8.50000000E-01  8.50000000E-01
  8.50000000E-01  8.50000000E-01  8.50000000E-01  8.50000000E-01  8.50000000E-01
  8.50000000E-01  8.50000000E-01  8.50000000E-01  8.50000000E-01  8.50000000E-01
  8.50000000E-01  8.50000000E-01  8.50000000E-01  8.50000000E-01  8.50000000E-01
  8.50000000E-01  8.50000000E-01  8.50000000E-01  8.50000000E-01  8.50000000E-01
  8.50000000E-01  8.50000000E-01  8.50000000E-01  8.50000000E-01  8.50000000E-01
  8.50000000E-01  8.50000000E-01  8.50000000E-01  8.50000000E-01  8.50000000E-01
  8.50000000E-01  8.50000000E-01  8.50000000E-01  8.50000000E-01  8.50000000E-01
  8.50000000E-01  8.50000000E-01  8.50000000E-01  8.50000000E-01  8.50000000E-01
  8.50000000E-01  8.50000000E-01  8.50000000E-01  8.50000000E-01  8.50000000E-01
  8.50000000E-01  8.50000000E-01  8.50000000E-01  8.50000000E-01  8.50000000E-01
  8.50000000E-01  8.50000000E-01  8.50000000E-01  8.50000000E-01  8.50000000E-01
  8.50000000E-01  8.50000000E-01  8.50000000E-01  8.50000000E-01  8.50000000E-01
  8.50000000E-01  8.50000000E-01  8.50000000E-01  8.50000000E-01  8.50000000E-01
  8.50000000E-01  8.50000000E-01  8.50000000E-01  8.50000000E-01  8.50000000E-01
  8.50000000E-01  8.50000000E-01  8.50000000E-01  8.50000000E-01  8.50000000E-01
  8.50000000E-01  8.50000000E-01  8.50000000E-01  8.50000000E-01  8.50000000E-01
  8.50000000E-01  8.50000000E-01  8.50000000E-01  8.50000000E-01  8.50000000E-01
  8.50000000E-01  8.50000000E-01  8.50000000E-01  8.50000000E-01  8.50000000E-01
  8.50000000E-01  8.50000000E-01  8.50000000E-01  8.50000000E-01  8.50000000E-01
  8.50000000E-01  8.50000000E-01  8.50000000E-01  8.50000000E-01  8.50000000E-01
  8.50000000E-01  8.50000000E-01  8.50000000E-01  8.50000000E-01  8.50000000E-01
  8.50000000E-01  8.50000000E-01  8.50000000E-01  8.50000000E-01  8.50000000E-01
  8.50000000E-01  8.50000000E-01  8.50000000E-01  8.50000000E-01  8.50000000E-01
  8.50000000E-01  8.50000000E-01  8.50000000E-01  8.50000000E-01  8.50000000E-01
  8.50000000E-01  8.50000000E-01  8.50000000E-01  8.50000000E-01  8.50000000E-01
  8.50000000E-01  8.50000000E-01  8.50000000E-01  8.50000000E-01  8.50000000E-01
  8.50000000E-01  8.50000000E-01  8.50000000E-01  8.50000000E-01  8.50000000E-01
  8.50000000E-01  8.50000000E-01  8.50000000E-01  8.50000000E-01  8.50000000E-01
  8.50000000E-01  8.50000000E-01  8.50000000E-01  8.50000000E-01  8.50000000E-01
  8.50000000E-01  8.50000000E-01  8.50000000E-01  8.50000000E-01  8.50000000E-01
  8.50000000E-01  8.50000000E-01  8.50000000E-01  8.50000000E-01  8.50000000E-01
  8.50000000E-01  8.50000000E-01  8.50000000E-01  8.50000000E-01  8.50000000E-01
  8.50000000E-01  8.50000000E-01  8.50000000E-01  8.50000000E-01  8.50000000E-01
  8.50000000E-01  8.50000000E-01  8.50000000E-01  8.50000000E-01  8.50000000E-01
  8.50000000E-01  8.50000000E-01  8.50000000E-01  8.50000000E-01  8.50000000E-01
  8.50000000E-01  8.50000000E-01  8.50000000E-01  8.50000000E-01  8.50000000E-01
  8.50000000E-01  8.50000000E-01  8.50000000E-01  8.50000000E-01  8.50000000E-01
  8.50000000E-01  8.50000000E-01  8.50000000E-01  8.50000000E-01  8.50000000E-01
  8.50000000E-01  8.50000000E-01  8.50000000E-01  8.50000000E-01  8.50000000E-01
  8.50000000E-01  8.50000000E-01  8.50000000E-01  8.50000000E-01  8.50000000E-01
  8.50000000E-01  8.50000000E-01  8.50000000E-01  8.50000000E-01  8.50000000E-01
  8.50000000E-01  8.50000000E-01  8.50000000E-01  8.50000000E-01  8.50000000E-01
  8.50000000E-01  8.50000000E-01  8.50000000E-01  8.50000000E-01  8.50000000E-01
  8.50000000E-01  8.50000000E-01  8.50000000E-01  8.50000000E-01  8.50000000E-01
  8.50000000E-01  8.50000000E-01  8.50000000E-01  8.50000000E-01  8.50000000E-01
  8.50000000E-01  8.50000000E-01  8.50000000E-01  8.50000000E-01  8.50000000E-01
  8.50000000E-01  8.50000000E-01  8.50000000E-01  8.50000000E-01  8.50000000E-01
  8.50000000E-01  8.50000000E-01  8.50000000E-01  8.50000000E-01  8.50000000E-01
  8.50000000E-01  8.50000000E-01  8.50000000E-01  8.50000000E-01  8.50000000E-01
  8.50000000E-01  8.50000000E-01  8.50000000E-01  8.50000000E-01  8.50000000E-01
  8.50000000E-01  8.50000000E-01  8.50000000E-01  8.50000000E-01  8.50000000E-01
  8.50000000E-01  8.50000000E-01  8.50000000E-01  8.50000000E-01  8.50000000E-01
  8.50000000E-01  8.50000000E-01  8.50000000E-01  8.50000000E-01  8.50000000E-01
  8.50000000E-01  8.50000000E-01  8.50000000E-01  8.50000000E-01  8.50000000E-01
  8.50000000E-01  8.50000000E-01  8.50000000E-01  8.50000000E-01  8.50000000E-01
  8.50000000E-01  8.50000000E-01  8.50000000E-01  8.50000000E-01  8.50000000E-01
  8.50000000E-01  8.50000000E-01  8.50000000E-01  8.50000000E-01  8.50000000E-01
  8.50000000E-01  8.50000000E-01  8.50000000E-01  8.50000000E-01  8.50000000E-01
  8.50000000E-01  8.50000000E-01  8.50000000E-01  8.50000000E-01  8.50000000E-01
  8.50000000E-01  8.50000000E-01  8.50000000E-01  8.50000000E-01  8.50000000E-01
  8.50000000E-01  8.50000000E-01  8.50000000E-01  8.50000000E-01  8.50000000E-01
  8.50000000E-01  8.50000000E-01  8.50000000E-01  8.50000000E-01  8.50000000E-01
  8.50000000E-01  8.50000000E-01  8.50000000E-01  8.50000000E-01  8.50000000E-01
  8.50000000E-01  8.50000000E-01  8.50000000E-01  8.50000000E-01  8.50000000E-01
  8.50000000E-01  8.50000000E-01  8.50000000E-01  8.50000000E-01  8.50000000E-01
  8.50000000E-01  8.50000000E-01  8.50000000E-01  8.50000000E-01  8.50000000E-01
  8.50000000E-01  8.50000000E-01  8.50000000E-01  8.50000000E-01  8.50000000E-01
  8.50000000E-01  8.50000000E-01  8.50000000E-01  8.50000000E-01  8.50000000E-01
  8.50000000E-01  8.50000000E-01  8.50000000E-01  8.50000000E-01  8.50000000E-01
  8.50000000E-01  8.50000000E-01  8.50000000E-01  8.50000000E-01  8.50000000E-01
  8.50000000E-01  8.50000000E-01  8.50000000E-01  8.50000000E-01  8.50000000E-01
  8.50000000E-01  8.50000000E-01  8.50000000E-01  8.50000000E-01  8.50000000E-01
  8.50000000E-01  8.50000000E-01  8.50000000E-01  8.50000000E-01  8.50000000E-01
  8.50000000E-01  8.50000000E-01  8.50000000E-01  8.50000000E-01  8.50000000E-01
  8.50000000E-01  8.50000000E-01  8.50000000E-01  8.50000000E-01  8.50000000E-01
  8.50000000E-01  8.50000000E-01  8.50000000E-01  8.50000000E-01  8.50000000E-01
  8.50000000E-01  8.50000000E-01  8.50000000E-01  8.50000000E-01  8.50000000E-01
  8.50000000E-01  8.50000000E-01  8.50000000E-01  8.50000000E-01  8.50000000E-01
  8.50000000E-01  8.50000000E-01  8.50000000E-01  8.50000000E-01  8.50000000E-01
  8.50000000E-01  8.50000000E-01  8.50000000E-01  8.50000000E-01  8.50000000E-01
  8.50000000E-01  8.50000000E-01  8.50000000E-01  8.50000000E-01  8.50000000E-01
  8.50000000E-01  8.50000000E-01  8.50000000E-01  8.50000000E-01  8.50000000E-01
  8.50000000E-01  8.50000000E-01  8.50000000E-01  8.50000000E-01  8.50000000E-01
  8.50000000E-01  8.50000000E-01  8.50000000E-01  8.50000000E-01  8.50000000E-01
  8.50000000E-01  8.50000000E-01  8.50000000E-01  8.50000000E-01  8.50000000E-01
  8.50000000E-01  8.50000000E-01  8.50000000E-01  8.50000000E-01  8.50000000E-01
  8.50000000E-01  8.50000000E-01  8.50000000E-01  8.50000000E-01  8.50000000E-01
  8.50000000E-01  8.50000000E-01  8.50000000E-01  8.50000000E-01  8.50000000E-01
  8.50000000E-01  8.50000000E-01  8.50000000E-01  8.50000000E-01  8.50000000E-01
  8.50000000E-01  8.50000000E-01  8.50000000E-01  8.50000000E-01  8.50000000E-01
  8.50000000E-01  8.50000000E-01  8.50000000E-01  8.50000000E-01  8.50000000E-01
  8.50000000E-01  8.50000000E-01  8.50000000E-01  8.50000000E-01  8.50000000E-01
  8.50000000E-01  8.50000000E-01  8.50000000E-01  8.50000000E-01  8.50000000E-01
  8.50000000E-01  8.50000000E-01  8.50000000E-01  8.50000000E-01  8.50000000E-01
  8.50000000E-01  8.50000000E-01  8.50000000E-01  8.50000000E-01  8.50000000E-01
  8.50000000E-01  8.50000000E-01  8.50000000E-01  8.50000000E-01  8.50000000E-01
  8.50000000E-01  8.50000000E-01  8.50000000E-01  8.50000000E-01  8.50000000E-01
  8.50000000E-01  8.50000000E-01  8.50000000E-01  8.50000000E-01  8.50000000E-01
  8.50000000E-01  8.50000000E-01  8.50000000E-01  8.50000000E-01  8.50000000E-01
  8.50000000E-01  8.50000000E-01  8.50000000E-01  8.50000000E-01  8.50000000E-01
  8.50000000E-01  8.50000000E-01  8.50000000E-01  8.50000000E-01  8.50000000E-01
  8.50000000E-01  8.50000000E-01  8.50000000E-01  8.50000000E-01  8.50000000E-01
  8.50000000E-01  8.50000000E-01  8.50000000E-01  8.50000000E-01  8.50000000E-01
  8.50000000E-01  8.50000000E-01  8.50000000E-01  8.50000000E-01  8.50000000E-01
  8.50000000E-01  8.50000000E-01  8.50000000E-01  8.50000000E-01  8.50000000E-01
  8.50000000E-01  8.50000000E-01  8.50000000E-01  8.50000000E-01  8.50000000E-01
  8.50000000E-01  8.50000000E-01  8.50000000E-01  8.50000000E-01  8.50000000E-01
  8.50000000E-01  8.50000000E-01  8.50000000E-01  8.50000000E-01  8.50000000E-01
  8.50000000E-01  8.50000000E-01  8.50000000E-01  8.50000000E-01  8.50000000E-01
  8.50000000E-01  8.50000000E-01  8.50000000E-01  8.50000000E-01  8.50000000E-01
  8.50000000E-01  8.50000000E-01  8.50000000E-01  8.50000000E-01  8.50000000E-01
  8.50000000E-01  8.50000000E-01  8.50000000E-01  8.50000000E-01  8.50000000E-01
  8.50000000E-01  8.50000000E-01  8.50000000E-01  8.50000000E-01  8.50000000E-01
  8.50000000E-01  8.50000000E-01  8.50000000E-01  8.50000000E-01  8.50000000E-01
  8.50000000E-01  8.50000000E-01  8.50000000E-01  8.50000000E-01  8.50000000E-01
  8.50000000E-01  8.50000000E-01  8.50000000E-01  8.50000000E-01  8.50000000E-01
  8.50000000E-01  8.50000000E-01  8.50000000E-01  8.50000000E-01  8.50000000E-01
  8.50000000E-01  8.50000000E-01  8.50000000E-01  8.50000000E-01  8.50000000E-01
  8.50000000E-01  8.50000000E-01  8.50000000E-01  8.50000000E-01  8.50000000E-01
  8.50000000E-01  8.50000000E-01  8.50000000E-01  8.50000000E-01  8.50000000E-01
  8.50000000E-01  8.50000000E-01  8.50000000E-01  8.50000000E-01  8.50000000E-01
  8.50000000E-01  8.50000000E-01  8.50000000E-01  8.50000000E-01  8.50000000E-01
  8.50000000E-01  8.50000000E-01  8.50000000E-01  8.50000000E-01  8.50000000E-01
  8.50000000E-01  8.50000000E-01  8.50000000E-01  8.50000000E-01  8.50000000E-01
  8.50000000E-01  8.50000000E-01  8.50000000E-01  8.50000000E-01  8.50000000E-01
  8.50000000E-01  8.50000000E-01  8.50000000E-01  8.50000000E-01  8.50000000E-01
  8.50000000E-01  8.50000000E-01  8.50000000E-01  8.50000000E-01  8.50000000E-01
  8.50000000E-01  8.50000000E-01  8.50000000E-01  8.50000000E-01  8.50000000E-01
  8.50000000E-01  8.50000000E-01  8.50000000E-01  8.50000000E-01  8.50000000E-01
  8.50000000E-01  8.50000000E-01  8.50000000E-01  8.50000000E-01  8.50000000E-01
  8.50000000E-01  8.50000000E-01  8.50000000E-01  8.50000000E-01  8.50000000E-01
  8.50000000E-01  8.50000000E-01  8.50000000E-01  8.50000000E-01  8.50000000E-01
  8.50000000E-01  8.50000000E-01  8.50000000E-01  8.50000000E-01  8.50000000E-01
  8.50000000E-01  8.50000000E-01  8.50000000E-01  8.50000000E-01  8.50000000E-01
  8.50000000E-01  8.50000000E-01  8.50000000E-01  8.50000000E-01  8.50000000E-01
  8.50000000E-01  8.50000000E-01  8.50000000E-01  8.50000000E-01  8.50000000E-01
  8.50000000E-01  8.50000000E-01  8.50000000E-01  8.50000000E-01  8.50000000E-01
  8.50000000E-01  8.50000000E-01  8.50000000E-01  8.50000000E-01  8.50000000E-01
  8.50000000E-01  8.50000000E-01  8.50000000E-01  8.50000000E-01  8.50000000E-01
  8.50000000E-01  8.50000000E-01  8.50000000E-01  8.50000000E-01  8.50000000E-01
  8.50000000E-01  8.50000000E-01  8.50000000E-01  8.50000000E-01  8.50000000E-01
  8.50000000E-01  8.50000000E-01  8.50000000E-01  8.50000000E-01  8.50000000E-01
  8.50000000E-01  8.50000000E-01  8.50000000E-01  8.50000000E-01  8.50000000E-01
  8.50000000E-01  8.50000000E-01  8.50000000E-01  8.50000000E-01  8.50000000E-01
  8.50000000E-01  8.50000000E-01  8.50000000E-01  8.50000000E-01  8.50000000E-01
  8.50000000E-01  8.50000000E-01  8.50000000E-01  8.50000000E-01  8.50000000E-01
  8.50000000E-01  8.50000000E-01  8.50000000E-01  8.50000000E-01  8.50000000E-01
  8.50000000E-01  8.50000000E-01  8.50000000E-01  8.50000000E-01  8.50000000E-01
  8.50000000E-01  8.50000000E-01  8.50000000E-01  8.50000000E-01  8.50000000E-01
  8.50000000E-01  8.50000000E-01  8.50000000E-01  8.50000000E-01  8.50000000E-01
  8.50000000E-01  8.50000000E-01  8.50000000E-01  8.50000000E-01  8.50000000E-01
  8.50000000E-01  8.50000000E-01  8.50000000E-01  8.50000000E-01  8.50000000E-01
  8.50000000E-01  8.50000000E-01  8.50000000E-01  8.50000000E-01  8.50000000E-01
  8.50000000E-01  8.50000000E-01  8.50000000E-01  8.50000000E-01  8.50000000E-01
  8.50000000E-01  8.50000000E-01  8.50000000E-01  8.50000000E-01  8.50000000E-01
  8.50000000E-01  8.50000000E-01  8.50000000E-01  8.50000000E-01  8.50000000E-01
  8.50000000E-01  8.50000000E-01  8.50000000E-01  8.50000000E-01  8.50000000E-01
  8.50000000E-01  8.50000000E-01  8.50000000E-01  8.50000000E-01  8.50000000E-01
  8.50000000E-01  8.50000000E-01  8.50000000E-01  8.50000000E-01  8.50000000E-01
  8.50000000E-01  8.50000000E-01  8.50000000E-01  8.50000000E-01  8.50000000E-01
  8.50000000E-01  8.50000000E-01  8.50000000E-01  8.50000000E-01  8.50000000E-01
  8.50000000E-01  8.50000000E-01  8.50000000E-01  8.50000000E-01  8.50000000E-01
  8.50000000E-01  8.50000000E-01  8.50000000E-01  8.50000000E-01  8.50000000E-01
  8.50000000E-01  8.50000000E-01  8.50000000E-01  8.50000000E-01  8.50000000E-01
  8.50000000E-01  8.50000000E-01  8.50000000E-01  8.50000000E-01  8.50000000E-01
  8.50000000E-01  8.50000000E-01  8.50000000E-01  8.50000000E-01  8.50000000E-01
  8.50000000E-01  8.50000000E-01  8.50000000E-01  8.50000000E-01  8.50000000E-01
  8.50000000E-01  8.50000000E-01  8.50000000E-01  8.50000000E-01  8.50000000E-01
  8.50000000E-01  8.50000000E-01  8.50000000E-01  8.50000000E-01  8.50000000E-01
  8.50000000E-01  8.50000000E-01  8.50000000E-01  8.50000000E-01  8.50000000E-01
  8.50000000E-01  8.50000000E-01  8.50000000E-01  8.50000000E-01  8.50000000E-01
  8.50000000E-01  8.50000000E-01  8.50000000E-01  8.50000000E-01  8.50000000E-01
  8.50000000E-01  8.50000000E-01  8.50000000E-01  8.50000000E-01  8.50000000E-01
  8.50000000E-01  8.50000000E-01  8.50000000E-01  8.50000000E-01  8.50000000E-01
  8.50000000E-01  8.50000000E-01  8.50000000E-01  8.50000000E-01  8.50000000E-01
  8.50000000E-01  8.50000000E-01  8.50000000E-01  8.50000000E-01  8.50000000E-01
  8.50000000E-01  8.50000000E-01  8.50000000E-01  8.50000000E-01  8.50000000E-01
  8.50000000E-01  8.50000000E-01  8.50000000E-01  8.50000000E-01  8.50000000E-01
  8.50000000E-01  8.50000000E-01  8.50000000E-01  8.50000000E-01  8.50000000E-01
  8.50000000E-01  8.50000000E-01  8.50000000E-01  8.50000000E-01  8.50000000E-01
  8.50000000E-01  8.50000000E-01  8.50000000E-01  8.50000000E-01  8.50000000E-01
  8.50000000E-01  8.50000000E-01  8.50000000E-01  8.50000000E-01  8.50000000E-01
  8.50000000E-01  8.50000000E-01  8.50000000E-01  8.50000000E-01  8.50000000E-01
  8.50000000E-01  8.50000000E-01  8.50000000E-01  8.50000000E-01  8.50000000E-01
  8.50000000E-01  8.50000000E-01  8.50000000E-01  8.50000000E-01  8.50000000E-01
  8.50000000E-01  8.50000000E-01  8.50000000E-01  8.50000000E-01  8.50000000E-01
  8.50000000E-01  8.50000000E-01  8.50000000E-01  8.50000000E-01  8.50000000E-01
  8.50000000E-01  8.50000000E-01  8.50000000E-01  8.50000000E-01  8.50000000E-01
  8.50000000E-01  8.50000000E-01  8.50000000E-01  8.50000000E-01  8.50000000E-01
  8.50000000E-01  8.50000000E-01  8.50000000E-01  8.50000000E-01  8.50000000E-01
  8.50000000E-01  8.50000000E-01  8.50000000E-01  8.50000000E-01  8.50000000E-01
  8.50000000E-01  8.50000000E-01  8.50000000E-01  8.50000000E-01  8.50000000E-01
  8.50000000E-01  8.50000000E-01  8.50000000E-01  8.50000000E-01  8.50000000E-01
  8.50000000E-01  8.50000000E-01  8.50000000E-01  8.50000000E-01  8.50000000E-01
  8.50000000E-01  8.50000000E-01  8.50000000E-01  8.50000000E-01  8.50000000E-01
  8.50000000E-01  8.50000000E-01  8.50000000E-01  8.50000000E-01  8.50000000E-01
  8.50000000E-01  8.50000000E-01  8.50000000E-01  8.50000000E-01  8.50000000E-01
  8.50000000E-01  8.50000000E-01  8.50000000E-01  8.50000000E-01  8.50000000E-01
  8.50000000E-01  8.50000000E-01  8.50000000E-01  8.50000000E-01  8.50000000E-01
  8.50000000E-01  8.50000000E-01  8.50000000E-01  8.50000000E-01  8.50000000E-01
  8.50000000E-01  8.50000000E-01  8.50000000E-01  8.50000000E-01  8.50000000E-01
  8.50000000E-01  8.50000000E-01  8.50000000E-01  8.50000000E-01  8.50000000E-01
  8.50000000E-01  8.50000000E-01  8.50000000E-01  8.50000000E-01  8.50000000E-01
  8.50000000E-01  8.50000000E-01  8.50000000E-01  8.50000000E-01  8.50000000E-01
  8.50000000E-01  8.50000000E-01  8.50000000E-01  8.50000000E-01  8.50000000E-01
  8.50000000E-01  8.50000000E-01  8.50000000E-01  8.50000000E-01  8.50000000E-01
  8.50000000E-01  8.50000000E-01  8.50000000E-01  8.50000000E-01  8.50000000E-01
  8.50000000E-01  8.50000000E-01  8.50000000E-01  8.50000000E-01  8.50000000E-01
  8.50000000E-01  8.50000000E-01  8.50000000E-01  8.50000000E-01  8.50000000E-01
  8.50000000E-01  8.50000000E-01  8.50000000E-01  8.50000000E-01  8.50000000E-01
  8.50000000E-01  8.50000000E-01  8.50000000E-01  8.50000000E-01  8.50000000E-01
  8.50000000E-01  8.50000000E-01  8.50000000E-01  8.50000000E-01  8.50000000E-01
  8.50000000E-01  8.50000000E-01  8.50000000E-01  8.50000000E-01  8.50000000E-01
  8.50000000E-01  8.50000000E-01  8.50000000E-01  8.50000000E-01  8.50000000E-01
  8.50000000E-01  8.50000000E-01  8.50000000E-01  8.50000000E-01  8.50000000E-01
  8.50000000E-01  8.50000000E-01  8.50000000E-01  8.50000000E-01  8.50000000E-01
  8.50000000E-01  8.50000000E-01  8.50000000E-01  8.50000000E-01  8.50000000E-01
  8.50000000E-01  8.50000000E-01  8.50000000E-01  8.50000000E-01  8.50000000E-01
  8.50000000E-01  8.50000000E-01  8.50000000E-01  8.50000000E-01  8.50000000E-01
  8.50000000E-01  8.50000000E-01  8.50000000E-01  8.50000000E-01  8.50000000E-01
  8.50000000E-01  8.50000000E-01  8.50000000E-01  8.50000000E-01  8.50000000E-01
  8.50000000E-01  8.50000000E-01  8.50000000E-01  8.50000000E-01  8.50000000E-01
  8.50000000E-01  8.50000000E-01  8.50000000E-01  8.50000000E-01  8.50000000E-01
  8.50000000E-01  8.50000000E-01  8.50000000E-01  8.50000000E-01  8.50000000E-01
  8.50000000E-01  8.50000000E-01  8.50000000E-01  8.50000000E-01  8.50000000E-01
  8.50000000E-01  8.50000000E-01  8.50000000E-01  8.50000000E-01  8.50000000E-01
  8.50000000E-01  8.50000000E-01  8.50000000E-01  8.50000000E-01  8.50000000E-01
  8.50000000E-01  8.50000000E-01  8.50000000E-01  8.50000000E-01  8.50000000E-01
  8.50000000E-01  8.50000000E-01  8.50000000E-01  8.50000000E-01  8.50000000E-01
  8.50000000E-01  8.50000000E-01  8.50000000E-01  8.50000000E-01  8.50000000E-01
  8.50000000E-01  8.50000000E-01  8.50000000E-01  8.50000000E-01  8.50000000E-01
  8.50000000E-01  8.50000000E-01  8.50000000E-01  8.50000000E-01  8.50000000E-01
  8.50000000E-01  8.50000000E-01  8.50000000E-01  8.50000000E-01  8.50000000E-01
  8.50000000E-01  8.50000000E-01  8.50000000E-01  8.50000000E-01  8.50000000E-01
  8.50000000E-01  8.50000000E-01  8.50000000E-01  8.50000000E-01  8.50000000E-01
  8.50000000E-01  8.50000000E-01  8.50000000E-01  8.50000000E-01  8.50000000E-01
  8.50000000E-01  8.50000000E-01  8.50000000E-01  8.50000000E-01  8.50000000E-01
  8.50000000E-01  8.50000000E-01  8.50000000E-01  8.50000000E-01  8.50000000E-01
  8.50000000E-01  8.50000000E-01  8.50000000E-01  8.50000000E-01  8.50000000E-01
  8.50000000E-01  8.50000000E-01  8.50000000E-01  8.50000000E-01  8.50000000E-01
  8.50000000E-01  8.50000000E-01  8.50000000E-01  8.50000000E-01  8.50000000E-01
  8.50000000E-01  8.50000000E-01  8.50000000E-01  8.50000000E-01  8.50000000E-01
  8.50000000E-01  8.50000000E-01  8.50000000E-01  8.50000000E-01  8.50000000E-01
  8.50000000E-01  8.50000000E-01  8.50000000E-01  8.50000000E-01  8.50000000E-01
  8.50000000E-01  8.50000000E-01  8.50000000E-01  8.50000000E-01  8.50000000E-01
  8.50000000E-01  8.50000000E-01  8.50000000E-01  8.50000000E-01  8.50000000E-01
  8.50000000E-01  8.50000000E-01  8.50000000E-01  8.50000000E-01  8.50000000E-01
  8.50000000E-01  8.50000000E-01  8.50000000E-01  8.50000000E-01  8.50000000E-01
  8.50000000E-01  8.50000000E-01  8.50000000E-01  8.50000000E-01  8.50000000E-01
  8.50000000E-01  8.50000000E-01  8.50000000E-01  8.50000000E-01  8.50000000E-01
  8.50000000E-01  8.50000000E-01  8.50000000E-01  8.50000000E-01  8.50000000E-01
  8.50000000E-01  8.50000000E-01  8.50000000E-01  8.50000000E-01  8.50000000E-01
  8.50000000E-01  8.50000000E-01  8.50000000E-01  8.50000000E-01  8.50000000E-01
  8.50000000E-01  8.50000000E-01  8.50000000E-01  8.50000000E-01  8.50000000E-01
  8.50000000E-01  8.50000000E-01  8.50000000E-01  8.50000000E-01  8.50000000E-01
  8.50000000E-01  8.50000000E-01  8.50000000E-01  8.50000000E-01  8.50000000E-01
  8.50000000E-01  8.50000000E-01  8.50000000E-01  8.50000000E-01  8.50000000E-01
  8.50000000E-01  8.50000000E-01  8.50000000E-01  8.50000000E-01  8.50000000E-01
  8.50000000E-01  8.50000000E-01  8.50000000E-01  8.50000000E-01  8.50000000E-01
  8.50000000E-01  8.50000000E-01  8.50000000E-01  8.50000000E-01  8.50000000E-01
  8.50000000E-01  8.50000000E-01  8.50000000E-01  8.50000000E-01  8.50000000E-01
  8.50000000E-01  8.50000000E-01  8.50000000E-01  8.50000000E-01  8.50000000E-01
  8.50000000E-01  8.50000000E-01  8.50000000E-01  8.50000000E-01  8.50000000E-01
  8.50000000E-01  8.50000000E-01  8.50000000E-01  8.50000000E-01  8.50000000E-01
  8.50000000E-01  8.50000000E-01  8.50000000E-01  8.50000000E-01  8.50000000E-01
  8.50000000E-01  8.50000000E-01  8.50000000E-01  8.50000000E-01  8.50000000E-01
  8.50000000E-01  8.50000000E-01  8.50000000E-01  8.50000000E-01  8.50000000E-01
  8.50000000E-01  8.50000000E-01  8.50000000E-01  8.50000000E-01  8.50000000E-01
  8.50000000E-01  8.50000000E-01  8.50000000E-01  8.50000000E-01  8.50000000E-01
  8.50000000E-01  8.50000000E-01  8.50000000E-01  8.50000000E-01  8.50000000E-01
  8.50000000E-01  8.50000000E-01  8.50000000E-01  8.50000000E-01  8.50000000E-01
  8.50000000E-01  8.50000000E-01  8.50000000E-01  8.50000000E-01  8.50000000E-01
  8.50000000E-01  8.50000000E-01  8.50000000E-01  8.50000000E-01  8.50000000E-01
  8.50000000E-01  8.50000000E-01  8.50000000E-01  8.50000000E-01  8.50000000E-01
  8.50000000E-01  8.50000000E-01  8.50000000E-01  8.50000000E-01  8.50000000E-01
  8.50000000E-01  8.50000000E-01  8.50000000E-01  8.50000000E-01  8.50000000E-01
  8.50000000E-01  8.50000000E-01  8.50000000E-01  8.50000000E-01  8.50000000E-01
  8.50000000E-01  8.50000000E-01  8.50000000E-01  8.50000000E-01  8.50000000E-01
  8.50000000E-01  8.50000000E-01  8.50000000E-01  8.50000000E-01  8.50000000E-01
  8.50000000E-01  8.50000000E-01  8.50000000E-01  8.50000000E-01  8.50000000E-01
  8.50000000E-01  8.50000000E-01  8.50000000E-01  8.50000000E-01  8.50000000E-01
  8.50000000E-01  8.50000000E-01  8.50000000E-01  8.50000000E-01  8.50000000E-01
  8.50000000E-01  8.50000000E-01  8.50000000E-01  8.50000000E-01  8.50000000E-01
  8.50000000E-01  8.50000000E-01  8.50000000E-01  8.50000000E-01  8.50000000E-01
  8.50000000E-01  8.50000000E-01  8.50000000E-01  8.50000000E-01  8.50000000E-01
  8.50000000E-01  8.50000000E-01  8.50000000E-01  8.50000000E-01  8.50000000E-01
  8.50000000E-01  8.50000000E-01  8.50000000E-01  8.50000000E-01  8.50000000E-01
  8.50000000E-01  8.50000000E-01  8.50000000E-01  8.50000000E-01  8.50000000E-01
  8.50000000E-01  8.50000000E-01  8.50000000E-01  8.50000000E-01  8.50000000E-01
  8.50000000E-01  8.50000000E-01  8.50000000E-01  8.50000000E-01  8.50000000E-01
  8.50000000E-01  8.50000000E-01  8.50000000E-01  8.50000000E-01  8.50000000E-01
  8.50000000E-01  8.50000000E-01  8.50000000E-01  8.50000000E-01  8.50000000E-01
  8.50000000E-01  8.50000000E-01  8.50000000E-01  8.50000000E-01  8.50000000E-01
  8.50000000E-01  8.50000000E-01  8.50000000E-01  8.50000000E-01  8.50000000E-01
  8.50000000E-01  8.50000000E-01  8.50000000E-01  8.50000000E-01  8.50000000E-01
  8.50000000E-01  8.50000000E-01  8.50000000E-01  8.50000000E-01  8.50000000E-01
  8.50000000E-01  8.50000000E-01  8.50000000E-01  8.50000000E-01  8.50000000E-01
  8.50000000E-01  8.50000000E-01  8.50000000E-01  8.50000000E-01  8.50000000E-01
  8.50000000E-01  8.50000000E-01  8.50000000E-01  8.50000000E-01  8.50000000E-01
  8.50000000E-01  8.50000000E-01  8.50000000E-01  8.50000000E-01  8.50000000E-01
  8.50000000E-01  8.50000000E-01  8.50000000E-01  8.50000000E-01  8.50000000E-01
  8.50000000E-01  8.50000000E-01  8.50000000E-01  8.50000000E-01  8.50000000E-01
  8.50000000E-01  8.50000000E-01  8.50000000E-01  8.50000000E-01  8.50000000E-01
  8.50000000E-01  8.50000000E-01  8.50000000E-01  8.50000000E-01  8.50000000E-01
  8.50000000E-01  8.50000000E-01  8.50000000E-01  8.50000000E-01  8.50000000E-01
  8.50000000E-01  8.50000000E-01  8.50000000E-01  8.50000000E-01  8.50000000E-01
  8.50000000E-01  8.50000000E-01  8.50000000E-01  8.50000000E-01  8.50000000E-01
  8.50000000E-01  8.50000000E-01  8.50000000E-01  8.50000000E-01  8.50000000E-01
  8.50000000E-01  8.50000000E-01  8.50000000E-01  8.50000000E-01  8.50000000E-01
  8.50000000E-01  8.50000000E-01  8.50000000E-01  8.50000000E-01  8.50000000E-01
  8.50000000E-01  8.50000000E-01  8.50000000E-01  8.50000000E-01  8.50000000E-01
  8.50000000E-01  8.50000000E-01  8.50000000E-01  8.50000000E-01  8.50000000E-01
  8.50000000E-01  8.50000000E-01  8.50000000E-01  8.50000000E-01  8.50000000E-01
  8.50000000E-01  8.50000000E-01  8.50000000E-01  8.50000000E-01  8.50000000E-01
  8.50000000E-01  8.50000000E-01  8.50000000E-01  8.50000000E-01  8.50000000E-01
  8.50000000E-01  8.50000000E-01  8.50000000E-01  8.50000000E-01  8.50000000E-01
  8.50000000E-01  8.50000000E-01  8.50000000E-01  8.50000000E-01  8.50000000E-01
  8.50000000E-01  8.50000000E-01  8.50000000E-01  8.50000000E-01  8.50000000E-01
  8.50000000E-01  8.50000000E-01  8.50000000E-01  8.50000000E-01  8.50000000E-01
  8.50000000E-01  8.50000000E-01  8.50000000E-01  8.50000000E-01  8.50000000E-01
  8.50000000E-01  8.50000000E-01  8.50000000E-01  8.50000000E-01  8.50000000E-01
  8.50000000E-01  8.50000000E-01  8.50000000E-01  8.50000000E-01  8.50000000E-01
  8.50000000E-01  8.50000000E-01  8.50000000E-01  8.50000000E-01  8.50000000E-01
  8.50000000E-01  8.50000000E-01  8.50000000E-01  8.50000000E-01  8.50000000E-01
  8.50000000E-01  8.50000000E-01  8.50000000E-01  8.50000000E-01  8.50000000E-01
  8.50000000E-01  8.50000000E-01  8.50000000E-01  8.50000000E-01  8.50000000E-01
  8.50000000E-01  8.50000000E-01  8.50000000E-01  8.50000000E-01  8.50000000E-01
  8.50000000E-01  8.50000000E-01  8.50000000E-01  8.50000000E-01  8.50000000E-01
  8.50000000E-01  8.50000000E-01  8.50000000E-01  8.50000000E-01  8.50000000E-01
  8.50000000E-01  8.50000000E-01  8.50000000E-01  8.50000000E-01  8.50000000E-01
  8.50000000E-01  8.50000000E-01  8.50000000E-01  8.50000000E-01  8.50000000E-01
  8.50000000E-01  8.50000000E-01  8.50000000E-01  8.50000000E-01  8.50000000E-01
  8.50000000E-01  8.50000000E-01  8.50000000E-01  8.50000000E-01  8.50000000E-01
  8.50000000E-01  8.50000000E-01  8.50000000E-01  8.50000000E-01  8.50000000E-01
  8.50000000E-01  8.50000000E-01  8.50000000E-01  8.50000000E-01  8.50000000E-01
  8.50000000E-01  8.50000000E-01  8.50000000E-01  8.50000000E-01  8.50000000E-01
  8.50000000E-01  8.50000000E-01  8.50000000E-01  8.50000000E-01  8.50000000E-01
  8.50000000E-01  8.50000000E-01  8.50000000E-01  8.50000000E-01  8.50000000E-01
  8.50000000E-01  8.50000000E-01  8.50000000E-01  8.50000000E-01  8.50000000E-01
  8.50000000E-01  8.50000000E-01  8.50000000E-01  8.50000000E-01  8.50000000E-01
  8.50000000E-01  8.50000000E-01  8.50000000E-01  8.50000000E-01  8.50000000E-01
  8.50000000E-01  8.50000000E-01  8.50000000E-01  8.50000000E-01  8.50000000E-01
  8.50000000E-01  8.50000000E-01  8.50000000E-01  8.50000000E-01  8.50000000E-01
  8.50000000E-01  8.50000000E-01  8.50000000E-01  8.50000000E-01  8.50000000E-01
  8.50000000E-01  8.50000000E-01  8.50000000E-01  8.50000000E-01  8.50000000E-01
  8.50000000E-01  8.50000000E-01  8.50000000E-01  8.50000000E-01  8.50000000E-01
  8.50000000E-01  8.50000000E-01  8.50000000E-01  8.50000000E-01  8.50000000E-01
  8.50000000E-01  8.50000000E-01  8.50000000E-01  8.50000000E-01  8.50000000E-01
  8.50000000E-01  8.50000000E-01  8.50000000E-01  8.50000000E-01  8.50000000E-01
  8.50000000E-01  8.50000000E-01  8.50000000E-01  8.50000000E-01  8.50000000E-01
  8.50000000E-01  8.50000000E-01  8.50000000E-01  8.50000000E-01  8.50000000E-01
  8.50000000E-01  8.50000000E-01  8.50000000E-01  8.50000000E-01  8.50000000E-01
  8.50000000E-01  8.50000000E-01  8.50000000E-01  8.50000000E-01  8.50000000E-01
  8.50000000E-01  8.50000000E-01  8.50000000E-01  8.50000000E-01  8.50000000E-01
  8.50000000E-01  8.50000000E-01  8.50000000E-01  8.50000000E-01  8.50000000E-01
  8.50000000E-01  8.50000000E-01  8.50000000E-01  8.50000000E-01  8.50000000E-01
  8.50000000E-01  8.50000000E-01  8.50000000E-01  8.50000000E-01  8.50000000E-01
  8.50000000E-01  8.50000000E-01  8.50000000E-01  8.50000000E-01  8.50000000E-01
  8.50000000E-01  8.50000000E-01  8.50000000E-01  8.50000000E-01  8.50000000E-01
  8.50000000E-01  8.50000000E-01  8.50000000E-01  8.50000000E-01  8.50000000E-01
  8.50000000E-01  8.50000000E-01  8.50000000E-01  8.50000000E-01  8.50000000E-01
  8.50000000E-01  8.50000000E-01  8.50000000E-01  8.50000000E-01  8.50000000E-01
  8.50000000E-01  8.50000000E-01  8.50000000E-01  8.50000000E-01  8.50000000E-01
  8.50000000E-01  8.50000000E-01  8.50000000E-01  8.50000000E-01  8.50000000E-01
  8.50000000E-01  8.50000000E-01  8.50000000E-01  8.50000000E-01  8.50000000E-01
  8.50000000E-01  8.50000000E-01  8.50000000E-01  8.50000000E-01  8.50000000E-01
  8.50000000E-01  8.50000000E-01  8.50000000E-01  8.50000000E-01  8.50000000E-01
  8.50000000E-01  8.50000000E-01  8.50000000E-01  8.50000000E-01  8.50000000E-01
  8.50000000E-01  8.50000000E-01  8.50000000E-01  8.50000000E-01  8.50000000E-01
  8.50000000E-01  8.50000000E-01  8.50000000E-01  8.50000000E-01  8.50000000E-01
  8.50000000E-01  8.50000000E-01  8.50000000E-01  8.50000000E-01  8.50000000E-01
  8.50000000E-01  8.50000000E-01  8.50000000E-01  8.50000000E-01  8.50000000E-01
  8.50000000E-01  8.50000000E-01  8.50000000E-01  8.50000000E-01  8.50000000E-01
  8.50000000E-01  8.50000000E-01  8.50000000E-01  8.50000000E-01  8.50000000E-01
  8.50000000E-01  8.50000000E-01  8.50000000E-01  8.50000000E-01  8.50000000E-01
  8.50000000E-01  8.50000000E-01  8.50000000E-01  8.50000000E-01  8.50000000E-01
  8.50000000E-01  8.50000000E-01  8.50000000E-01  8.50000000E-01  8.50000000E-01
  8.50000000E-01  8.50000000E-01  8.50000000E-01  8.50000000E-01  8.50000000E-01
  8.50000000E-01  8.50000000E-01  8.50000000E-01  8.50000000E-01  8.50000000E-01
  8.50000000E-01  8.50000000E-01  8.50000000E-01  8.50000000E-01  8.50000000E-01
  8.50000000E-01  8.50000000E-01  8.50000000E-01  8.50000000E-01  8.50000000E-01
  8.50000000E-01  8.50000000E-01  8.50000000E-01  8.50000000E-01  8.50000000E-01
  8.50000000E-01  8.50000000E-01  8.50000000E-01  8.50000000E-01  8.50000000E-01
  8.50000000E-01  8.50000000E-01  8.50000000E-01  8.50000000E-01  8.50000000E-01
  8.50000000E-01  8.50000000E-01  8.50000000E-01  8.50000000E-01  8.50000000E-01
  8.50000000E-01  8.50000000E-01  8.50000000E-01  8.50000000E-01  8.50000000E-01
  8.50000000E-01  8.50000000E-01  8.50000000E-01  8.50000000E-01  8.50000000E-01
  8.50000000E-01  8.50000000E-01  8.50000000E-01  8.50000000E-01  8.50000000E-01
  8.50000000E-01  8.50000000E-01  8.50000000E-01  8.50000000E-01  8.50000000E-01
  8.50000000E-01  8.50000000E-01  8.50000000E-01  8.50000000E-01  8.50000000E-01
  8.50000000E-01  8.50000000E-01  8.50000000E-01  8.50000000E-01  8.50000000E-01
  8.50000000E-01  8.50000000E-01  8.50000000E-01  8.50000000E-01  8.50000000E-01
  8.50000000E-01  8.50000000E-01  8.50000000E-01  8.50000000E-01  8.50000000E-01
  8.50000000E-01  8.50000000E-01  8.50000000E-01  8.50000000E-01  8.50000000E-01
  8.50000000E-01  8.50000000E-01  8.50000000E-01  8.50000000E-01  8.50000000E-01
  8.50000000E-01  8.50000000E-01  8.50000000E-01  8.50000000E-01  8.50000000E-01
  8.50000000E-01  8.50000000E-01  8.50000000E-01  8.50000000E-01  8.50000000E-01
  8.50000000E-01  8.50000000E-01  8.50000000E-01  8.50000000E-01  8.50000000E-01
  8.50000000E-01  8.50000000E-01  8.50000000E-01  8.50000000E-01  8.50000000E-01
  8.50000000E-01  8.50000000E-01  8.50000000E-01  8.50000000E-01  8.50000000E-01
  8.50000000E-01  8.50000000E-01  8.50000000E-01  8.50000000E-01  8.50000000E-01
  8.50000000E-01  8.50000000E-01  8.50000000E-01  8.50000000E-01  8.50000000E-01
  8.50000000E-01  8.50000000E-01  8.50000000E-01  8.50000000E-01  8.50000000E-01
  8.50000000E-01  8.50000000E-01  8.50000000E-01  8.50000000E-01  8.50000000E-01
  8.50000000E-01  8.50000000E-01  8.50000000E-01  8.50000000E-01  8.50000000E-01
  8.50000000E-01  8.50000000E-01  8.50000000E-01  8.50000000E-01  8.50000000E-01
  8.50000000E-01  8.50000000E-01  8.50000000E-01  8.50000000E-01  8.50000000E-01
  8.50000000E-01  8.50000000E-01  8.50000000E-01  8.50000000E-01  8.50000000E-01
  8.50000000E-01  8.50000000E-01  8.50000000E-01  8.50000000E-01  8.50000000E-01
  8.50000000E-01  8.50000000E-01  8.50000000E-01  8.50000000E-01  8.50000000E-01
  8.50000000E-01  8.50000000E-01  8.50000000E-01  8.50000000E-01  8.50000000E-01
  8.50000000E-01  8.50000000E-01  8.50000000E-01  8.50000000E-01  8.50000000E-01
  8.50000000E-01  8.50000000E-01  8.50000000E-01  8.50000000E-01  8.50000000E-01
  8.50000000E-01  8.50000000E-01  8.50000000E-01  8.50000000E-01  8.50000000E-01
  8.50000000E-01  8.50000000E-01  8.50000000E-01  8.50000000E-01  8.50000000E-01
  8.50000000E-01  8.50000000E-01  8.50000000E-01  8.50000000E-01  8.50000000E-01
  8.50000000E-01  8.50000000E-01  8.50000000E-01  8.50000000E-01  8.50000000E-01
  8.50000000E-01  8.50000000E-01  8.50000000E-01  8.50000000E-01  8.50000000E-01
  8.50000000E-01  8.50000000E-01  8.50000000E-01  8.50000000E-01  8.50000000E-01
  8.50000000E-01  8.50000000E-01  8.50000000E-01  8.50000000E-01  8.50000000E-01
  8.50000000E-01  8.50000000E-01  8.50000000E-01  8.50000000E-01  8.50000000E-01
  8.50000000E-01  8.50000000E-01  8.50000000E-01  8.50000000E-01  8.50000000E-01
  8.50000000E-01  8.50000000E-01  8.50000000E-01  8.50000000E-01  8.50000000E-01
  8.50000000E-01  8.50000000E-01  8.50000000E-01  8.50000000E-01  8.50000000E-01
  8.50000000E-01  8.50000000E-01  8.50000000E-01  8.50000000E-01  8.50000000E-01
  8.50000000E-01  8.50000000E-01  8.50000000E-01  8.50000000E-01  8.50000000E-01
  8.50000000E-01  8.50000000E-01  8.50000000E-01  8.50000000E-01  8.50000000E-01
  8.50000000E-01  8.50000000E-01  8.50000000E-01  8.50000000E-01  8.50000000E-01
  8.50000000E-01  8.50000000E-01  8.50000000E-01  8.50000000E-01  8.50000000E-01
  8.50000000E-01  8.50000000E-01  8.50000000E-01  8.50000000E-01  8.50000000E-01
  8.50000000E-01  8.50000000E-01  8.50000000E-01  8.50000000E-01  8.50000000E-01
  8.50000000E-01  8.50000000E-01  8.50000000E-01  8.50000000E-01  8.50000000E-01
  8.50000000E-01  8.50000000E-01  8.50000000E-01  8.50000000E-01  8.50000000E-01
  8.50000000E-01  8.50000000E-01  8.50000000E-01  8.50000000E-01  8.50000000E-01
  8.50000000E-01  8.50000000E-01  8.50000000E-01  8.50000000E-01  8.50000000E-01
  8.50000000E-01  8.50000000E-01  8.50000000E-01  8.50000000E-01  8.50000000E-01
  8.50000000E-01  8.50000000E-01  8.50000000E-01  8.50000000E-01  8.50000000E-01
  8.50000000E-01  8.50000000E-01  8.50000000E-01  8.50000000E-01  8.50000000E-01
  8.50000000E-01  8.50000000E-01  8.50000000E-01  8.50000000E-01  8.50000000E-01
  8.50000000E-01  8.50000000E-01  8.50000000E-01  8.50000000E-01  8.50000000E-01
  8.50000000E-01  8.50000000E-01  8.50000000E-01  8.50000000E-01  8.50000000E-01
  8.50000000E-01  8.50000000E-01  8.50000000E-01  8.50000000E-01  8.50000000E-01
  8.50000000E-01  8.50000000E-01  8.50000000E-01  8.50000000E-01  8.50000000E-01
  8.50000000E-01  8.50000000E-01  8.50000000E-01  8.50000000E-01  8.50000000E-01
  8.50000000E-01  8.50000000E-01  8.50000000E-01  8.50000000E-01  8.50000000E-01
  8.50000000E-01  8.50000000E-01  8.50000000E-01  8.50000000E-01  8.50000000E-01
  8.50000000E-01  8.50000000E-01  8.50000000E-01  8.50000000E-01  8.50000000E-01
  8.50000000E-01  8.50000000E-01  8.50000000E-01  8.50000000E-01  8.50000000E-01
  8.50000000E-01  8.50000000E-01  8.50000000E-01  8.50000000E-01  8.50000000E-01
  8.50000000E-01  8.50000000E-01  8.50000000E-01  8.50000000E-01  8.50000000E-01
  8.50000000E-01  8.50000000E-01  8.50000000E-01  8.50000000E-01  8.50000000E-01
  8.50000000E-01  8.50000000E-01  8.50000000E-01  8.50000000E-01  8.50000000E-01
  8.50000000E-01  8.50000000E-01  8.50000000E-01  8.50000000E-01  8.50000000E-01
  8.50000000E-01  8.50000000E-01  8.50000000E-01  8.50000000E-01  8.50000000E-01
  8.50000000E-01  8.50000000E-01  8.50000000E-01  8.50000000E-01  8.50000000E-01
  8.50000000E-01  8.50000000E-01  8.50000000E-01  8.50000000E-01  8.50000000E-01
  8.50000000E-01  8.50000000E-01  8.50000000E-01  8.50000000E-01  8.50000000E-01
  8.50000000E-01  8.50000000E-01  8.50000000E-01  8.50000000E-01  8.50000000E-01
  8.50000000E-01  8.50000000E-01  8.50000000E-01  8.50000000E-01  8.50000000E-01
  8.50000000E-01  8.50000000E-01  8.50000000E-01  8.50000000E-01  8.50000000E-01
  8.50000000E-01  8.50000000E-01  8.50000000E-01  8.50000000E-01  8.50000000E-01
  8.50000000E-01  8.50000000E-01  8.50000000E-01  8.50000000E-01  8.50000000E-01
  8.50000000E-01  8.50000000E-01  8.50000000E-01  8.50000000E-01  8.50000000E-01
  8.50000000E-01  8.50000000E-01  8.50000000E-01  8.50000000E-01  8.50000000E-01
  8.50000000E-01  8.50000000E-01  8.50000000E-01  8.50000000E-01  8.50000000E-01
  8.50000000E-01  8.50000000E-01  8.50000000E-01  8.50000000E-01  8.50000000E-01
  8.50000000E-01  8.50000000E-01  8.50000000E-01  8.50000000E-01  8.50000000E-01
  8.50000000E-01  8.50000000E-01  8.50000000E-01  8.50000000E-01  8.50000000E-01
  8.50000000E-01  8.50000000E-01  8.50000000E-01  8.50000000E-01  8.50000000E-01
  8.50000000E-01  8.50000000E-01  8.50000000E-01  8.50000000E-01  8.50000000E-01
  8.50000000E-01  8.50000000E-01  8.50000000E-01  8.50000000E-01  8.50000000E-01
  8.50000000E-01  8.50000000E-01  8.50000000E-01  8.50000000E-01  8.50000000E-01
  8.50000000E-01  8.50000000E-01  8.50000000E-01  8.50000000E-01  8.50000000E-01
  8.50000000E-01  8.50000000E-01  8.50000000E-01  8.50000000E-01  8.50000000E-01
  8.50000000E-01  8.50000000E-01  8.50000000E-01  8.50000000E-01  8.50000000E-01
  8.50000000E-01  8.50000000E-01  8.50000000E-01  8.50000000E-01  8.50000000E-01
  8.50000000E-01  8.50000000E-01  8.50000000E-01  8.50000000E-01  8.50000000E-01
  8.50000000E-01  8.50000000E-01  8.50000000E-01  8.50000000E-01  8.50000000E-01
  8.50000000E-01  8.50000000E-01  8.50000000E-01  8.50000000E-01  8.50000000E-01
  8.50000000E-01  8.50000000E-01  8.50000000E-01  8.50000000E-01  8.50000000E-01
  8.50000000E-01  8.50000000E-01  8.50000000E-01  8.50000000E-01  8.50000000E-01
  8.50000000E-01  8.50000000E-01  8.50000000E-01  8.50000000E-01  8.50000000E-01
  8.50000000E-01  8.50000000E-01  8.50000000E-01  8.50000000E-01  8.50000000E-01
  8.50000000E-01  8.50000000E-01  8.50000000E-01  8.50000000E-01  8.50000000E-01
  8.50000000E-01  8.50000000E-01  8.50000000E-01  8.50000000E-01  8.50000000E-01
  8.50000000E-01  8.50000000E-01  8.50000000E-01  8.50000000E-01  8.50000000E-01
  8.50000000E-01  8.50000000E-01  8.50000000E-01  8.50000000E-01  8.50000000E-01
  8.50000000E-01  8.50000000E-01  8.50000000E-01  8.50000000E-01  8.50000000E-01
  8.50000000E-01  8.50000000E-01  8.50000000E-01  8.50000000E-01  8.50000000E-01
  8.50000000E-01  8.50000000E-01  8.50000000E-01  8.50000000E-01  8.50000000E-01
  8.50000000E-01  8.50000000E-01  8.50000000E-01  8.50000000E-01  8.50000000E-01
  8.50000000E-01  8.50000000E-01  8.50000000E-01  8.50000000E-01  8.50000000E-01
  8.50000000E-01  8.50000000E-01  8.50000000E-01  8.50000000E-01  8.50000000E-01
  8.50000000E-01  8.50000000E-01  8.50000000E-01  8.50000000E-01  8.50000000E-01
  8.50000000E-01  8.50000000E-01  8.50000000E-01  8.50000000E-01  8.50000000E-01
  8.50000000E-01  8.50000000E-01  8.50000000E-01  8.50000000E-01  8.50000000E-01
  8.50000000E-01  8.50000000E-01  8.50000000E-01  8.50000000E-01  8.50000000E-01
  8.50000000E-01  8.50000000E-01  8.50000000E-01  8.50000000E-01  8.50000000E-01
  8.50000000E-01  8.50000000E-01  8.50000000E-01  8.50000000E-01  8.50000000E-01
  8.50000000E-01  8.50000000E-01  8.50000000E-01  8.50000000E-01  8.50000000E-01
  8.50000000E-01  8.50000000E-01  8.50000000E-01  8.50000000E-01  8.50000000E-01
  8.50000000E-01  8.50000000E-01  8.50000000E-01  8.50000000E-01  8.50000000E-01
  8.50000000E-01  8.50000000E-01  8.50000000E-01  8.50000000E-01  8.50000000E-01
  8.50000000E-01  8.50000000E-01  8.50000000E-01  8.50000000E-01  8.50000000E-01
  8.50000000E-01  8.50000000E-01  8.50000000E-01  8.50000000E-01  8.50000000E-01
  8.50000000E-01  8.50000000E-01  8.50000000E-01  8.50000000E-01  8.50000000E-01
  8.50000000E-01  8.50000000E-01  8.50000000E-01  8.50000000E-01  8.50000000E-01
  8.50000000E-01  8.50000000E-01  8.50000000E-01  8.50000000E-01  8.50000000E-01
  8.50000000E-01  8.50000000E-01  8.50000000E-01  8.50000000E-01  8.50000000E-01
  8.50000000E-01  8.50000000E-01  8.50000000E-01  8.50000000E-01  8.50000000E-01
  8.50000000E-01  8.50000000E-01  8.50000000E-01  8.50000000E-01  8.50000000E-01
  8.50000000E-01  8.50000000E-01  8.50000000E-01  8.50000000E-01  8.50000000E-01
  8.50000000E-01  8.50000000E-01  8.50000000E-01  8.50000000E-01  8.50000000E-01
  8.50000000E-01  8.50000000E-01  8.50000000E-01  8.50000000E-01  8.50000000E-01
  8.50000000E-01  8.50000000E-01  8.50000000E-01  8.50000000E-01  8.50000000E-01
  8.50000000E-01  8.50000000E-01  8.50000000E-01  8.50000000E-01  8.50000000E-01
  8.50000000E-01  8.50000000E-01  8.50000000E-01  8.50000000E-01  8.50000000E-01
  8.50000000E-01  8.50000000E-01  8.50000000E-01  8.50000000E-01  8.50000000E-01
  8.50000000E-01  8.50000000E-01  8.50000000E-01  8.50000000E-01  8.50000000E-01
  8.50000000E-01  8.50000000E-01  8.50000000E-01  8.50000000E-01  8.50000000E-01
  8.50000000E-01  8.50000000E-01  8.50000000E-01  8.50000000E-01  8.50000000E-01
  8.50000000E-01  8.50000000E-01  8.50000000E-01  8.50000000E-01  8.50000000E-01
  8.50000000E-01  8.50000000E-01  8.50000000E-01  8.50000000E-01  8.50000000E-01
  8.50000000E-01  8.50000000E-01  8.50000000E-01  8.50000000E-01  8.50000000E-01
  8.50000000E-01  8.50000000E-01  8.50000000E-01  8.50000000E-01  8.50000000E-01
  8.50000000E-01  8.50000000E-01  8.50000000E-01  8.50000000E-01  8.50000000E-01
  8.50000000E-01  8.50000000E-01  8.50000000E-01  8.50000000E-01  8.50000000E-01
  8.50000000E-01  8.50000000E-01  8.50000000E-01  8.50000000E-01  8.50000000E-01
  8.50000000E-01  8.50000000E-01  8.50000000E-01  8.50000000E-01  8.50000000E-01
  8.50000000E-01  8.50000000E-01  8.50000000E-01  8.50000000E-01  8.50000000E-01
  8.50000000E-01  8.50000000E-01  8.50000000E-01  8.50000000E-01  8.50000000E-01
  8.50000000E-01  8.50000000E-01  8.50000000E-01  8.50000000E-01  8.50000000E-01
  8.50000000E-01  8.50000000E-01  8.50000000E-01  8.50000000E-01  8.50000000E-01
  8.50000000E-01  8.50000000E-01  8.50000000E-01  8.50000000E-01  8.50000000E-01
  8.50000000E-01  8.50000000E-01  8.50000000E-01  8.50000000E-01  8.50000000E-01
  8.50000000E-01  8.50000000E-01  8.50000000E-01  8.50000000E-01  8.50000000E-01
  8.50000000E-01  8.50000000E-01  8.50000000E-01  8.50000000E-01  8.50000000E-01
  8.50000000E-01  8.50000000E-01  8.50000000E-01  8.50000000E-01  8.50000000E-01
  8.50000000E-01  8.50000000E-01  8.50000000E-01  8.50000000E-01  8.50000000E-01
  8.50000000E-01  8.50000000E-01  8.50000000E-01  8.50000000E-01  8.50000000E-01
  8.50000000E-01  8.50000000E-01  8.50000000E-01  8.50000000E-01  8.50000000E-01
  8.50000000E-01  8.50000000E-01  8.50000000E-01  8.50000000E-01  8.50000000E-01
  8.50000000E-01  8.50000000E-01  8.50000000E-01  8.50000000E-01  8.50000000E-01
  8.50000000E-01  8.50000000E-01  8.50000000E-01  8.50000000E-01  8.50000000E-01
  8.50000000E-01  8.50000000E-01  8.50000000E-01  8.50000000E-01  8.50000000E-01
  8.50000000E-01  8.50000000E-01  8.50000000E-01  8.50000000E-01  8.50000000E-01
  8.50000000E-01  8.50000000E-01  8.50000000E-01  8.50000000E-01  8.50000000E-01
  8.50000000E-01  8.50000000E-01  8.50000000E-01  8.50000000E-01  8.50000000E-01
  8.50000000E-01  8.50000000E-01  8.50000000E-01  8.50000000E-01  8.50000000E-01
  8.50000000E-01  8.50000000E-01  8.50000000E-01  8.50000000E-01  8.50000000E-01
  8.50000000E-01  8.50000000E-01  8.50000000E-01  8.50000000E-01  8.50000000E-01
  8.50000000E-01  8.50000000E-01  8.50000000E-01  8.50000000E-01  8.50000000E-01
  8.50000000E-01  8.50000000E-01  8.50000000E-01  8.50000000E-01  8.50000000E-01
  8.50000000E-01  8.50000000E-01  8.50000000E-01  8.50000000E-01  8.50000000E-01
  8.50000000E-01  8.50000000E-01  8.50000000E-01  8.50000000E-01  8.50000000E-01
  8.50000000E-01  8.50000000E-01  8.50000000E-01  8.50000000E-01  8.50000000E-01
  8.50000000E-01  8.50000000E-01  8.50000000E-01  8.50000000E-01  8.50000000E-01
  8.50000000E-01  8.50000000E-01  8.50000000E-01  8.50000000E-01  8.50000000E-01
  8.50000000E-01  8.50000000E-01  8.50000000E-01  8.50000000E-01  8.50000000E-01
  8.50000000E-01  8.50000000E-01  8.50000000E-01  8.50000000E-01  8.50000000E-01
  8.50000000E-01  8.50000000E-01  8.50000000E-01  8.50000000E-01  8.50000000E-01
  8.50000000E-01  8.50000000E-01  8.50000000E-01  8.50000000E-01  8.50000000E-01
  8.50000000E-01  8.50000000E-01  8.50000000E-01  8.50000000E-01  8.50000000E-01
  8.50000000E-01  8.50000000E-01  8.50000000E-01  8.50000000E-01  8.50000000E-01
  8.50000000E-01  8.50000000E-01  8.50000000E-01  8.50000000E-01  8.50000000E-01
  8.50000000E-01  8.50000000E-01  8.50000000E-01  8.50000000E-01  8.50000000E-01
  8.50000000E-01  8.50000000E-01  8.50000000E-01  8.50000000E-01  8.50000000E-01
  8.50000000E-01  8.50000000E-01  8.50000000E-01  8.50000000E-01  8.50000000E-01
  8.50000000E-01  8.50000000E-01  8.50000000E-01  8.50000000E-01  8.50000000E-01
  8.50000000E-01  8.50000000E-01  8.50000000E-01  8.50000000E-01  8.50000000E-01
  8.50000000E-01  8.50000000E-01  8.50000000E-01  8.50000000E-01  8.50000000E-01
  8.50000000E-01  8.50000000E-01  8.50000000E-01  8.50000000E-01  8.50000000E-01
  8.50000000E-01  8.50000000E-01  8.50000000E-01  8.50000000E-01  8.50000000E-01
  8.50000000E-01  8.50000000E-01  8.50000000E-01  8.50000000E-01  8.50000000E-01
  8.50000000E-01  8.50000000E-01  8.50000000E-01  8.50000000E-01  8.50000000E-01
  8.50000000E-01  8.50000000E-01  8.50000000E-01  8.50000000E-01  8.50000000E-01
  8.50000000E-01  8.50000000E-01  8.50000000E-01  8.50000000E-01  8.50000000E-01
  8.50000000E-01  8.50000000E-01  8.50000000E-01  8.50000000E-01  8.50000000E-01
  8.50000000E-01  8.50000000E-01  8.50000000E-01  8.50000000E-01  8.50000000E-01
  8.50000000E-01  8.50000000E-01  8.50000000E-01  8.50000000E-01  8.50000000E-01
  8.50000000E-01  8.50000000E-01  8.50000000E-01  8.50000000E-01  8.50000000E-01
  8.50000000E-01  8.50000000E-01  8.50000000E-01  8.50000000E-01  8.50000000E-01
  8.50000000E-01  8.50000000E-01  8.50000000E-01  8.50000000E-01  8.50000000E-01
  8.50000000E-01  8.50000000E-01  8.50000000E-01  8.50000000E-01  8.50000000E-01
  8.50000000E-01  8.50000000E-01  8.50000000E-01  8.50000000E-01  8.50000000E-01
  8.50000000E-01  8.50000000E-01  8.50000000E-01  8.50000000E-01  8.50000000E-01
  8.50000000E-01  8.50000000E-01  8.50000000E-01  8.50000000E-01  8.50000000E-01
  8.50000000E-01  8.50000000E-01  8.50000000E-01  8.50000000E-01  8.50000000E-01
  8.50000000E-01  8.50000000E-01  8.50000000E-01  8.50000000E-01  8.50000000E-01
  8.50000000E-01  8.50000000E-01  8.50000000E-01  8.50000000E-01  8.50000000E-01
  8.50000000E-01  8.50000000E-01  8.50000000E-01  8.50000000E-01  8.50000000E-01
  8.50000000E-01  8.50000000E-01  8.50000000E-01  8.50000000E-01  8.50000000E-01
  8.50000000E-01  8.50000000E-01  8.50000000E-01  8.50000000E-01  8.50000000E-01
  8.50000000E-01  8.50000000E-01  8.50000000E-01  8.50000000E-01  8.50000000E-01
  8.50000000E-01  8.50000000E-01  8.50000000E-01  8.50000000E-01  8.50000000E-01
  8.50000000E-01  8.50000000E-01  8.50000000E-01  8.50000000E-01  8.50000000E-01
  8.50000000E-01  8.50000000E-01  8.50000000E-01  8.50000000E-01  8.50000000E-01
  8.50000000E-01  8.50000000E-01  8.50000000E-01  8.50000000E-01  8.50000000E-01
  8.50000000E-01  8.50000000E-01  8.50000000E-01  8.50000000E-01  8.50000000E-01
  8.50000000E-01  8.50000000E-01  8.50000000E-01  8.50000000E-01  8.50000000E-01
  8.50000000E-01  8.50000000E-01  8.50000000E-01  8.50000000E-01  8.50000000E-01
  8.50000000E-01  8.50000000E-01  8.50000000E-01  8.50000000E-01  8.50000000E-01
  8.50000000E-01  8.50000000E-01  8.50000000E-01  8.50000000E-01  8.50000000E-01
  8.50000000E-01  8.50000000E-01  8.50000000E-01  8.50000000E-01  8.50000000E-01
  8.50000000E-01  8.50000000E-01  8.50000000E-01  8.50000000E-01  8.50000000E-01
  8.50000000E-01  8.50000000E-01  8.50000000E-01  8.50000000E-01  8.50000000E-01
  8.50000000E-01  8.50000000E-01  8.50000000E-01  8.50000000E-01  8.50000000E-01
  8.50000000E-01  8.50000000E-01  8.50000000E-01  8.50000000E-01  8.50000000E-01
  8.50000000E-01  8.50000000E-01  8.50000000E-01  8.50000000E-01  8.50000000E-01
  8.50000000E-01  8.50000000E-01  8.50000000E-01  8.50000000E-01  8.50000000E-01
  8.50000000E-01  8.50000000E-01  8.50000000E-01  8.50000000E-01  8.50000000E-01
  8.50000000E-01  8.50000000E-01  8.50000000E-01  8.50000000E-01  8.50000000E-01
  8.50000000E-01  8.50000000E-01  8.50000000E-01  8.50000000E-01  8.50000000E-01
  8.50000000E-01  8.50000000E-01  8.50000000E-01  8.50000000E-01  8.50000000E-01
  8.50000000E-01  8.50000000E-01  8.50000000E-01  8.50000000E-01  8.50000000E-01
  8.50000000E-01  8.50000000E-01  8.50000000E-01  8.50000000E-01  8.50000000E-01
  8.50000000E-01  8.50000000E-01  8.50000000E-01  8.50000000E-01  8.50000000E-01
  8.50000000E-01  8.50000000E-01  8.50000000E-01  8.50000000E-01  8.50000000E-01
  8.50000000E-01  8.50000000E-01  8.50000000E-01  8.50000000E-01  8.50000000E-01
  8.50000000E-01  8.50000000E-01  8.50000000E-01  8.50000000E-01  8.50000000E-01
  8.50000000E-01  8.50000000E-01  8.50000000E-01  8.50000000E-01  8.50000000E-01
  8.50000000E-01  8.50000000E-01  8.50000000E-01  8.50000000E-01  8.50000000E-01
  8.50000000E-01  8.50000000E-01  8.50000000E-01  8.50000000E-01  8.50000000E-01
  8.50000000E-01  8.50000000E-01  8.50000000E-01  8.50000000E-01  8.50000000E-01
  8.50000000E-01  8.50000000E-01  8.50000000E-01  8.50000000E-01  8.50000000E-01
  8.50000000E-01  8.50000000E-01  8.50000000E-01  8.50000000E-01  8.50000000E-01
  8.50000000E-01  8.50000000E-01  8.50000000E-01  8.50000000E-01  8.50000000E-01
  8.50000000E-01  8.50000000E-01  8.50000000E-01  8.50000000E-01  8.50000000E-01
  8.50000000E-01  8.50000000E-01  8.50000000E-01  8.50000000E-01  8.50000000E-01
  8.50000000E-01  8.50000000E-01  8.50000000E-01  8.50000000E-01  8.50000000E-01
  8.50000000E-01  8.50000000E-01  8.50000000E-01  8.50000000E-01  8.50000000E-01
  8.50000000E-01  8.50000000E-01  8.50000000E-01  8.50000000E-01  8.50000000E-01
  8.50000000E-01  8.50000000E-01  8.50000000E-01  8.50000000E-01  8.50000000E-01
  8.50000000E-01  8.50000000E-01  8.50000000E-01  8.50000000E-01  8.50000000E-01
  8.50000000E-01  8.50000000E-01  8.50000000E-01  8.50000000E-01  8.50000000E-01
  8.50000000E-01  8.50000000E-01  8.50000000E-01  8.50000000E-01  8.50000000E-01
  8.50000000E-01  8.50000000E-01  8.50000000E-01  8.50000000E-01  8.50000000E-01
  8.50000000E-01  8.50000000E-01  8.50000000E-01  8.50000000E-01  8.50000000E-01
  8.50000000E-01  8.50000000E-01  8.50000000E-01  8.50000000E-01  8.50000000E-01
  8.50000000E-01  8.50000000E-01  8.50000000E-01  8.50000000E-01  8.50000000E-01
  8.50000000E-01  8.50000000E-01  8.50000000E-01  8.50000000E-01  8.50000000E-01
  8.50000000E-01  8.50000000E-01  8.50000000E-01  8.50000000E-01  8.50000000E-01
  8.50000000E-01  8.50000000E-01  8.50000000E-01  8.50000000E-01  8.50000000E-01
  8.50000000E-01  8.50000000E-01  8.50000000E-01  8.50000000E-01  8.50000000E-01
  8.50000000E-01  8.50000000E-01  8.50000000E-01  8.50000000E-01  8.50000000E-01
  8.50000000E-01  8.50000000E-01  8.50000000E-01  8.50000000E-01  8.50000000E-01
  8.50000000E-01  8.50000000E-01  8.50000000E-01  8.50000000E-01  8.50000000E-01
  8.50000000E-01  8.50000000E-01  8.50000000E-01  8.50000000E-01  8.50000000E-01
  8.50000000E-01  8.50000000E-01  8.50000000E-01  8.50000000E-01  8.50000000E-01
  8.50000000E-01  8.50000000E-01  8.50000000E-01  8.50000000E-01  8.50000000E-01
  8.50000000E-01  8.50000000E-01  8.50000000E-01  8.50000000E-01  8.50000000E-01
  8.50000000E-01  8.50000000E-01  8.50000000E-01  8.50000000E-01  8.50000000E-01
  8.50000000E-01  8.50000000E-01  8.50000000E-01  8.50000000E-01  8.50000000E-01
  8.50000000E-01  8.50000000E-01  8.50000000E-01  8.50000000E-01  8.50000000E-01
  8.50000000E-01  8.50000000E-01  8.50000000E-01  8.50000000E-01  8.50000000E-01
  8.50000000E-01  8.50000000E-01  8.50000000E-01  8.50000000E-01  8.50000000E-01
  8.50000000E-01  8.50000000E-01  8.50000000E-01  8.50000000E-01  8.50000000E-01
  8.50000000E-01  8.50000000E-01  8.50000000E-01  8.50000000E-01  8.50000000E-01
  8.50000000E-01  8.50000000E-01  8.50000000E-01  8.50000000E-01  8.50000000E-01
  8.50000000E-01  8.50000000E-01  8.50000000E-01  8.50000000E-01  8.50000000E-01
  8.50000000E-01  8.50000000E-01  8.50000000E-01  8.50000000E-01  8.50000000E-01
  8.50000000E-01  8.50000000E-01  8.50000000E-01  8.50000000E-01  8.50000000E-01
  8.50000000E-01  8.50000000E-01  8.50000000E-01  8.50000000E-01  8.50000000E-01
  8.50000000E-01  8.50000000E-01  8.50000000E-01  8.50000000E-01  8.50000000E-01
  8.50000000E-01  8.50000000E-01  8.50000000E-01  8.50000000E-01  8.50000000E-01
  8.50000000E-01  8.50000000E-01  8.50000000E-01  8.50000000E-01  8.50000000E-01
  8.50000000E-01  8.50000000E-01  8.50000000E-01  8.50000000E-01  8.50000000E-01
  8.50000000E-01  8.50000000E-01  8.50000000E-01  8.50000000E-01  8.50000000E-01
  8.50000000E-01  8.50000000E-01  8.50000000E-01  8.50000000E-01  8.50000000E-01
  8.50000000E-01  8.50000000E-01  8.50000000E-01  8.50000000E-01  8.50000000E-01
  8.50000000E-01  8.50000000E-01  8.50000000E-01  8.50000000E-01  8.50000000E-01
  8.50000000E-01  8.50000000E-01  8.50000000E-01  8.50000000E-01  8.50000000E-01
  8.50000000E-01  8.50000000E-01  8.50000000E-01  8.50000000E-01  8.50000000E-01
  8.50000000E-01  8.50000000E-01  8.50000000E-01  8.50000000E-01  8.50000000E-01
  8.50000000E-01  8.50000000E-01  8.50000000E-01  8.50000000E-01  8.50000000E-01
  8.50000000E-01  8.50000000E-01  8.50000000E-01  8.50000000E-01  8.50000000E-01
  8.50000000E-01  8.50000000E-01  8.50000000E-01  8.50000000E-01  8.50000000E-01
  8.50000000E-01  8.50000000E-01  8.50000000E-01  8.50000000E-01  8.50000000E-01
  8.50000000E-01  8.50000000E-01  8.50000000E-01  8.50000000E-01  8.50000000E-01
  8.50000000E-01  8.50000000E-01  8.50000000E-01  8.50000000E-01  8.50000000E-01
  8.50000000E-01  8.50000000E-01  8.50000000E-01  8.50000000E-01  8.50000000E-01
  8.50000000E-01  8.50000000E-01  8.50000000E-01  8.50000000E-01  8.50000000E-01
  8.50000000E-01  8.50000000E-01  8.50000000E-01  8.50000000E-01  8.50000000E-01
  8.50000000E-01  8.50000000E-01  8.50000000E-01  8.50000000E-01  8.50000000E-01
  8.50000000E-01  8.50000000E-01  8.50000000E-01  8.50000000E-01  8.50000000E-01
  8.50000000E-01  8.50000000E-01  8.50000000E-01  8.50000000E-01  8.50000000E-01
  8.50000000E-01  8.50000000E-01  8.50000000E-01  8.50000000E-01  8.50000000E-01
  8.50000000E-01  8.50000000E-01  8.50000000E-01  8.50000000E-01  8.50000000E-01
  8.50000000E-01  8.50000000E-01  8.50000000E-01  8.50000000E-01  8.50000000E-01
  8.50000000E-01  8.50000000E-01  8.50000000E-01  8.50000000E-01  8.50000000E-01
  8.50000000E-01  8.50000000E-01  8.50000000E-01  8.50000000E-01  8.50000000E-01
  8.50000000E-01  8.50000000E-01  8.50000000E-01  8.50000000E-01  8.50000000E-01
  8.50000000E-01  8.50000000E-01  8.50000000E-01  8.50000000E-01  8.50000000E-01
  8.50000000E-01  8.50000000E-01  8.50000000E-01  8.50000000E-01  8.50000000E-01
  8.50000000E-01  8.50000000E-01  8.50000000E-01  8.50000000E-01  8.50000000E-01
  8.50000000E-01  8.50000000E-01  8.50000000E-01  8.50000000E-01  8.50000000E-01
  8.50000000E-01  8.50000000E-01  8.50000000E-01  8.50000000E-01  8.50000000E-01
  8.50000000E-01  8.50000000E-01  8.50000000E-01  8.50000000E-01  8.50000000E-01
  8.50000000E-01  8.50000000E-01  8.50000000E-01  8.50000000E-01  8.50000000E-01
  8.50000000E-01  8.50000000E-01  8.50000000E-01  8.50000000E-01  8.50000000E-01
  8.50000000E-01  8.50000000E-01  8.50000000E-01  8.50000000E-01  8.50000000E-01
  8.50000000E-01  8.50000000E-01  8.50000000E-01  8.50000000E-01  8.50000000E-01
  8.50000000E-01  8.50000000E-01  8.50000000E-01  8.50000000E-01  8.50000000E-01
  8.50000000E-01  8.50000000E-01  8.50000000E-01  8.50000000E-01  8.50000000E-01
  8.50000000E-01  8.50000000E-01  8.50000000E-01  8.50000000E-01  8.50000000E-01
  8.50000000E-01  8.50000000E-01  8.50000000E-01  8.50000000E-01  8.50000000E-01
  8.50000000E-01  8.50000000E-01  8.50000000E-01  8.50000000E-01  8.50000000E-01
  8.50000000E-01  8.50000000E-01  8.50000000E-01  8.50000000E-01  8.50000000E-01
  8.50000000E-01  8.50000000E-01  8.50000000E-01  8.50000000E-01  8.50000000E-01
  8.50000000E-01  8.50000000E-01  8.50000000E-01  8.50000000E-01  8.50000000E-01
  8.50000000E-01  8.50000000E-01  8.50000000E-01  8.50000000E-01  8.50000000E-01
  8.50000000E-01  8.50000000E-01  8.50000000E-01  8.50000000E-01  8.50000000E-01
  8.50000000E-01  8.50000000E-01  8.50000000E-01  8.50000000E-01  8.50000000E-01
  8.50000000E-01  8.50000000E-01  8.50000000E-01  8.50000000E-01  8.50000000E-01
  8.50000000E-01  8.50000000E-01  8.50000000E-01  8.50000000E-01  8.50000000E-01
  8.50000000E-01  8.50000000E-01  8.50000000E-01  8.50000000E-01  8.50000000E-01
  8.50000000E-01  8.50000000E-01  8.50000000E-01  8.50000000E-01  8.50000000E-01
  8.50000000E-01  8.50000000E-01  8.50000000E-01  8.50000000E-01  8.50000000E-01
  8.50000000E-01  8.50000000E-01  8.50000000E-01  8.50000000E-01  8.50000000E-01
  8.50000000E-01  8.50000000E-01  8.50000000E-01  8.50000000E-01  8.50000000E-01
  8.50000000E-01  8.50000000E-01  8.50000000E-01  8.50000000E-01  8.50000000E-01
  8.50000000E-01  8.50000000E-01  8.50000000E-01  8.50000000E-01  8.50000000E-01
  8.50000000E-01  8.50000000E-01  8.50000000E-01  8.50000000E-01  8.50000000E-01
  8.50000000E-01  8.50000000E-01  8.50000000E-01  8.50000000E-01  8.50000000E-01
  8.50000000E-01  8.50000000E-01  8.50000000E-01  8.50000000E-01  8.50000000E-01
  8.50000000E-01  8.50000000E-01  8.50000000E-01  8.50000000E-01  8.50000000E-01
  8.50000000E-01  8.50000000E-01  8.50000000E-01  8.50000000E-01  8.50000000E-01
  8.50000000E-01  8.50000000E-01  8.50000000E-01  8.50000000E-01  8.50000000E-01
  8.50000000E-01  8.50000000E-01  8.50000000E-01  8.50000000E-01  8.50000000E-01
  8.50000000E-01  8.50000000E-01  8.50000000E-01  8.50000000E-01  8.50000000E-01
  8.50000000E-01  8.50000000E-01  8.50000000E-01  8.50000000E-01  8.50000000E-01
  8.50000000E-01  8.50000000E-01  8.50000000E-01  8.50000000E-01  8.50000000E-01
  8.50000000E-01  8.50000000E-01  8.50000000E-01  8.50000000E-01  8.50000000E-01
  8.50000000E-01  8.50000000E-01  8.50000000E-01  8.50000000E-01  8.50000000E-01
  8.50000000E-01  8.50000000E-01  8.50000000E-01  8.50000000E-01  8.50000000E-01
  8.50000000E-01  8.50000000E-01  8.50000000E-01  8.50000000E-01  8.50000000E-01
  8.50000000E-01  8.50000000E-01  8.50000000E-01  8.50000000E-01  8.50000000E-01
  8.50000000E-01  8.50000000E-01  8.50000000E-01  8.50000000E-01  8.50000000E-01
  8.50000000E-01  8.50000000E-01  8.50000000E-01  8.50000000E-01  8.50000000E-01
  8.50000000E-01  8.50000000E-01  8.50000000E-01  8.50000000E-01  8.50000000E-01
  8.50000000E-01  8.50000000E-01  8.50000000E-01  8.50000000E-01  8.50000000E-01
  8.50000000E-01  8.50000000E-01  8.50000000E-01  8.50000000E-01  8.50000000E-01
  8.50000000E-01  8.50000000E-01  8.50000000E-01  8.50000000E-01  8.50000000E-01
  8.50000000E-01  8.50000000E-01  8.50000000E-01  8.50000000E-01  8.50000000E-01
  8.50000000E-01  8.50000000E-01  8.50000000E-01  8.50000000E-01  8.50000000E-01
  8.50000000E-01  8.50000000E-01  8.50000000E-01  8.50000000E-01  8.50000000E-01
  8.50000000E-01  8.50000000E-01  8.50000000E-01  8.50000000E-01  8.50000000E-01
  8.50000000E-01  8.50000000E-01  8.50000000E-01  8.50000000E-01  8.50000000E-01
  8.50000000E-01  8.50000000E-01  8.50000000E-01  8.50000000E-01  8.50000000E-01
  8.50000000E-01  8.50000000E-01  8.50000000E-01  8.50000000E-01  8.50000000E-01
  8.50000000E-01  8.50000000E-01  8.50000000E-01  8.50000000E-01  8.50000000E-01
  8.50000000E-01  8.50000000E-01  8.50000000E-01  8.50000000E-01  8.50000000E-01
  8.50000000E-01  8.50000000E-01  8.50000000E-01  8.50000000E-01  8.50000000E-01
  8.50000000E-01  8.50000000E-01  8.50000000E-01  8.50000000E-01  8.50000000E-01
  8.50000000E-01  8.50000000E-01  8.50000000E-01  8.50000000E-01  8.50000000E-01
  8.50000000E-01  8.50000000E-01  8.50000000E-01  8.50000000E-01  8.50000000E-01
  8.50000000E-01  8.50000000E-01  8.50000000E-01  8.50000000E-01  8.50000000E-01
  8.50000000E-01  8.50000000E-01  8.50000000E-01  8.50000000E-01  8.50000000E-01
  8.50000000E-01  8.50000000E-01  8.50000000E-01  8.50000000E-01  8.50000000E-01
  8.50000000E-01  8.50000000E-01  8.50000000E-01  8.50000000E-01  8.50000000E-01
  8.50000000E-01  8.50000000E-01  8.50000000E-01  8.50000000E-01  8.50000000E-01
  8.50000000E-01  8.50000000E-01  8.50000000E-01  8.50000000E-01  8.50000000E-01
  8.50000000E-01  8.50000000E-01  8.50000000E-01  8.50000000E-01  8.50000000E-01
  8.50000000E-01  8.50000000E-01  8.50000000E-01  8.50000000E-01  8.50000000E-01
  8.50000000E-01  8.50000000E-01  8.50000000E-01  8.50000000E-01  8.50000000E-01
  8.50000000E-01  8.50000000E-01  8.50000000E-01  8.50000000E-01  8.50000000E-01
  8.50000000E-01  8.50000000E-01  8.50000000E-01  8.50000000E-01  8.50000000E-01
  8.50000000E-01  8.50000000E-01  8.50000000E-01  8.50000000E-01  8.50000000E-01
  8.50000000E-01  8.50000000E-01  8.50000000E-01  8.50000000E-01  8.50000000E-01
  8.50000000E-01  8.50000000E-01  8.50000000E-01  8.50000000E-01  8.50000000E-01
  8.50000000E-01  8.50000000E-01  8.50000000E-01  8.50000000E-01  8.50000000E-01
  8.50000000E-01  8.50000000E-01  8.50000000E-01  8.50000000E-01  8.50000000E-01
  8.50000000E-01  8.50000000E-01  8.50000000E-01  8.50000000E-01  8.50000000E-01
  8.50000000E-01  8.50000000E-01  8.50000000E-01  8.50000000E-01  8.50000000E-01
  8.50000000E-01  8.50000000E-01  8.50000000E-01  8.50000000E-01  8.50000000E-01
  8.50000000E-01  8.50000000E-01  8.50000000E-01  8.50000000E-01  8.50000000E-01
  8.50000000E-01  8.50000000E-01  8.50000000E-01  8.50000000E-01  8.50000000E-01
  8.50000000E-01  8.50000000E-01  8.50000000E-01  8.50000000E-01  8.50000000E-01
  8.50000000E-01  8.50000000E-01  8.50000000E-01  8.50000000E-01  8.50000000E-01
  8.50000000E-01  8.50000000E-01  8.50000000E-01  8.50000000E-01  8.50000000E-01
  8.50000000E-01  8.50000000E-01  8.50000000E-01  8.50000000E-01  8.50000000E-01
  8.50000000E-01  8.50000000E-01  8.50000000E-01  8.50000000E-01  8.50000000E-01
  8.50000000E-01  8.50000000E-01  8.50000000E-01  8.50000000E-01  8.50000000E-01
  8.50000000E-01  8.50000000E-01  8.50000000E-01  8.50000000E-01  8.50000000E-01
  8.50000000E-01  8.50000000E-01  8.50000000E-01  8.50000000E-01  8.50000000E-01
  8.50000000E-01  8.50000000E-01  8.50000000E-01  8.50000000E-01  8.50000000E-01
  8.50000000E-01  8.50000000E-01  8.50000000E-01  8.50000000E-01  8.50000000E-01
  8.50000000E-01  8.50000000E-01  8.50000000E-01  8.50000000E-01  8.50000000E-01
  8.50000000E-01  8.50000000E-01  8.50000000E-01  8.50000000E-01  8.50000000E-01
  8.50000000E-01  8.50000000E-01  8.50000000E-01  8.50000000E-01  8.50000000E-01
  8.50000000E-01  8.50000000E-01  8.50000000E-01  8.50000000E-01  8.50000000E-01
  8.50000000E-01  8.50000000E-01  8.50000000E-01  8.50000000E-01  8.50000000E-01
  8.50000000E-01  8.50000000E-01  8.50000000E-01  8.50000000E-01  8.50000000E-01
  8.50000000E-01  8.50000000E-01  8.50000000E-01  8.50000000E-01  8.50000000E-01
  8.50000000E-01  8.50000000E-01  8.50000000E-01  8.50000000E-01  8.50000000E-01
  8.50000000E-01  8.50000000E-01  8.50000000E-01  8.50000000E-01  8.50000000E-01
  8.50000000E-01  8.50000000E-01  8.50000000E-01  8.50000000E-01  8.50000000E-01
  8.50000000E-01  8.50000000E-01  8.50000000E-01  8.50000000E-01  8.50000000E-01
  8.50000000E-01  8.50000000E-01  8.50000000E-01  8.50000000E-01  8.50000000E-01
  8.50000000E-01  8.50000000E-01  8.50000000E-01  8.50000000E-01  8.50000000E-01
  8.50000000E-01  8.50000000E-01  8.50000000E-01  8.50000000E-01  8.50000000E-01
  8.50000000E-01  8.50000000E-01  8.50000000E-01  8.50000000E-01  8.50000000E-01
  8.50000000E-01  8.50000000E-01  8.50000000E-01  8.50000000E-01  8.50000000E-01
  8.50000000E-01  8.50000000E-01  8.50000000E-01  8.50000000E-01  8.50000000E-01
  8.50000000E-01  8.50000000E-01  8.50000000E-01  8.50000000E-01  8.50000000E-01
  8.50000000E-01  8.50000000E-01  8.50000000E-01  8.50000000E-01  8.50000000E-01
  8.50000000E-01  8.50000000E-01  8.50000000E-01  8.50000000E-01  8.50000000E-01
  8.50000000E-01  8.50000000E-01  8.50000000E-01  8.50000000E-01  8.50000000E-01
  8.50000000E-01  8.50000000E-01  8.50000000E-01  8.50000000E-01  8.50000000E-01
  8.50000000E-01  8.50000000E-01  8.50000000E-01  8.50000000E-01  8.50000000E-01
  8.50000000E-01  8.50000000E-01  8.50000000E-01  8.50000000E-01  8.50000000E-01
  8.50000000E-01  8.50000000E-01  8.50000000E-01  8.50000000E-01  8.50000000E-01
  8.50000000E-01  8.50000000E-01  8.50000000E-01  8.50000000E-01  8.50000000E-01
  8.50000000E-01  8.50000000E-01  8.50000000E-01  8.50000000E-01  8.50000000E-01
  8.50000000E-01  8.50000000E-01  8.50000000E-01  8.50000000E-01  8.50000000E-01
  8.50000000E-01  8.50000000E-01  8.50000000E-01  8.50000000E-01  8.50000000E-01
  8.50000000E-01  8.50000000E-01  8.50000000E-01  8.50000000E-01  8.50000000E-01
  8.50000000E-01  8.50000000E-01  8.50000000E-01  8.50000000E-01  8.50000000E-01
  8.50000000E-01  8.50000000E-01  8.50000000E-01  8.50000000E-01  8.50000000E-01
  8.50000000E-01  8.50000000E-01  8.50000000E-01  8.50000000E-01  8.50000000E-01
  8.50000000E-01  8.50000000E-01  8.50000000E-01  8.50000000E-01  8.50000000E-01
  8.50000000E-01  8.50000000E-01  8.50000000E-01  8.50000000E-01  8.50000000E-01
  8.50000000E-01  8.50000000E-01  8.50000000E-01  8.50000000E-01  8.50000000E-01
  8.50000000E-01  8.50000000E-01  8.50000000E-01  8.50000000E-01  8.50000000E-01
  8.50000000E-01  8.50000000E-01  8.50000000E-01  8.50000000E-01  8.50000000E-01
  8.50000000E-01  8.50000000E-01  8.50000000E-01  8.50000000E-01  8.50000000E-01
  8.50000000E-01  8.50000000E-01  8.50000000E-01  8.50000000E-01  8.50000000E-01
  8.50000000E-01  8.50000000E-01  8.50000000E-01  8.50000000E-01  8.50000000E-01
  8.50000000E-01  8.50000000E-01  8.50000000E-01  8.50000000E-01  8.50000000E-01
  8.50000000E-01  8.50000000E-01  8.50000000E-01  8.50000000E-01  8.50000000E-01
  8.50000000E-01  8.50000000E-01  8.50000000E-01  8.50000000E-01  8.50000000E-01
  8.50000000E-01  8.50000000E-01  8.50000000E-01  8.50000000E-01  8.50000000E-01
  8.50000000E-01  8.50000000E-01  8.50000000E-01  8.50000000E-01  8.50000000E-01
  8.50000000E-01  8.50000000E-01  8.50000000E-01  8.50000000E-01  8.50000000E-01
  8.50000000E-01  8.50000000E-01  8.50000000E-01  8.50000000E-01  8.50000000E-01
  8.50000000E-01  8.50000000E-01  8.50000000E-01  8.50000000E-01  8.50000000E-01
  8.50000000E-01  8.50000000E-01  8.50000000E-01  8.50000000E-01  8.50000000E-01
  8.50000000E-01  8.50000000E-01  8.50000000E-01  8.50000000E-01  8.50000000E-01
  8.50000000E-01  8.50000000E-01  8.50000000E-01  8.50000000E-01  8.50000000E-01
  8.50000000E-01  8.50000000E-01  8.50000000E-01  8.50000000E-01  8.50000000E-01
  8.50000000E-01  8.50000000E-01  8.50000000E-01  8.50000000E-01  8.50000000E-01
  8.50000000E-01  8.50000000E-01  8.50000000E-01  8.50000000E-01  8.50000000E-01
  8.50000000E-01  8.50000000E-01  8.50000000E-01  8.50000000E-01  8.50000000E-01
  8.50000000E-01  8.50000000E-01  8.50000000E-01  8.50000000E-01  8.50000000E-01
  8.50000000E-01  8.50000000E-01  8.50000000E-01  8.50000000E-01  8.50000000E-01
  8.50000000E-01  8.50000000E-01  8.50000000E-01  8.50000000E-01  8.50000000E-01
  8.50000000E-01  8.50000000E-01  8.50000000E-01  8.50000000E-01  8.50000000E-01
  8.50000000E-01  8.50000000E-01  8.50000000E-01  8.50000000E-01  8.50000000E-01
  8.50000000E-01  8.50000000E-01  8.50000000E-01  8.50000000E-01  8.50000000E-01
  8.50000000E-01  8.50000000E-01  8.50000000E-01  8.50000000E-01  8.50000000E-01
  8.50000000E-01  8.50000000E-01  8.50000000E-01  8.50000000E-01  8.50000000E-01
  8.50000000E-01  8.50000000E-01  8.50000000E-01  8.50000000E-01  8.50000000E-01
  8.50000000E-01  8.50000000E-01  8.50000000E-01  8.50000000E-01  8.50000000E-01
  8.50000000E-01  8.50000000E-01  8.50000000E-01  8.50000000E-01  8.50000000E-01
  8.50000000E-01  8.50000000E-01  8.50000000E-01  8.50000000E-01  8.50000000E-01
  8.50000000E-01  8.50000000E-01  8.50000000E-01  8.50000000E-01  8.50000000E-01
  8.50000000E-01  8.50000000E-01  8.50000000E-01  8.50000000E-01  8.50000000E-01
  8.50000000E-01  8.50000000E-01  8.50000000E-01  8.50000000E-01  8.50000000E-01
  8.50000000E-01  8.50000000E-01  8.50000000E-01  8.50000000E-01  8.50000000E-01
  8.50000000E-01  8.50000000E-01  8.50000000E-01  8.50000000E-01  8.50000000E-01
  8.50000000E-01  8.50000000E-01  8.50000000E-01  8.50000000E-01  8.50000000E-01
  8.50000000E-01  8.50000000E-01  8.50000000E-01  8.50000000E-01  8.50000000E-01
  8.50000000E-01  8.50000000E-01  8.50000000E-01  8.50000000E-01  8.50000000E-01
  8.50000000E-01  8.50000000E-01  8.50000000E-01  8.50000000E-01  8.50000000E-01
  8.50000000E-01  8.50000000E-01  8.50000000E-01  8.50000000E-01  8.50000000E-01
  8.50000000E-01  8.50000000E-01  8.50000000E-01  8.50000000E-01  8.50000000E-01
  8.50000000E-01  8.50000000E-01  8.50000000E-01  8.50000000E-01  8.50000000E-01
  8.50000000E-01  8.50000000E-01  8.50000000E-01  8.50000000E-01  8.50000000E-01
  8.50000000E-01  8.50000000E-01  8.50000000E-01  8.50000000E-01  8.50000000E-01
  8.50000000E-01  8.50000000E-01  8.50000000E-01  8.50000000E-01  8.50000000E-01
  8.50000000E-01  8.50000000E-01  8.50000000E-01  8.50000000E-01  8.50000000E-01
  8.50000000E-01  8.50000000E-01  8.50000000E-01  8.50000000E-01  8.50000000E-01
  8.50000000E-01  8.50000000E-01  8.50000000E-01  8.50000000E-01  8.50000000E-01
  8.50000000E-01  8.50000000E-01  8.50000000E-01  8.50000000E-01  8.50000000E-01
  8.50000000E-01  8.50000000E-01  8.50000000E-01  8.50000000E-01  8.50000000E-01
  8.50000000E-01  8.50000000E-01  8.50000000E-01  8.50000000E-01  8.50000000E-01
  8.50000000E-01  8.50000000E-01  8.50000000E-01  8.50000000E-01  8.50000000E-01
  8.50000000E-01  8.50000000E-01  8.50000000E-01  8.50000000E-01  8.50000000E-01
  8.50000000E-01  8.50000000E-01  8.50000000E-01  8.50000000E-01  8.50000000E-01
  8.50000000E-01  8.50000000E-01  8.50000000E-01  8.50000000E-01  8.50000000E-01
  8.50000000E-01  8.50000000E-01  8.50000000E-01  8.50000000E-01  8.50000000E-01
  8.50000000E-01  8.50000000E-01  8.50000000E-01  8.50000000E-01  8.50000000E-01
  8.50000000E-01  8.50000000E-01  8.50000000E-01  8.50000000E-01  8.50000000E-01
  8.50000000E-01  8.50000000E-01  8.50000000E-01  8.50000000E-01  8.50000000E-01
  8.50000000E-01  8.50000000E-01  8.50000000E-01  8.50000000E-01  8.50000000E-01
  8.50000000E-01  8.50000000E-01  8.50000000E-01  8.50000000E-01  8.50000000E-01
  8.50000000E-01  8.50000000E-01  8.50000000E-01  8.50000000E-01  8.50000000E-01
  8.50000000E-01  8.50000000E-01  8.50000000E-01  8.50000000E-01  8.50000000E-01
  8.50000000E-01  8.50000000E-01  8.50000000E-01  8.50000000E-01  8.50000000E-01
  8.50000000E-01  8.50000000E-01  8.50000000E-01  8.50000000E-01  8.50000000E-01
  8.50000000E-01  8.50000000E-01  8.50000000E-01  8.50000000E-01  8.50000000E-01
  8.50000000E-01  8.50000000E-01  8.50000000E-01  8.50000000E-01  8.50000000E-01
  8.50000000E-01  8.50000000E-01  8.50000000E-01  8.50000000E-01  8.50000000E-01
  8.50000000E-01  8.50000000E-01  8.50000000E-01  8.50000000E-01  8.50000000E-01
  8.50000000E-01  8.50000000E-01  8.50000000E-01  8.50000000E-01  8.50000000E-01
  8.50000000E-01  8.50000000E-01  8.50000000E-01  8.50000000E-01  8.50000000E-01
  8.50000000E-01  8.50000000E-01  8.50000000E-01  8.50000000E-01  8.50000000E-01
  8.50000000E-01  8.50000000E-01  8.50000000E-01  8.50000000E-01  8.50000000E-01
  8.50000000E-01  8.50000000E-01  8.50000000E-01  8.50000000E-01  8.50000000E-01
  8.50000000E-01  8.50000000E-01  8.50000000E-01  8.50000000E-01  8.50000000E-01
  8.50000000E-01  8.50000000E-01  8.50000000E-01  8.50000000E-01  8.50000000E-01
  8.50000000E-01  8.50000000E-01  8.50000000E-01  8.50000000E-01  8.50000000E-01
  8.50000000E-01  8.50000000E-01  8.50000000E-01  8.50000000E-01  8.50000000E-01
  8.50000000E-01  8.50000000E-01  8.50000000E-01  8.50000000E-01  8.50000000E-01
  8.50000000E-01  8.50000000E-01  8.50000000E-01  8.50000000E-01  8.50000000E-01
  8.50000000E-01  8.50000000E-01  8.50000000E-01  8.50000000E-01  8.50000000E-01
  8.50000000E-01  8.50000000E-01  8.50000000E-01  8.50000000E-01  8.50000000E-01
  8.50000000E-01  8.50000000E-01  8.50000000E-01  8.50000000E-01  8.50000000E-01
  8.50000000E-01  8.50000000E-01  8.50000000E-01  8.50000000E-01  8.50000000E-01
  8.50000000E-01  8.50000000E-01  8.50000000E-01  8.50000000E-01  8.50000000E-01
  8.50000000E-01  8.50000000E-01  8.50000000E-01  8.50000000E-01  8.50000000E-01
  8.50000000E-01  8.50000000E-01  8.50000000E-01  8.50000000E-01  8.50000000E-01
  8.50000000E-01  8.50000000E-01  8.50000000E-01  8.50000000E-01  8.50000000E-01
  8.50000000E-01  8.50000000E-01  8.50000000E-01  8.50000000E-01  8.50000000E-01
  8.50000000E-01  8.50000000E-01  8.50000000E-01  8.50000000E-01  8.50000000E-01
  8.50000000E-01  8.50000000E-01  8.50000000E-01  8.50000000E-01  8.50000000E-01
  8.50000000E-01  8.50000000E-01  8.50000000E-01  8.50000000E-01  8.50000000E-01
  8.50000000E-01  8.50000000E-01  8.50000000E-01  8.50000000E-01  8.50000000E-01
  8.50000000E-01  8.50000000E-01  8.50000000E-01  8.50000000E-01  8.50000000E-01
  8.50000000E-01  8.50000000E-01  8.50000000E-01  8.50000000E-01  8.50000000E-01
  8.50000000E-01  8.50000000E-01  8.50000000E-01  8.50000000E-01  8.50000000E-01
  8.50000000E-01  8.50000000E-01  8.50000000E-01  8.50000000E-01  8.50000000E-01
  8.50000000E-01  8.50000000E-01  8.50000000E-01  8.50000000E-01  8.50000000E-01
  8.50000000E-01  8.50000000E-01  8.50000000E-01  8.50000000E-01  8.50000000E-01
  8.50000000E-01  8.50000000E-01  8.50000000E-01  8.50000000E-01  8.50000000E-01
  8.50000000E-01  8.50000000E-01  8.50000000E-01  8.50000000E-01  8.50000000E-01
  8.50000000E-01  8.50000000E-01  8.50000000E-01  8.50000000E-01  8.50000000E-01
  8.50000000E-01  8.50000000E-01  8.50000000E-01  8.50000000E-01  8.50000000E-01
  8.50000000E-01  8.50000000E-01  8.50000000E-01  8.50000000E-01  8.50000000E-01
  8.50000000E-01  8.50000000E-01  8.50000000E-01  8.50000000E-01  8.50000000E-01
  8.50000000E-01  8.50000000E-01  8.50000000E-01  8.50000000E-01  8.50000000E-01
  8.50000000E-01  8.50000000E-01  8.50000000E-01  8.50000000E-01  8.50000000E-01
  8.50000000E-01  8.50000000E-01  8.50000000E-01  8.50000000E-01  8.50000000E-01
  8.50000000E-01  8.50000000E-01  8.50000000E-01  8.50000000E-01  8.50000000E-01
  8.50000000E-01  8.50000000E-01  8.50000000E-01  8.50000000E-01  8.50000000E-01
  8.50000000E-01  8.50000000E-01  8.50000000E-01  8.50000000E-01  8.50000000E-01
  8.50000000E-01  8.50000000E-01  8.50000000E-01  8.50000000E-01  8.50000000E-01
  8.50000000E-01  8.50000000E-01  8.50000000E-01  8.50000000E-01  8.50000000E-01
  8.50000000E-01  8.50000000E-01  8.50000000E-01  8.50000000E-01  8.50000000E-01
  8.50000000E-01  8.50000000E-01  8.50000000E-01  8.50000000E-01  8.50000000E-01
  8.50000000E-01  8.50000000E-01  8.50000000E-01  8.50000000E-01  8.50000000E-01
  8.50000000E-01  8.50000000E-01  8.50000000E-01  8.50000000E-01  8.50000000E-01
  8.50000000E-01  8.50000000E-01  8.50000000E-01  8.50000000E-01  8.50000000E-01
  8.50000000E-01  8.50000000E-01  8.50000000E-01  8.50000000E-01  8.50000000E-01
  8.50000000E-01  8.50000000E-01  8.50000000E-01  8.50000000E-01  8.50000000E-01
  8.50000000E-01  8.50000000E-01  8.50000000E-01  8.50000000E-01  8.50000000E-01
  8.50000000E-01  8.50000000E-01  8.50000000E-01  8.50000000E-01  8.50000000E-01
  8.50000000E-01  8.50000000E-01  8.50000000E-01  8.50000000E-01  8.50000000E-01
  8.50000000E-01  8.50000000E-01  8.50000000E-01  8.50000000E-01  8.50000000E-01
  8.50000000E-01  8.50000000E-01  8.50000000E-01  8.50000000E-01  8.50000000E-01
  8.50000000E-01  8.50000000E-01  8.50000000E-01  8.50000000E-01  8.50000000E-01
  8.50000000E-01  8.50000000E-01  8.50000000E-01  8.50000000E-01  8.50000000E-01
  8.50000000E-01  8.50000000E-01  8.50000000E-01  8.50000000E-01  8.50000000E-01
  8.50000000E-01  8.50000000E-01  8.50000000E-01  8.50000000E-01  8.50000000E-01
  8.50000000E-01  8.50000000E-01  8.50000000E-01  8.50000000E-01  8.50000000E-01
  8.50000000E-01  8.50000000E-01  8.50000000E-01  8.50000000E-01  8.50000000E-01
  8.50000000E-01  8.50000000E-01  8.50000000E-01  8.50000000E-01  8.50000000E-01
  8.50000000E-01  8.50000000E-01  8.50000000E-01  8.50000000E-01  8.50000000E-01
  8.50000000E-01  8.50000000E-01  8.50000000E-01  8.50000000E-01  8.50000000E-01
  8.50000000E-01  8.50000000E-01  8.50000000E-01  8.50000000E-01  8.50000000E-01
  8.50000000E-01  8.50000000E-01  8.50000000E-01  8.50000000E-01  8.50000000E-01
  8.50000000E-01  8.50000000E-01  8.50000000E-01  8.50000000E-01  8.50000000E-01
  8.50000000E-01  8.50000000E-01  8.50000000E-01  8.50000000E-01  8.50000000E-01
  8.50000000E-01  8.50000000E-01  8.50000000E-01  8.50000000E-01  8.50000000E-01
  8.50000000E-01  8.50000000E-01  8.50000000E-01  8.50000000E-01  8.50000000E-01
  8.50000000E-01  8.50000000E-01  8.50000000E-01  8.50000000E-01  8.50000000E-01
  8.50000000E-01  8.50000000E-01  8.50000000E-01  8.50000000E-01  8.50000000E-01
  8.50000000E-01  8.50000000E-01  8.50000000E-01  8.50000000E-01  8.50000000E-01
  8.50000000E-01  8.50000000E-01  8.50000000E-01  8.50000000E-01  8.50000000E-01
  8.50000000E-01  8.50000000E-01  8.50000000E-01  8.50000000E-01  8.50000000E-01
  8.50000000E-01  8.50000000E-01  8.50000000E-01  8.50000000E-01  8.50000000E-01
  8.50000000E-01  8.50000000E-01  8.50000000E-01  8.50000000E-01  8.50000000E-01
  8.50000000E-01  8.50000000E-01  8.50000000E-01  8.50000000E-01  8.50000000E-01
  8.50000000E-01  8.50000000E-01  8.50000000E-01  8.50000000E-01  8.50000000E-01
  8.50000000E-01  8.50000000E-01  8.50000000E-01  8.50000000E-01  8.50000000E-01
  8.50000000E-01  8.50000000E-01  8.50000000E-01  8.50000000E-01  8.50000000E-01
  8.50000000E-01  8.50000000E-01  8.50000000E-01  8.50000000E-01  8.50000000E-01
  8.50000000E-01  8.50000000E-01  8.50000000E-01  8.50000000E-01  8.50000000E-01
  8.50000000E-01  8.50000000E-01  8.50000000E-01  8.50000000E-01  8.50000000E-01
  8.50000000E-01  8.50000000E-01  8.50000000E-01  8.50000000E-01  8.50000000E-01
  8.50000000E-01  8.50000000E-01  8.50000000E-01  8.50000000E-01  8.50000000E-01
  8.50000000E-01  8.50000000E-01  8.50000000E-01  8.50000000E-01  8.50000000E-01
  8.50000000E-01  8.50000000E-01  8.50000000E-01  8.50000000E-01  8.50000000E-01
  8.50000000E-01  8.50000000E-01  8.50000000E-01  8.50000000E-01  8.50000000E-01
  8.50000000E-01  8.50000000E-01  8.50000000E-01  8.50000000E-01  8.50000000E-01
  8.50000000E-01  8.50000000E-01  8.50000000E-01  8.50000000E-01  8.50000000E-01
  8.50000000E-01  8.50000000E-01  8.50000000E-01  8.50000000E-01  8.50000000E-01
  8.50000000E-01  8.50000000E-01  8.50000000E-01  8.50000000E-01  8.50000000E-01
  8.50000000E-01  8.50000000E-01  8.50000000E-01  8.50000000E-01  8.50000000E-01
  8.50000000E-01  8.50000000E-01  8.50000000E-01  8.50000000E-01  8.50000000E-01
  8.50000000E-01  8.50000000E-01  8.50000000E-01  8.50000000E-01  8.50000000E-01
  8.50000000E-01  8.50000000E-01  8.50000000E-01  8.50000000E-01  8.50000000E-01
  8.50000000E-01  8.50000000E-01  8.50000000E-01  8.50000000E-01  8.50000000E-01
  8.50000000E-01  8.50000000E-01  8.50000000E-01  8.50000000E-01  8.50000000E-01
  8.50000000E-01  8.50000000E-01  8.50000000E-01  8.50000000E-01  8.50000000E-01
  8.50000000E-01  8.50000000E-01  8.50000000E-01  8.50000000E-01  8.50000000E-01
  8.50000000E-01  8.50000000E-01  8.50000000E-01  8.50000000E-01  8.50000000E-01
  8.50000000E-01  8.50000000E-01  8.50000000E-01  8.50000000E-01  8.50000000E-01
  8.50000000E-01  8.50000000E-01  8.50000000E-01  8.50000000E-01  8.50000000E-01
  8.50000000E-01  8.50000000E-01  8.50000000E-01  8.50000000E-01  8.50000000E-01
  8.50000000E-01  8.50000000E-01  8.50000000E-01  8.50000000E-01  8.50000000E-01
  8.50000000E-01  8.50000000E-01  8.50000000E-01  8.50000000E-01  8.50000000E-01
  8.50000000E-01  8.50000000E-01  8.50000000E-01  8.50000000E-01  8.50000000E-01
  8.50000000E-01  8.50000000E-01  8.50000000E-01  8.50000000E-01  8.50000000E-01
  8.50000000E-01  8.50000000E-01  8.50000000E-01  8.50000000E-01  8.50000000E-01
  8.50000000E-01  8.50000000E-01  8.50000000E-01  8.50000000E-01  8.50000000E-01
  8.50000000E-01  8.50000000E-01  8.50000000E-01  8.50000000E-01  8.50000000E-01
  8.50000000E-01  8.50000000E-01  8.50000000E-01  8.50000000E-01  8.50000000E-01
  8.50000000E-01  8.50000000E-01  8.50000000E-01  8.50000000E-01  8.50000000E-01
  8.50000000E-01  8.50000000E-01  8.50000000E-01  8.50000000E-01  8.50000000E-01
  8.50000000E-01  8.50000000E-01  8.50000000E-01  8.50000000E-01  8.50000000E-01
  8.50000000E-01  8.50000000E-01  8.50000000E-01  8.50000000E-01  8.50000000E-01
  8.50000000E-01  8.50000000E-01  8.50000000E-01  8.50000000E-01  8.50000000E-01
  8.50000000E-01  8.50000000E-01  8.50000000E-01  8.50000000E-01  8.50000000E-01
  8.50000000E-01  8.50000000E-01  8.50000000E-01  8.50000000E-01  8.50000000E-01
  8.50000000E-01  8.50000000E-01  8.50000000E-01  8.50000000E-01  8.50000000E-01
  8.50000000E-01  8.50000000E-01  8.50000000E-01  8.50000000E-01  8.50000000E-01
  8.50000000E-01  8.50000000E-01  8.50000000E-01  8.50000000E-01  8.50000000E-01
  8.50000000E-01  8.50000000E-01  8.50000000E-01  8.50000000E-01  8.50000000E-01
  8.50000000E-01  8.50000000E-01  8.50000000E-01  8.50000000E-01  8.50000000E-01
  8.50000000E-01  8.50000000E-01  8.50000000E-01  8.50000000E-01  8.50000000E-01
  8.50000000E-01  8.50000000E-01  8.50000000E-01  8.50000000E-01  8.50000000E-01
  8.50000000E-01  8.50000000E-01  8.50000000E-01  8.50000000E-01  8.50000000E-01
  8.50000000E-01  8.50000000E-01  8.50000000E-01  8.50000000E-01  8.50000000E-01
  8.50000000E-01  8.50000000E-01  8.50000000E-01  8.50000000E-01  8.50000000E-01
  8.50000000E-01  8.50000000E-01  8.50000000E-01  8.50000000E-01  8.50000000E-01
  8.50000000E-01  8.50000000E-01  8.50000000E-01  8.50000000E-01  8.50000000E-01
  8.50000000E-01  8.50000000E-01  8.50000000E-01  8.50000000E-01  8.50000000E-01
  8.50000000E-01  8.50000000E-01  8.50000000E-01  8.50000000E-01  8.50000000E-01
  8.50000000E-01  8.50000000E-01  8.50000000E-01  8.50000000E-01  8.50000000E-01
  8.50000000E-01  8.50000000E-01  8.50000000E-01  8.50000000E-01  8.50000000E-01
  8.50000000E-01  8.50000000E-01  8.50000000E-01  8.50000000E-01  8.50000000E-01
  8.50000000E-01  8.50000000E-01  8.50000000E-01  8.50000000E-01  8.50000000E-01
  8.50000000E-01  8.50000000E-01  8.50000000E-01  8.50000000E-01  8.50000000E-01
  8.50000000E-01  8.50000000E-01  8.50000000E-01  8.50000000E-01  8.50000000E-01
  8.50000000E-01  8.50000000E-01  8.50000000E-01  8.50000000E-01  8.50000000E-01
  8.50000000E-01  8.50000000E-01  8.50000000E-01  8.50000000E-01  8.50000000E-01
  8.50000000E-01  8.50000000E-01  8.50000000E-01  8.50000000E-01  8.50000000E-01
  8.50000000E-01  8.50000000E-01  8.50000000E-01  8.50000000E-01  8.50000000E-01
  8.50000000E-01  8.50000000E-01  8.50000000E-01  8.50000000E-01  8.50000000E-01
  8.50000000E-01  8.50000000E-01  8.50000000E-01  8.50000000E-01  8.50000000E-01
  8.50000000E-01  8.50000000E-01  8.50000000E-01  8.50000000E-01  8.50000000E-01
  8.50000000E-01  8.50000000E-01  8.50000000E-01  8.50000000E-01  8.50000000E-01
  8.50000000E-01  8.50000000E-01  8.50000000E-01  8.50000000E-01  8.50000000E-01
  8.50000000E-01  8.50000000E-01  8.50000000E-01  8.50000000E-01  8.50000000E-01
  8.50000000E-01  8.50000000E-01  8.50000000E-01  8.50000000E-01  8.50000000E-01
  8.50000000E-01  8.50000000E-01  8.50000000E-01  8.50000000E-01  8.50000000E-01
  8.50000000E-01  8.50000000E-01  8.50000000E-01  8.50000000E-01  8.50000000E-01
  8.50000000E-01  8.50000000E-01  8.50000000E-01  8.50000000E-01  8.50000000E-01
  8.50000000E-01  8.50000000E-01  8.50000000E-01  8.50000000E-01  8.50000000E-01
  8.50000000E-01  8.50000000E-01  8.50000000E-01  8.50000000E-01  8.50000000E-01
  8.50000000E-01  8.50000000E-01  8.50000000E-01  8.50000000E-01  8.50000000E-01
  8.50000000E-01  8.50000000E-01  8.50000000E-01  8.50000000E-01  8.50000000E-01
  8.50000000E-01  8.50000000E-01  8.50000000E-01  8.50000000E-01  8.50000000E-01
  8.50000000E-01  8.50000000E-01  8.50000000E-01  8.50000000E-01  8.50000000E-01
  8.50000000E-01  8.50000000E-01  8.50000000E-01  8.50000000E-01  8.50000000E-01
  8.50000000E-01  8.50000000E-01  8.50000000E-01  8.50000000E-01  8.50000000E-01
  8.50000000E-01  8.50000000E-01  8.50000000E-01  8.50000000E-01  8.50000000E-01
  8.50000000E-01  8.50000000E-01  8.50000000E-01  8.50000000E-01  8.50000000E-01
  8.50000000E-01  8.50000000E-01  8.50000000E-01  8.50000000E-01  8.50000000E-01
  8.50000000E-01  8.50000000E-01  8.50000000E-01  8.50000000E-01  8.50000000E-01
  8.50000000E-01  8.50000000E-01  8.50000000E-01  8.50000000E-01  8.50000000E-01
  8.50000000E-01  8.50000000E-01  8.50000000E-01  8.50000000E-01  8.50000000E-01
  8.50000000E-01  8.50000000E-01  8.50000000E-01  8.50000000E-01  8.50000000E-01
  8.50000000E-01  8.50000000E-01  8.50000000E-01  8.50000000E-01  8.50000000E-01
  8.50000000E-01  8.50000000E-01  8.50000000E-01  8.50000000E-01  8.50000000E-01
  8.50000000E-01  8.50000000E-01  8.50000000E-01  8.50000000E-01  8.50000000E-01
  8.50000000E-01  8.50000000E-01  8.50000000E-01  8.50000000E-01  8.50000000E-01
  8.50000000E-01  8.50000000E-01  8.50000000E-01  8.50000000E-01  8.50000000E-01
  8.50000000E-01  8.50000000E-01  8.50000000E-01  8.50000000E-01  8.50000000E-01
  8.50000000E-01  8.50000000E-01  8.50000000E-01  8.50000000E-01  8.50000000E-01
  8.50000000E-01  8.50000000E-01  8.50000000E-01  8.50000000E-01  8.50000000E-01
  8.50000000E-01  8.50000000E-01  8.50000000E-01  8.50000000E-01  8.50000000E-01
  8.50000000E-01  8.50000000E-01  8.50000000E-01  8.50000000E-01  8.50000000E-01
  8.50000000E-01  8.50000000E-01  8.50000000E-01  8.50000000E-01  8.50000000E-01
  8.50000000E-01  8.50000000E-01  8.50000000E-01  8.50000000E-01  8.50000000E-01
  8.50000000E-01  8.50000000E-01  8.50000000E-01  8.50000000E-01  8.50000000E-01
  8.50000000E-01  8.50000000E-01  8.50000000E-01  8.50000000E-01  8.50000000E-01
  8.50000000E-01  8.50000000E-01  8.50000000E-01  8.50000000E-01  8.50000000E-01
  8.50000000E-01  8.50000000E-01  8.50000000E-01  8.50000000E-01  8.50000000E-01
  8.50000000E-01  8.50000000E-01  8.50000000E-01  8.50000000E-01  8.50000000E-01
  8.50000000E-01  8.50000000E-01  8.50000000E-01  8.50000000E-01  8.50000000E-01
  8.50000000E-01  8.50000000E-01  8.50000000E-01  8.50000000E-01  8.50000000E-01
  8.50000000E-01  8.50000000E-01  8.50000000E-01  8.50000000E-01  8.50000000E-01
  8.50000000E-01  8.50000000E-01  8.50000000E-01  8.50000000E-01  8.50000000E-01
  8.50000000E-01  8.50000000E-01  8.50000000E-01  8.50000000E-01  8.50000000E-01
  8.50000000E-01  8.50000000E-01  8.50000000E-01  8.50000000E-01  8.50000000E-01
  8.50000000E-01  8.50000000E-01  8.50000000E-01  8.50000000E-01  8.50000000E-01
  8.50000000E-01  8.50000000E-01  8.50000000E-01  8.50000000E-01  8.50000000E-01
  8.50000000E-01  8.50000000E-01  8.50000000E-01  8.50000000E-01  8.50000000E-01
  8.50000000E-01  8.50000000E-01  8.50000000E-01  8.50000000E-01  8.50000000E-01
  8.50000000E-01  8.50000000E-01  8.50000000E-01  8.50000000E-01  8.50000000E-01
  8.50000000E-01  8.50000000E-01  8.50000000E-01  8.50000000E-01  8.50000000E-01
  8.50000000E-01  8.50000000E-01  8.50000000E-01  8.50000000E-01  8.50000000E-01
  8.50000000E-01  8.50000000E-01  8.50000000E-01  8.50000000E-01  8.50000000E-01
  8.50000000E-01  8.50000000E-01  8.50000000E-01  8.50000000E-01  8.50000000E-01
  8.50000000E-01  8.50000000E-01  8.50000000E-01  8.50000000E-01  8.50000000E-01
  8.50000000E-01  8.50000000E-01  8.50000000E-01  8.50000000E-01  8.50000000E-01
  8.50000000E-01  8.50000000E-01  8.50000000E-01  8.50000000E-01  8.50000000E-01
  8.50000000E-01  8.50000000E-01  8.50000000E-01  8.50000000E-01  8.50000000E-01
  8.50000000E-01  8.50000000E-01  8.50000000E-01  8.50000000E-01  8.50000000E-01
  8.50000000E-01  8.50000000E-01  8.50000000E-01  8.50000000E-01  8.50000000E-01
  8.50000000E-01  8.50000000E-01  8.50000000E-01  8.50000000E-01  8.50000000E-01
  8.50000000E-01  8.50000000E-01  8.50000000E-01  8.50000000E-01  8.50000000E-01
  8.50000000E-01  8.50000000E-01  8.50000000E-01  8.50000000E-01  8.50000000E-01
  8.50000000E-01  8.50000000E-01  8.50000000E-01  8.50000000E-01  8.50000000E-01
  8.50000000E-01  8.50000000E-01  8.50000000E-01  8.50000000E-01  8.50000000E-01
  8.50000000E-01  8.50000000E-01  8.50000000E-01  8.50000000E-01  8.50000000E-01
  8.50000000E-01  8.50000000E-01  8.50000000E-01  8.50000000E-01  8.50000000E-01
  8.50000000E-01  8.50000000E-01  8.50000000E-01  8.50000000E-01  8.50000000E-01
  8.50000000E-01  8.50000000E-01  8.50000000E-01  8.50000000E-01  8.50000000E-01
  8.50000000E-01  8.50000000E-01  8.50000000E-01  8.50000000E-01  8.50000000E-01
  8.50000000E-01  8.50000000E-01  8.50000000E-01  8.50000000E-01  8.50000000E-01
  8.50000000E-01  8.50000000E-01  8.50000000E-01  8.50000000E-01  8.50000000E-01
  8.50000000E-01  8.50000000E-01  8.50000000E-01  8.50000000E-01  8.50000000E-01
  8.50000000E-01  8.50000000E-01  8.50000000E-01  8.50000000E-01  8.50000000E-01
  8.50000000E-01  8.50000000E-01  8.50000000E-01  8.50000000E-01  8.50000000E-01
  8.50000000E-01  8.50000000E-01  8.50000000E-01  8.50000000E-01  8.50000000E-01
  8.50000000E-01  8.50000000E-01  8.50000000E-01  8.50000000E-01  8.50000000E-01
  8.50000000E-01  8.50000000E-01  8.50000000E-01  8.50000000E-01  8.50000000E-01
  8.50000000E-01  8.50000000E-01  8.50000000E-01  8.50000000E-01  8.50000000E-01
  8.50000000E-01  8.50000000E-01  8.50000000E-01  8.50000000E-01  8.50000000E-01
  8.50000000E-01  8.50000000E-01  8.50000000E-01  8.50000000E-01  8.50000000E-01
  8.50000000E-01  8.50000000E-01  8.50000000E-01  8.50000000E-01  8.50000000E-01
  8.50000000E-01  8.50000000E-01  8.50000000E-01  8.50000000E-01  8.50000000E-01
  8.50000000E-01  8.50000000E-01  8.50000000E-01  8.50000000E-01  8.50000000E-01
  8.50000000E-01  8.50000000E-01  8.50000000E-01  8.50000000E-01  8.50000000E-01
  8.50000000E-01  8.50000000E-01  8.50000000E-01  8.50000000E-01  8.50000000E-01
  8.50000000E-01  8.50000000E-01  8.50000000E-01  8.50000000E-01  8.50000000E-01
  8.50000000E-01  8.50000000E-01  8.50000000E-01  8.50000000E-01  8.50000000E-01
  8.50000000E-01  8.50000000E-01  8.50000000E-01  8.50000000E-01  8.50000000E-01
  8.50000000E-01  8.50000000E-01  8.50000000E-01  8.50000000E-01  8.50000000E-01
  8.50000000E-01  8.50000000E-01  8.50000000E-01  8.50000000E-01  8.50000000E-01
  8.50000000E-01  8.50000000E-01  8.50000000E-01  8.50000000E-01  8.50000000E-01
  8.50000000E-01  8.50000000E-01  8.50000000E-01  8.50000000E-01  8.50000000E-01
  8.50000000E-01  8.50000000E-01  8.50000000E-01  8.50000000E-01  8.50000000E-01
  8.50000000E-01  8.50000000E-01  8.50000000E-01  8.50000000E-01  8.50000000E-01
  8.50000000E-01  8.50000000E-01  8.50000000E-01  8.50000000E-01  8.50000000E-01
  8.50000000E-01  8.50000000E-01  8.50000000E-01  8.50000000E-01  8.50000000E-01
  8.50000000E-01  8.50000000E-01  8.50000000E-01  8.50000000E-01  8.50000000E-01
  8.50000000E-01  8.50000000E-01  8.50000000E-01  8.50000000E-01  8.50000000E-01
  8.50000000E-01  8.50000000E-01  8.50000000E-01  8.50000000E-01  8.50000000E-01
  8.50000000E-01  8.50000000E-01  8.50000000E-01  8.50000000E-01  8.50000000E-01
  8.50000000E-01  8.50000000E-01  8.50000000E-01  8.50000000E-01  8.50000000E-01
  8.50000000E-01  8.50000000E-01  8.50000000E-01  8.50000000E-01  8.50000000E-01
  8.50000000E-01  8.50000000E-01  8.50000000E-01  8.50000000E-01  8.50000000E-01
  8.50000000E-01  8.50000000E-01  8.50000000E-01  8.50000000E-01  8.50000000E-01
  8.50000000E-01  8.50000000E-01  8.50000000E-01  8.50000000E-01  8.50000000E-01
  8.50000000E-01  8.50000000E-01  8.50000000E-01  8.50000000E-01  8.50000000E-01
  8.50000000E-01  8.50000000E-01  8.50000000E-01  8.50000000E-01  8.50000000E-01
  8.50000000E-01  8.50000000E-01  8.50000000E-01  8.50000000E-01  8.50000000E-01
  8.50000000E-01  8.50000000E-01  8.50000000E-01  8.50000000E-01  8.50000000E-01
  8.50000000E-01  8.50000000E-01  8.50000000E-01  8.50000000E-01  8.50000000E-01
  8.50000000E-01  8.50000000E-01  8.50000000E-01  8.50000000E-01  8.50000000E-01
  8.50000000E-01  8.50000000E-01  8.50000000E-01  8.50000000E-01  8.50000000E-01
  8.50000000E-01  8.50000000E-01  8.50000000E-01  8.50000000E-01  8.50000000E-01
  8.50000000E-01  8.50000000E-01  8.50000000E-01  8.50000000E-01  8.50000000E-01
  8.50000000E-01  8.50000000E-01  8.50000000E-01  8.50000000E-01  8.50000000E-01
  8.50000000E-01  8.50000000E-01  8.50000000E-01  8.50000000E-01  8.50000000E-01
  8.50000000E-01  8.50000000E-01  8.50000000E-01  8.50000000E-01  8.50000000E-01
  8.50000000E-01  8.50000000E-01  8.50000000E-01  8.50000000E-01  8.50000000E-01
  8.50000000E-01  8.50000000E-01  8.50000000E-01  8.50000000E-01  8.50000000E-01
  8.50000000E-01  8.50000000E-01  8.50000000E-01  8.50000000E-01  8.50000000E-01
  8.50000000E-01  8.50000000E-01  8.50000000E-01  8.50000000E-01  8.50000000E-01
  8.50000000E-01  8.50000000E-01  8.50000000E-01  8.50000000E-01  8.50000000E-01
  8.50000000E-01  8.50000000E-01  8.50000000E-01  8.50000000E-01  8.50000000E-01
  8.50000000E-01  8.50000000E-01  8.50000000E-01  8.50000000E-01  8.50000000E-01
  8.50000000E-01  8.50000000E-01  8.50000000E-01  8.50000000E-01  8.50000000E-01
  8.50000000E-01  8.50000000E-01  8.50000000E-01  8.50000000E-01  8.50000000E-01
  8.50000000E-01  8.50000000E-01  8.50000000E-01  8.50000000E-01  8.50000000E-01
  8.50000000E-01  8.50000000E-01  8.50000000E-01  8.50000000E-01  8.50000000E-01
  8.50000000E-01  8.50000000E-01  8.50000000E-01  8.50000000E-01  8.50000000E-01
  8.50000000E-01  8.50000000E-01  8.50000000E-01  8.50000000E-01  8.50000000E-01
  8.50000000E-01  8.50000000E-01  8.50000000E-01  8.50000000E-01  8.50000000E-01
  8.50000000E-01  8.50000000E-01  8.50000000E-01  8.50000000E-01  8.50000000E-01
  8.50000000E-01  8.50000000E-01  8.50000000E-01  8.50000000E-01  8.50000000E-01
  8.50000000E-01  8.50000000E-01  8.50000000E-01  8.50000000E-01  8.50000000E-01
  8.50000000E-01  8.50000000E-01  8.50000000E-01  8.50000000E-01  8.50000000E-01
  8.50000000E-01  8.50000000E-01  8.50000000E-01  8.50000000E-01  8.50000000E-01
  8.50000000E-01  8.50000000E-01  8.50000000E-01  8.50000000E-01  8.50000000E-01
  8.50000000E-01  8.50000000E-01  8.50000000E-01  8.50000000E-01  8.50000000E-01
  8.50000000E-01  8.50000000E-01  8.50000000E-01  8.50000000E-01  8.50000000E-01
  8.50000000E-01  8.50000000E-01  8.50000000E-01  8.50000000E-01  8.50000000E-01
  8.50000000E-01  8.50000000E-01  8.50000000E-01  8.50000000E-01  8.50000000E-01
  8.50000000E-01  8.50000000E-01  8.50000000E-01  8.50000000E-01  8.50000000E-01
  8.50000000E-01  8.50000000E-01  8.50000000E-01  8.50000000E-01  8.50000000E-01
  8.50000000E-01  8.50000000E-01  8.50000000E-01  8.50000000E-01  8.50000000E-01
  8.50000000E-01  8.50000000E-01  8.50000000E-01  8.50000000E-01  8.50000000E-01
  8.50000000E-01  8.50000000E-01  8.50000000E-01  8.50000000E-01  8.50000000E-01
  8.50000000E-01  8.50000000E-01  8.50000000E-01  8.50000000E-01  8.50000000E-01
  8.50000000E-01  8.50000000E-01  8.50000000E-01  8.50000000E-01  8.50000000E-01
  8.50000000E-01  8.50000000E-01  8.50000000E-01  8.50000000E-01  8.50000000E-01
  8.50000000E-01  8.50000000E-01  8.50000000E-01  8.50000000E-01  8.50000000E-01
  8.50000000E-01  8.50000000E-01  8.50000000E-01  8.50000000E-01  8.50000000E-01
  8.50000000E-01  8.50000000E-01  8.50000000E-01  8.50000000E-01  8.50000000E-01
  8.50000000E-01  8.50000000E-01  8.50000000E-01  8.50000000E-01  8.50000000E-01
  8.50000000E-01  8.50000000E-01  8.50000000E-01  8.50000000E-01  8.50000000E-01
  8.50000000E-01  8.50000000E-01  8.50000000E-01  8.50000000E-01  8.50000000E-01
  8.50000000E-01  8.50000000E-01  8.50000000E-01  8.50000000E-01  8.50000000E-01
  8.50000000E-01  8.50000000E-01  8.50000000E-01  8.50000000E-01  8.50000000E-01
  8.50000000E-01  8.50000000E-01  8.50000000E-01  8.50000000E-01  8.50000000E-01
  8.50000000E-01  8.50000000E-01  8.50000000E-01  8.50000000E-01  8.50000000E-01
  8.50000000E-01  8.50000000E-01  8.50000000E-01  8.50000000E-01  8.50000000E-01
  8.50000000E-01  8.50000000E-01  8.50000000E-01  8.50000000E-01  8.50000000E-01
  8.50000000E-01  8.50000000E-01  8.50000000E-01  8.50000000E-01  8.50000000E-01
  8.50000000E-01  8.50000000E-01  8.50000000E-01  8.50000000E-01  8.50000000E-01
  8.50000000E-01  8.50000000E-01  8.50000000E-01  8.50000000E-01  8.50000000E-01
  8.50000000E-01  8.50000000E-01  8.50000000E-01  8.50000000E-01  8.50000000E-01
  8.50000000E-01  8.50000000E-01  8.50000000E-01  8.50000000E-01  8.50000000E-01
  8.50000000E-01  8.50000000E-01  8.50000000E-01  8.50000000E-01  8.50000000E-01
  8.50000000E-01  8.50000000E-01  8.50000000E-01  8.50000000E-01  8.50000000E-01
  8.50000000E-01  8.50000000E-01  8.50000000E-01  8.50000000E-01  8.50000000E-01
  8.50000000E-01  8.50000000E-01  8.50000000E-01  8.50000000E-01  8.50000000E-01
  8.50000000E-01  8.50000000E-01  8.50000000E-01  8.50000000E-01  8.50000000E-01
  8.50000000E-01  8.50000000E-01  8.50000000E-01  8.50000000E-01  8.50000000E-01
  8.50000000E-01  8.50000000E-01  8.50000000E-01  8.50000000E-01  8.50000000E-01
  8.50000000E-01  8.50000000E-01  8.50000000E-01  8.50000000E-01  8.50000000E-01
  8.50000000E-01  8.50000000E-01  8.50000000E-01  8.50000000E-01  8.50000000E-01
  8.50000000E-01  8.50000000E-01  8.50000000E-01  8.50000000E-01  8.50000000E-01
  8.50000000E-01  8.50000000E-01  8.50000000E-01  8.50000000E-01  8.50000000E-01
  8.50000000E-01  8.50000000E-01  8.50000000E-01  8.50000000E-01  8.50000000E-01
  8.50000000E-01  8.50000000E-01  8.50000000E-01  8.50000000E-01  8.50000000E-01
  8.50000000E-01  8.50000000E-01  8.50000000E-01  8.50000000E-01  8.50000000E-01
  8.50000000E-01  8.50000000E-01  8.50000000E-01  8.50000000E-01  8.50000000E-01
  8.50000000E-01  8.50000000E-01  8.50000000E-01  8.50000000E-01  8.50000000E-01
  8.50000000E-01  8.50000000E-01  8.50000000E-01  8.50000000E-01  8.50000000E-01
  8.50000000E-01  8.50000000E-01  8.50000000E-01  8.50000000E-01  8.50000000E-01
  8.50000000E-01  8.50000000E-01  8.50000000E-01  8.50000000E-01  8.50000000E-01
  8.50000000E-01  8.50000000E-01  8.50000000E-01  8.50000000E-01  8.50000000E-01
  8.50000000E-01  8.50000000E-01  8.50000000E-01  8.50000000E-01  8.50000000E-01
  8.50000000E-01  8.50000000E-01  8.50000000E-01  8.50000000E-01  8.50000000E-01
  8.50000000E-01  8.50000000E-01  8.50000000E-01  8.50000000E-01  8.50000000E-01
  8.50000000E-01  8.50000000E-01  8.50000000E-01  8.50000000E-01  8.50000000E-01
  8.50000000E-01  8.50000000E-01  8.50000000E-01  8.50000000E-01  8.50000000E-01
  8.50000000E-01  8.50000000E-01  8.50000000E-01  8.50000000E-01  8.50000000E-01
  8.50000000E-01  8.50000000E-01  8.50000000E-01  8.50000000E-01  8.50000000E-01
  8.50000000E-01  8.50000000E-01  8.50000000E-01  8.50000000E-01  8.50000000E-01
  8.50000000E-01  8.50000000E-01  8.50000000E-01  8.50000000E-01  8.50000000E-01
  8.50000000E-01  8.50000000E-01  8.50000000E-01  8.50000000E-01  8.50000000E-01
  8.50000000E-01  8.50000000E-01  8.50000000E-01  8.50000000E-01  8.50000000E-01
  8.50000000E-01  8.50000000E-01  8.50000000E-01  8.50000000E-01  8.50000000E-01
  8.50000000E-01  8.50000000E-01  8.50000000E-01  8.50000000E-01  8.50000000E-01
  8.50000000E-01  8.50000000E-01  8.50000000E-01  8.50000000E-01  8.50000000E-01
  8.50000000E-01  8.50000000E-01  8.50000000E-01  8.50000000E-01  8.50000000E-01
  8.50000000E-01  8.50000000E-01  8.50000000E-01  8.50000000E-01  8.50000000E-01
  8.50000000E-01  8.50000000E-01  8.50000000E-01  8.50000000E-01  8.50000000E-01
  8.50000000E-01  8.50000000E-01  8.50000000E-01  8.50000000E-01  8.50000000E-01
  8.50000000E-01  8.50000000E-01  8.50000000E-01  8.50000000E-01  8.50000000E-01
  8.50000000E-01  8.50000000E-01  8.50000000E-01  8.50000000E-01  8.50000000E-01
  8.50000000E-01  8.50000000E-01  8.50000000E-01  8.50000000E-01  8.50000000E-01
  8.50000000E-01  8.50000000E-01  8.50000000E-01  8.50000000E-01  8.50000000E-01
  8.50000000E-01  8.50000000E-01  8.50000000E-01  8.50000000E-01  8.50000000E-01
  8.50000000E-01  8.50000000E-01  8.50000000E-01  8.50000000E-01  8.50000000E-01
  8.50000000E-01  8.50000000E-01  8.50000000E-01  8.50000000E-01  8.50000000E-01
  8.50000000E-01  8.50000000E-01  8.50000000E-01  8.50000000E-01  8.50000000E-01
  8.50000000E-01  8.50000000E-01  8.50000000E-01  8.50000000E-01  8.50000000E-01
  8.50000000E-01  8.50000000E-01  8.50000000E-01  8.50000000E-01  8.50000000E-01
  8.50000000E-01  8.50000000E-01  8.50000000E-01  8.50000000E-01  8.50000000E-01
  8.50000000E-01  8.50000000E-01  8.50000000E-01  8.50000000E-01  8.50000000E-01
  8.50000000E-01  8.50000000E-01  8.50000000E-01  8.50000000E-01  8.50000000E-01
  8.50000000E-01  8.50000000E-01  8.50000000E-01  8.50000000E-01  8.50000000E-01
  8.50000000E-01  8.50000000E-01  8.50000000E-01  8.50000000E-01  8.50000000E-01
  8.50000000E-01  8.50000000E-01  8.50000000E-01  8.50000000E-01  8.50000000E-01
  8.50000000E-01  8.50000000E-01  8.50000000E-01  8.50000000E-01  8.50000000E-01
  8.50000000E-01  8.50000000E-01  8.50000000E-01  8.50000000E-01  8.50000000E-01
  8.50000000E-01  8.50000000E-01  8.50000000E-01  8.50000000E-01  8.50000000E-01
  8.50000000E-01  8.50000000E-01  8.50000000E-01  8.50000000E-01  8.50000000E-01
  8.50000000E-01  8.50000000E-01  8.50000000E-01  8.50000000E-01  8.50000000E-01
  8.50000000E-01  8.50000000E-01  8.50000000E-01  8.50000000E-01  8.50000000E-01
  8.50000000E-01  8.50000000E-01  8.50000000E-01  8.50000000E-01  8.50000000E-01
  8.50000000E-01  8.50000000E-01  8.50000000E-01  8.50000000E-01  8.50000000E-01
  8.50000000E-01  8.50000000E-01  8.50000000E-01  8.50000000E-01  8.50000000E-01
  8.50000000E-01  8.50000000E-01  8.50000000E-01  8.50000000E-01  8.50000000E-01
  8.50000000E-01  8.50000000E-01  8.50000000E-01  8.50000000E-01  8.50000000E-01
  8.50000000E-01  8.50000000E-01  8.50000000E-01  8.50000000E-01  8.50000000E-01
  8.50000000E-01  8.50000000E-01  8.50000000E-01  8.50000000E-01  8.50000000E-01
  8.50000000E-01  8.50000000E-01  8.50000000E-01  8.50000000E-01  8.50000000E-01
  8.50000000E-01  8.50000000E-01  8.50000000E-01  8.50000000E-01  8.50000000E-01
  8.50000000E-01  8.50000000E-01  8.50000000E-01  8.50000000E-01  8.50000000E-01
  8.50000000E-01  8.50000000E-01  8.50000000E-01  8.50000000E-01  8.50000000E-01
  8.50000000E-01  8.50000000E-01  8.50000000E-01  8.50000000E-01  8.50000000E-01
  8.50000000E-01  8.50000000E-01  8.50000000E-01  8.50000000E-01  8.50000000E-01
  8.50000000E-01  8.50000000E-01  8.50000000E-01  8.50000000E-01  8.50000000E-01
  8.50000000E-01  8.50000000E-01  8.50000000E-01  8.50000000E-01  8.50000000E-01
  8.50000000E-01  8.50000000E-01  8.50000000E-01  8.50000000E-01  8.50000000E-01
  8.50000000E-01  8.50000000E-01  8.50000000E-01  8.50000000E-01  8.50000000E-01
  8.50000000E-01  8.50000000E-01  8.50000000E-01  8.50000000E-01  8.50000000E-01
  8.50000000E-01  8.50000000E-01  8.50000000E-01  8.50000000E-01  8.50000000E-01
  8.50000000E-01  8.50000000E-01  8.50000000E-01  8.50000000E-01  8.50000000E-01
  8.50000000E-01  8.50000000E-01  8.50000000E-01  8.50000000E-01  8.50000000E-01
  8.50000000E-01  8.50000000E-01  8.50000000E-01  8.50000000E-01  8.50000000E-01
  8.50000000E-01  8.50000000E-01  8.50000000E-01  8.50000000E-01  8.50000000E-01
  8.50000000E-01  8.50000000E-01  8.50000000E-01  8.50000000E-01  8.50000000E-01
  8.50000000E-01  8.50000000E-01  8.50000000E-01  8.50000000E-01  8.50000000E-01
  8.50000000E-01  8.50000000E-01  8.50000000E-01  8.50000000E-01  8.50000000E-01
  8.50000000E-01  8.50000000E-01  8.50000000E-01  8.50000000E-01  8.50000000E-01
  8.50000000E-01  8.50000000E-01  8.50000000E-01  8.50000000E-01  8.50000000E-01
  8.50000000E-01  8.50000000E-01  8.50000000E-01  8.50000000E-01  8.50000000E-01
  8.50000000E-01  8.50000000E-01  8.50000000E-01  8.50000000E-01  8.50000000E-01
  8.50000000E-01  8.50000000E-01  8.50000000E-01  8.50000000E-01  8.50000000E-01
  8.50000000E-01  8.50000000E-01  8.50000000E-01  8.50000000E-01  8.50000000E-01
  8.50000000E-01  8.50000000E-01  8.50000000E-01  8.50000000E-01  8.50000000E-01
  8.50000000E-01  8.50000000E-01  8.50000000E-01  8.50000000E-01  8.50000000E-01
  8.50000000E-01  8.50000000E-01  8.50000000E-01  8.50000000E-01  8.50000000E-01
  8.50000000E-01  8.50000000E-01  8.50000000E-01  8.50000000E-01  8.50000000E-01
  8.50000000E-01  8.50000000E-01  8.50000000E-01  8.50000000E-01  8.50000000E-01
  8.50000000E-01  8.50000000E-01  8.50000000E-01  8.50000000E-01  8.50000000E-01
  8.50000000E-01  8.50000000E-01  8.50000000E-01  8.50000000E-01  8.50000000E-01
  8.50000000E-01  8.50000000E-01  8.50000000E-01  8.50000000E-01  8.50000000E-01
  8.50000000E-01  8.50000000E-01  8.50000000E-01  8.50000000E-01  8.50000000E-01
  8.50000000E-01  8.50000000E-01  8.50000000E-01  8.50000000E-01  8.50000000E-01
  8.50000000E-01  8.50000000E-01  8.50000000E-01  8.50000000E-01  8.50000000E-01
  8.50000000E-01  8.50000000E-01  8.50000000E-01  8.50000000E-01  8.50000000E-01
  8.50000000E-01  8.50000000E-01  8.50000000E-01  8.50000000E-01  8.50000000E-01
  8.50000000E-01  8.50000000E-01  8.50000000E-01  8.50000000E-01  8.50000000E-01
  8.50000000E-01  8.50000000E-01  8.50000000E-01  8.50000000E-01  8.50000000E-01
  8.50000000E-01  8.50000000E-01  8.50000000E-01  8.50000000E-01  8.50000000E-01
  8.50000000E-01  8.50000000E-01  8.50000000E-01  8.50000000E-01  8.50000000E-01
  8.50000000E-01  8.50000000E-01  8.50000000E-01  8.50000000E-01  8.50000000E-01
  8.50000000E-01  8.50000000E-01  8.50000000E-01  8.50000000E-01  8.50000000E-01
  8.50000000E-01  8.50000000E-01  8.50000000E-01  8.50000000E-01  8.50000000E-01
  8.50000000E-01  8.50000000E-01  8.50000000E-01  8.50000000E-01  8.50000000E-01
  8.50000000E-01  8.50000000E-01  8.50000000E-01  8.50000000E-01  8.50000000E-01
  8.50000000E-01  8.50000000E-01  8.50000000E-01  8.50000000E-01  8.50000000E-01
  8.50000000E-01  8.50000000E-01  8.50000000E-01  8.50000000E-01  8.50000000E-01
  8.50000000E-01  8.50000000E-01  8.50000000E-01  8.50000000E-01  8.50000000E-01
  8.50000000E-01  8.50000000E-01  8.50000000E-01  8.50000000E-01  8.50000000E-01
  8.50000000E-01  8.50000000E-01  8.50000000E-01  8.50000000E-01  8.50000000E-01
  8.50000000E-01  8.50000000E-01  8.50000000E-01  8.50000000E-01  8.50000000E-01
  8.50000000E-01  8.50000000E-01  8.50000000E-01  8.50000000E-01  8.50000000E-01
  8.50000000E-01  8.50000000E-01  8.50000000E-01  8.50000000E-01  8.50000000E-01
  8.50000000E-01  8.50000000E-01  8.50000000E-01  8.50000000E-01  8.50000000E-01
  8.50000000E-01  8.50000000E-01  8.50000000E-01  8.50000000E-01  8.50000000E-01
  8.50000000E-01  8.50000000E-01  8.50000000E-01  8.50000000E-01  8.50000000E-01
  8.50000000E-01  8.50000000E-01  8.50000000E-01  8.50000000E-01  8.50000000E-01
  8.50000000E-01  8.50000000E-01  8.50000000E-01  8.50000000E-01  8.50000000E-01
  8.50000000E-01  8.50000000E-01  8.50000000E-01  8.50000000E-01  8.50000000E-01
  8.50000000E-01  8.50000000E-01  8.50000000E-01  8.50000000E-01  8.50000000E-01
  8.50000000E-01  8.50000000E-01  8.50000000E-01  8.50000000E-01  8.50000000E-01
  8.50000000E-01  8.50000000E-01  8.50000000E-01  8.50000000E-01  8.50000000E-01
  8.50000000E-01  8.50000000E-01  8.50000000E-01  8.50000000E-01  8.50000000E-01
  8.50000000E-01  8.50000000E-01  8.50000000E-01  8.50000000E-01  8.50000000E-01
  8.50000000E-01  8.50000000E-01  8.50000000E-01  8.50000000E-01  8.50000000E-01
  8.50000000E-01  8.50000000E-01  8.50000000E-01  8.50000000E-01  8.50000000E-01
  8.50000000E-01  8.50000000E-01  8.50000000E-01  8.50000000E-01  8.50000000E-01
  8.50000000E-01  8.50000000E-01  8.50000000E-01  8.50000000E-01  8.50000000E-01
  8.50000000E-01  8.50000000E-01  8.50000000E-01  8.50000000E-01  8.50000000E-01
  8.50000000E-01  8.50000000E-01  8.50000000E-01  8.50000000E-01  8.50000000E-01
  8.50000000E-01  8.50000000E-01  8.50000000E-01  8.50000000E-01  8.50000000E-01
  8.50000000E-01  8.50000000E-01  8.50000000E-01  8.50000000E-01  8.50000000E-01
  8.50000000E-01  8.50000000E-01  8.50000000E-01  8.50000000E-01  8.50000000E-01
  8.50000000E-01  8.50000000E-01  8.50000000E-01  8.50000000E-01  8.50000000E-01
  8.50000000E-01  8.50000000E-01  8.50000000E-01  8.50000000E-01  8.50000000E-01
  8.50000000E-01  8.50000000E-01  8.50000000E-01  8.50000000E-01  8.50000000E-01
  8.50000000E-01  8.50000000E-01  8.50000000E-01  8.50000000E-01  8.50000000E-01
  8.50000000E-01  8.50000000E-01  8.50000000E-01  8.50000000E-01  8.50000000E-01
  8.50000000E-01  8.50000000E-01  8.50000000E-01  8.50000000E-01  8.50000000E-01
  8.50000000E-01  8.50000000E-01  8.50000000E-01  8.50000000E-01  8.50000000E-01
  8.50000000E-01  8.50000000E-01  8.50000000E-01  8.50000000E-01  8.50000000E-01
  8.50000000E-01  8.50000000E-01  8.50000000E-01  8.50000000E-01  8.50000000E-01
  8.50000000E-01  8.50000000E-01  8.50000000E-01  8.50000000E-01  8.50000000E-01
  8.50000000E-01  8.50000000E-01  8.50000000E-01  8.50000000E-01  8.50000000E-01
  8.50000000E-01  8.50000000E-01  8.50000000E-01  8.50000000E-01  8.50000000E-01
  8.50000000E-01  8.50000000E-01  8.50000000E-01  8.50000000E-01  8.50000000E-01
  8.50000000E-01  8.50000000E-01  8.50000000E-01  8.50000000E-01  8.50000000E-01
  8.50000000E-01  8.50000000E-01  8.50000000E-01  8.50000000E-01  8.50000000E-01
  8.50000000E-01  8.50000000E-01  8.50000000E-01  8.50000000E-01  8.50000000E-01
  8.50000000E-01  8.50000000E-01  8.50000000E-01  8.50000000E-01  8.50000000E-01
  8.50000000E-01  8.50000000E-01  8.50000000E-01  8.50000000E-01  8.50000000E-01
  8.50000000E-01  8.50000000E-01  8.50000000E-01  8.50000000E-01  8.50000000E-01
  8.50000000E-01  8.50000000E-01  8.50000000E-01  8.50000000E-01  8.50000000E-01
  8.50000000E-01  8.50000000E-01  8.50000000E-01  8.50000000E-01  8.50000000E-01
  8.50000000E-01  8.50000000E-01  8.50000000E-01  8.50000000E-01  8.50000000E-01
  8.50000000E-01  8.50000000E-01  8.50000000E-01  8.50000000E-01  8.50000000E-01
  8.50000000E-01  8.50000000E-01  8.50000000E-01  8.50000000E-01  8.50000000E-01
  8.50000000E-01  8.50000000E-01  8.50000000E-01  8.50000000E-01  8.50000000E-01
  8.50000000E-01  8.50000000E-01  8.50000000E-01  8.50000000E-01  8.50000000E-01
  8.50000000E-01  8.50000000E-01  8.50000000E-01  8.50000000E-01  8.50000000E-01
  8.50000000E-01  8.50000000E-01  8.50000000E-01  8.50000000E-01  8.50000000E-01
  8.50000000E-01  8.50000000E-01  8.50000000E-01  8.50000000E-01  8.50000000E-01
  8.50000000E-01  8.50000000E-01  8.50000000E-01  8.50000000E-01  8.50000000E-01
  8.50000000E-01  8.50000000E-01  8.50000000E-01  8.50000000E-01  8.50000000E-01
  8.50000000E-01  8.50000000E-01  8.50000000E-01  8.50000000E-01  8.50000000E-01
  8.50000000E-01  8.50000000E-01  8.50000000E-01  8.50000000E-01  8.50000000E-01
  8.50000000E-01  8.50000000E-01  8.50000000E-01  8.50000000E-01  8.50000000E-01
  8.50000000E-01  8.50000000E-01  8.50000000E-01  8.50000000E-01  8.50000000E-01
  8.50000000E-01  8.50000000E-01  8.50000000E-01  8.50000000E-01  8.50000000E-01
  8.50000000E-01  8.50000000E-01  8.50000000E-01  8.50000000E-01  8.50000000E-01
  8.50000000E-01  8.50000000E-01  8.50000000E-01  8.50000000E-01  8.50000000E-01
  8.50000000E-01  8.50000000E-01  8.50000000E-01  8.50000000E-01  8.50000000E-01
  8.50000000E-01  8.50000000E-01  8.50000000E-01  8.50000000E-01  8.50000000E-01
  8.50000000E-01  8.50000000E-01  8.50000000E-01  8.50000000E-01  8.50000000E-01
  8.50000000E-01  8.50000000E-01  8.50000000E-01  8.50000000E-01  8.50000000E-01
  8.50000000E-01  8.50000000E-01  8.50000000E-01  8.50000000E-01  8.50000000E-01
  8.50000000E-01  8.50000000E-01  8.50000000E-01  8.50000000E-01  8.50000000E-01
  8.50000000E-01  8.50000000E-01  8.50000000E-01  8.50000000E-01  8.50000000E-01
  8.50000000E-01  8.50000000E-01  8.50000000E-01  8.50000000E-01  8.50000000E-01
  8.50000000E-01  8.50000000E-01  8.50000000E-01  8.50000000E-01  8.50000000E-01
  8.50000000E-01  8.50000000E-01  8.50000000E-01  8.50000000E-01  8.50000000E-01
  8.50000000E-01  8.50000000E-01  8.50000000E-01  8.50000000E-01  8.50000000E-01
  8.50000000E-01  8.50000000E-01  8.50000000E-01  8.50000000E-01  8.50000000E-01
  8.50000000E-01  8.50000000E-01  8.50000000E-01  8.50000000E-01  8.50000000E-01
  8.50000000E-01  8.50000000E-01  8.50000000E-01  8.50000000E-01  8.50000000E-01
  8.50000000E-01  8.50000000E-01  8.50000000E-01  8.50000000E-01  8.50000000E-01
  8.50000000E-01  8.50000000E-01  8.50000000E-01  8.50000000E-01  8.50000000E-01
  8.50000000E-01  8.50000000E-01  8.50000000E-01  8.50000000E-01  8.50000000E-01
  8.50000000E-01  8.50000000E-01  8.50000000E-01  8.50000000E-01  8.50000000E-01
  8.50000000E-01  8.50000000E-01  8.50000000E-01  8.50000000E-01  8.50000000E-01
  8.50000000E-01  8.50000000E-01  8.50000000E-01  8.50000000E-01  8.50000000E-01
  8.50000000E-01  8.50000000E-01  8.50000000E-01  8.50000000E-01  8.50000000E-01
  8.50000000E-01  8.50000000E-01  8.50000000E-01  8.50000000E-01  8.50000000E-01
  8.50000000E-01  8.50000000E-01  8.50000000E-01  8.50000000E-01  8.50000000E-01
  8.50000000E-01  8.50000000E-01  8.50000000E-01  8.50000000E-01  8.50000000E-01
  8.50000000E-01  8.50000000E-01  8.50000000E-01  8.50000000E-01  8.50000000E-01
  8.50000000E-01  8.50000000E-01  8.50000000E-01  8.50000000E-01  8.50000000E-01
  8.50000000E-01  8.50000000E-01  8.50000000E-01  8.50000000E-01  8.50000000E-01
  8.50000000E-01  8.50000000E-01  8.50000000E-01  8.50000000E-01  8.50000000E-01
  8.50000000E-01  8.50000000E-01  8.50000000E-01  8.50000000E-01  8.50000000E-01
  8.50000000E-01  8.50000000E-01  8.50000000E-01  8.50000000E-01  8.50000000E-01
  8.50000000E-01  8.50000000E-01  8.50000000E-01  8.50000000E-01  8.50000000E-01
  8.50000000E-01  8.50000000E-01  8.50000000E-01  8.50000000E-01  8.50000000E-01
  8.50000000E-01  8.50000000E-01  8.50000000E-01  8.50000000E-01  8.50000000E-01
  8.50000000E-01  8.50000000E-01  8.50000000E-01  8.50000000E-01  8.50000000E-01
  8.50000000E-01  8.50000000E-01  8.50000000E-01  8.50000000E-01  8.50000000E-01
  8.50000000E-01  8.50000000E-01  8.50000000E-01  8.50000000E-01  8.50000000E-01
  8.50000000E-01  8.50000000E-01  8.50000000E-01  8.50000000E-01  8.50000000E-01
  8.50000000E-01  8.50000000E-01  8.50000000E-01  8.50000000E-01  8.50000000E-01
  8.50000000E-01  8.50000000E-01  8.50000000E-01  8.50000000E-01  8.50000000E-01
  8.50000000E-01  8.50000000E-01  8.50000000E-01  8.50000000E-01  8.50000000E-01
  8.50000000E-01  8.50000000E-01  8.50000000E-01  8.50000000E-01  8.50000000E-01
  8.50000000E-01  8.50000000E-01  8.50000000E-01  8.50000000E-01  8.50000000E-01
  8.50000000E-01  8.50000000E-01  8.50000000E-01  8.50000000E-01  8.50000000E-01
  8.50000000E-01  8.50000000E-01  8.50000000E-01  8.50000000E-01  8.50000000E-01
  8.50000000E-01  8.50000000E-01  8.50000000E-01  8.50000000E-01  8.50000000E-01
  8.50000000E-01  8.50000000E-01  8.50000000E-01  8.50000000E-01  8.50000000E-01
  8.50000000E-01  8.50000000E-01  8.50000000E-01  8.50000000E-01  8.50000000E-01
  8.50000000E-01  8.50000000E-01  8.50000000E-01  8.50000000E-01  8.50000000E-01
  8.50000000E-01  8.50000000E-01  8.50000000E-01  8.50000000E-01  8.50000000E-01
  8.50000000E-01  8.50000000E-01  8.50000000E-01  8.50000000E-01  8.50000000E-01
  8.50000000E-01  8.50000000E-01  8.50000000E-01  8.50000000E-01  8.50000000E-01
  8.50000000E-01  8.50000000E-01  8.50000000E-01  8.50000000E-01  8.50000000E-01
  8.50000000E-01  8.50000000E-01  8.50000000E-01  8.50000000E-01  8.50000000E-01
  8.50000000E-01  8.50000000E-01  8.50000000E-01  8.50000000E-01  8.50000000E-01
  8.50000000E-01  8.50000000E-01  8.50000000E-01  8.50000000E-01  8.50000000E-01
  8.50000000E-01  8.50000000E-01  8.50000000E-01  8.50000000E-01  8.50000000E-01
  8.50000000E-01  8.50000000E-01  8.50000000E-01  8.50000000E-01  8.50000000E-01
  8.50000000E-01  8.50000000E-01  8.50000000E-01  8.50000000E-01  8.50000000E-01
  8.50000000E-01  8.50000000E-01  8.50000000E-01  8.50000000E-01  8.50000000E-01
  8.50000000E-01  8.50000000E-01  8.50000000E-01  8.50000000E-01  8.50000000E-01
  8.50000000E-01  8.50000000E-01  8.50000000E-01  8.50000000E-01  8.50000000E-01
  8.50000000E-01  8.50000000E-01  8.50000000E-01  8.50000000E-01  8.50000000E-01
  8.50000000E-01  8.50000000E-01  8.50000000E-01  8.50000000E-01  8.50000000E-01
  8.50000000E-01  8.50000000E-01  8.50000000E-01  8.50000000E-01  8.50000000E-01
  8.50000000E-01  8.50000000E-01  8.50000000E-01  8.50000000E-01  8.50000000E-01
  8.50000000E-01  8.50000000E-01  8.50000000E-01  8.50000000E-01  8.50000000E-01
  8.50000000E-01  8.50000000E-01  8.50000000E-01  8.50000000E-01  8.50000000E-01
  8.50000000E-01  8.50000000E-01  8.50000000E-01  8.50000000E-01  8.50000000E-01
  8.50000000E-01  8.50000000E-01  8.50000000E-01  8.50000000E-01  8.50000000E-01
  8.50000000E-01  8.50000000E-01  8.50000000E-01  8.50000000E-01  8.50000000E-01
  8.50000000E-01  8.50000000E-01  8.50000000E-01  8.50000000E-01  8.50000000E-01
  8.50000000E-01  8.50000000E-01  8.50000000E-01  8.50000000E-01  8.50000000E-01
  8.50000000E-01  8.50000000E-01  8.50000000E-01  8.50000000E-01  8.50000000E-01
  8.50000000E-01  8.50000000E-01  8.50000000E-01  8.50000000E-01  8.50000000E-01
  8.50000000E-01  8.50000000E-01  8.50000000E-01  8.50000000E-01  8.50000000E-01
  8.50000000E-01  8.50000000E-01  8.50000000E-01  8.50000000E-01  8.50000000E-01
  8.50000000E-01  8.50000000E-01  8.50000000E-01  8.50000000E-01  8.50000000E-01
  8.50000000E-01  8.50000000E-01  8.50000000E-01  8.50000000E-01  8.50000000E-01
  8.50000000E-01  8.50000000E-01  8.50000000E-01  8.50000000E-01  8.50000000E-01
  8.50000000E-01  8.50000000E-01  8.50000000E-01  8.50000000E-01  8.50000000E-01
  8.50000000E-01  8.50000000E-01  8.50000000E-01  8.50000000E-01  8.50000000E-01
  8.50000000E-01  8.50000000E-01  8.50000000E-01  8.50000000E-01  8.50000000E-01
  8.50000000E-01  8.50000000E-01  8.50000000E-01  8.50000000E-01  8.50000000E-01
  8.50000000E-01  8.50000000E-01  8.50000000E-01  8.50000000E-01  8.50000000E-01
  8.50000000E-01  8.50000000E-01  8.50000000E-01  8.50000000E-01  8.50000000E-01
  8.50000000E-01  8.50000000E-01  8.50000000E-01  8.50000000E-01  8.50000000E-01
  8.50000000E-01  8.50000000E-01  8.50000000E-01  8.50000000E-01  8.50000000E-01
  8.50000000E-01  8.50000000E-01  8.50000000E-01  8.50000000E-01  8.50000000E-01
  8.50000000E-01  8.50000000E-01  8.50000000E-01  8.50000000E-01  8.50000000E-01
  8.50000000E-01  8.50000000E-01  8.50000000E-01  8.50000000E-01  8.50000000E-01
  8.50000000E-01  8.50000000E-01  8.50000000E-01  8.50000000E-01  8.50000000E-01
  8.50000000E-01  8.50000000E-01  8.50000000E-01  8.50000000E-01  8.50000000E-01
  8.50000000E-01  8.50000000E-01  8.50000000E-01  8.50000000E-01  8.50000000E-01
  8.50000000E-01  8.50000000E-01  8.50000000E-01  8.50000000E-01  8.50000000E-01
  8.50000000E-01  8.50000000E-01  8.50000000E-01  8.50000000E-01  8.50000000E-01
  8.50000000E-01  8.50000000E-01  8.50000000E-01  8.50000000E-01  8.50000000E-01
  8.50000000E-01  8.50000000E-01  8.50000000E-01  8.50000000E-01  8.50000000E-01
  8.50000000E-01  8.50000000E-01  8.50000000E-01  8.50000000E-01  8.50000000E-01
  8.50000000E-01  8.50000000E-01  8.50000000E-01  8.50000000E-01  8.50000000E-01
  8.50000000E-01  8.50000000E-01  8.50000000E-01  8.50000000E-01  8.50000000E-01
  8.50000000E-01  8.50000000E-01  8.50000000E-01  8.50000000E-01  8.50000000E-01
  8.50000000E-01  8.50000000E-01  8.50000000E-01  8.50000000E-01  8.50000000E-01
  8.50000000E-01  8.50000000E-01  8.50000000E-01  8.50000000E-01  8.50000000E-01
  8.50000000E-01  8.50000000E-01  8.50000000E-01  8.50000000E-01  8.50000000E-01
  8.50000000E-01  8.50000000E-01  8.50000000E-01  8.50000000E-01  8.50000000E-01
  8.50000000E-01  8.50000000E-01  8.50000000E-01  8.50000000E-01  8.50000000E-01
  8.50000000E-01  8.50000000E-01  8.50000000E-01  8.50000000E-01  8.50000000E-01
  8.50000000E-01  8.50000000E-01  8.50000000E-01  8.50000000E-01  8.50000000E-01
  8.50000000E-01  8.50000000E-01  8.50000000E-01  8.50000000E-01  8.50000000E-01
  8.50000000E-01  8.50000000E-01  8.50000000E-01  8.50000000E-01  8.50000000E-01
  8.50000000E-01  8.50000000E-01  8.50000000E-01  8.50000000E-01  8.50000000E-01
  8.50000000E-01  8.50000000E-01  8.50000000E-01  8.50000000E-01  8.50000000E-01
  8.50000000E-01  8.50000000E-01  8.50000000E-01  8.50000000E-01  8.50000000E-01
  8.50000000E-01  8.50000000E-01  8.50000000E-01  8.50000000E-01  8.50000000E-01
  8.50000000E-01  8.50000000E-01  8.50000000E-01  8.50000000E-01  8.50000000E-01
  8.50000000E-01  8.50000000E-01  8.50000000E-01  8.50000000E-01  8.50000000E-01
  8.50000000E-01  8.50000000E-01  8.50000000E-01  8.50000000E-01  8.50000000E-01
  8.50000000E-01  8.50000000E-01  8.50000000E-01  8.50000000E-01  8.50000000E-01
  8.50000000E-01  8.50000000E-01  8.50000000E-01  8.50000000E-01  8.50000000E-01
  8.50000000E-01  8.50000000E-01  8.50000000E-01  8.50000000E-01  8.50000000E-01
  8.50000000E-01  8.50000000E-01  8.50000000E-01  8.50000000E-01  8.50000000E-01
  8.50000000E-01  8.50000000E-01  8.50000000E-01  8.50000000E-01  8.50000000E-01
  8.50000000E-01  8.50000000E-01  8.50000000E-01  8.50000000E-01  8.50000000E-01
  8.50000000E-01  8.50000000E-01  8.50000000E-01  8.50000000E-01  8.50000000E-01
  8.50000000E-01  8.50000000E-01  8.50000000E-01  8.50000000E-01  8.50000000E-01
  8.50000000E-01  8.50000000E-01  8.50000000E-01  8.50000000E-01  8.50000000E-01
  8.50000000E-01  8.50000000E-01  8.50000000E-01  8.50000000E-01  8.50000000E-01
  8.50000000E-01  8.50000000E-01  8.50000000E-01  8.50000000E-01  8.50000000E-01
  8.50000000E-01  8.50000000E-01  8.50000000E-01  8.50000000E-01  8.50000000E-01
  8.50000000E-01  8.50000000E-01  8.50000000E-01  8.50000000E-01  8.50000000E-01
  8.50000000E-01  8.50000000E-01  8.50000000E-01  8.50000000E-01  8.50000000E-01
  8.50000000E-01  8.50000000E-01  8.50000000E-01  8.50000000E-01  8.50000000E-01
  8.50000000E-01  8.50000000E-01  8.50000000E-01  8.50000000E-01  8.50000000E-01
  8.50000000E-01  8.50000000E-01  8.50000000E-01  8.50000000E-01  8.50000000E-01
  8.50000000E-01  8.50000000E-01  8.50000000E-01  8.50000000E-01  8.50000000E-01
  8.50000000E-01  8.50000000E-01  8.50000000E-01  8.50000000E-01  8.50000000E-01
  8.50000000E-01  8.50000000E-01  8.50000000E-01  8.50000000E-01  8.50000000E-01
  8.50000000E-01  8.50000000E-01  8.50000000E-01  8.50000000E-01  8.50000000E-01
  8.50000000E-01  8.50000000E-01  8.50000000E-01  8.50000000E-01  8.50000000E-01
  8.50000000E-01  8.50000000E-01  8.50000000E-01  8.50000000E-01  8.50000000E-01
  8.50000000E-01  8.50000000E-01  8.50000000E-01  8.50000000E-01  8.50000000E-01
  8.50000000E-01  8.50000000E-01  8.50000000E-01  8.50000000E-01  8.50000000E-01
  8.50000000E-01  8.50000000E-01  8.50000000E-01  8.50000000E-01  8.50000000E-01
  8.50000000E-01  8.50000000E-01  8.50000000E-01  8.50000000E-01  8.50000000E-01
  8.50000000E-01  8.50000000E-01  8.50000000E-01  8.50000000E-01  8.50000000E-01
  8.50000000E-01  8.50000000E-01  8.50000000E-01  8.50000000E-01  8.50000000E-01
  8.50000000E-01  8.50000000E-01  8.50000000E-01  8.50000000E-01  8.50000000E-01
  8.50000000E-01  8.50000000E-01  8.50000000E-01  8.50000000E-01  8.50000000E-01
  8.50000000E-01  8.50000000E-01  8.50000000E-01  8.50000000E-01  8.50000000E-01
  8.50000000E-01  8.50000000E-01  8.50000000E-01  8.50000000E-01  8.50000000E-01
  8.50000000E-01  8.50000000E-01  8.50000000E-01  8.50000000E-01  8.50000000E-01
  8.50000000E-01  8.50000000E-01  8.50000000E-01  8.50000000E-01  8.50000000E-01
  8.50000000E-01  8.50000000E-01  8.50000000E-01  8.50000000E-01  8.50000000E-01
  8.50000000E-01  8.50000000E-01  8.50000000E-01  8.50000000E-01  8.50000000E-01
  8.50000000E-01  8.50000000E-01  8.50000000E-01  8.50000000E-01  8.50000000E-01
  8.50000000E-01  8.50000000E-01  8.50000000E-01  8.50000000E-01  8.50000000E-01
  8.50000000E-01  8.50000000E-01  8.50000000E-01  8.50000000E-01  8.50000000E-01
  8.50000000E-01  8.50000000E-01  8.50000000E-01  8.50000000E-01  8.50000000E-01
  8.50000000E-01  8.50000000E-01  8.50000000E-01  8.50000000E-01  8.50000000E-01
  8.50000000E-01  8.50000000E-01  8.50000000E-01  8.50000000E-01  8.50000000E-01
  8.50000000E-01  8.50000000E-01  8.50000000E-01  8.50000000E-01  8.50000000E-01
  8.50000000E-01  8.50000000E-01  8.50000000E-01  8.50000000E-01  8.50000000E-01
  8.50000000E-01  8.50000000E-01  8.50000000E-01  8.50000000E-01  8.50000000E-01
  8.50000000E-01  8.50000000E-01  8.50000000E-01  8.50000000E-01  8.50000000E-01
  8.50000000E-01  8.50000000E-01  8.50000000E-01  8.50000000E-01  8.50000000E-01
  8.50000000E-01  8.50000000E-01  8.50000000E-01  8.50000000E-01  8.50000000E-01
  8.50000000E-01  8.50000000E-01  8.50000000E-01  8.50000000E-01  8.50000000E-01
  8.50000000E-01  8.50000000E-01  8.50000000E-01  8.50000000E-01  8.50000000E-01
  8.50000000E-01  8.50000000E-01  8.50000000E-01  8.50000000E-01  8.50000000E-01
  8.50000000E-01  8.50000000E-01  8.50000000E-01  8.50000000E-01  8.50000000E-01
  8.50000000E-01  8.50000000E-01  8.50000000E-01  8.50000000E-01  8.50000000E-01
  8.50000000E-01  8.50000000E-01  8.50000000E-01  8.50000000E-01  8.50000000E-01
  8.50000000E-01  8.50000000E-01  8.50000000E-01  8.50000000E-01  8.50000000E-01
  8.50000000E-01  8.50000000E-01  8.50000000E-01  8.50000000E-01  8.50000000E-01
  8.50000000E-01  8.50000000E-01  8.50000000E-01  8.50000000E-01  8.50000000E-01
  8.50000000E-01  8.50000000E-01  8.50000000E-01  8.50000000E-01  8.50000000E-01
  8.50000000E-01  8.50000000E-01  8.50000000E-01  8.50000000E-01  8.50000000E-01
  8.50000000E-01  8.50000000E-01  8.50000000E-01  8.50000000E-01  8.50000000E-01
  8.50000000E-01  8.50000000E-01  8.50000000E-01  8.50000000E-01  8.50000000E-01
  8.50000000E-01  8.50000000E-01  8.50000000E-01  8.50000000E-01  8.50000000E-01
  8.50000000E-01  8.50000000E-01  8.50000000E-01  8.50000000E-01  8.50000000E-01
  8.50000000E-01  8.50000000E-01  8.50000000E-01  8.50000000E-01  8.50000000E-01
  8.50000000E-01  8.50000000E-01  8.50000000E-01  8.50000000E-01  8.50000000E-01
  8.50000000E-01  8.50000000E-01  8.50000000E-01  8.50000000E-01  8.50000000E-01
  8.50000000E-01  8.50000000E-01  8.50000000E-01  8.50000000E-01  8.50000000E-01
  8.50000000E-01  8.50000000E-01  8.50000000E-01  8.50000000E-01  8.50000000E-01
  8.50000000E-01  8.50000000E-01  8.50000000E-01  8.50000000E-01  8.50000000E-01
  8.50000000E-01  8.50000000E-01  8.50000000E-01  8.50000000E-01  8.50000000E-01
  8.50000000E-01  8.50000000E-01  8.50000000E-01  8.50000000E-01  8.50000000E-01
  8.50000000E-01  8.50000000E-01  8.50000000E-01  8.50000000E-01  8.50000000E-01
  8.50000000E-01  8.50000000E-01  8.50000000E-01  8.50000000E-01  8.50000000E-01
  8.50000000E-01  8.50000000E-01  8.50000000E-01  8.50000000E-01  8.50000000E-01
  8.50000000E-01  8.50000000E-01  8.50000000E-01  8.50000000E-01  8.50000000E-01
  8.50000000E-01  8.50000000E-01  8.50000000E-01  8.50000000E-01  8.50000000E-01
  8.50000000E-01  8.50000000E-01  8.50000000E-01  8.50000000E-01  8.50000000E-01
  8.50000000E-01  8.50000000E-01  8.50000000E-01  8.50000000E-01  8.50000000E-01
  8.50000000E-01  8.50000000E-01  8.50000000E-01  8.50000000E-01  8.50000000E-01
  8.50000000E-01  8.50000000E-01  8.50000000E-01  8.50000000E-01  8.50000000E-01
  8.50000000E-01  8.50000000E-01  8.50000000E-01  8.50000000E-01  8.50000000E-01
  8.50000000E-01  8.50000000E-01  8.50000000E-01  8.50000000E-01  8.50000000E-01
  8.50000000E-01  8.50000000E-01  8.50000000E-01  8.50000000E-01  8.50000000E-01
  8.50000000E-01  8.50000000E-01  8.50000000E-01  8.50000000E-01  8.50000000E-01
  8.50000000E-01  8.50000000E-01  8.50000000E-01  8.50000000E-01  8.50000000E-01
  8.50000000E-01  8.50000000E-01  8.50000000E-01  8.50000000E-01  8.50000000E-01
  8.50000000E-01  8.50000000E-01  8.50000000E-01  8.50000000E-01  8.50000000E-01
  8.50000000E-01  8.50000000E-01  8.50000000E-01  8.50000000E-01  8.50000000E-01
  8.50000000E-01  8.50000000E-01  8.50000000E-01  8.50000000E-01  8.50000000E-01
  8.50000000E-01  8.50000000E-01  8.50000000E-01  8.50000000E-01  8.50000000E-01
  8.50000000E-01  8.50000000E-01  8.50000000E-01  8.50000000E-01  8.50000000E-01
  8.50000000E-01  8.50000000E-01  8.50000000E-01  8.50000000E-01  8.50000000E-01
  8.50000000E-01  8.50000000E-01  8.50000000E-01  8.50000000E-01  8.50000000E-01
  8.50000000E-01  8.50000000E-01  8.50000000E-01  8.50000000E-01  8.50000000E-01
  8.50000000E-01  8.50000000E-01  8.50000000E-01  8.50000000E-01  8.50000000E-01
  8.50000000E-01  8.50000000E-01  8.50000000E-01  8.50000000E-01  8.50000000E-01
  8.50000000E-01  8.50000000E-01  8.50000000E-01  8.50000000E-01  8.50000000E-01
  8.50000000E-01  8.50000000E-01  8.50000000E-01  8.50000000E-01  8.50000000E-01
  8.50000000E-01  8.50000000E-01  8.50000000E-01  8.50000000E-01  8.50000000E-01
  8.50000000E-01  8.50000000E-01  8.50000000E-01  8.50000000E-01  8.50000000E-01
  8.50000000E-01  8.50000000E-01  8.50000000E-01  8.50000000E-01  8.50000000E-01
  8.50000000E-01  8.50000000E-01  8.50000000E-01  8.50000000E-01  8.50000000E-01
  8.50000000E-01  8.50000000E-01  8.50000000E-01  8.50000000E-01  8.50000000E-01
  8.50000000E-01  8.50000000E-01  8.50000000E-01  8.50000000E-01  8.50000000E-01
  8.50000000E-01  8.50000000E-01  8.50000000E-01  8.50000000E-01  8.50000000E-01
  8.50000000E-01  8.50000000E-01  8.50000000E-01  8.50000000E-01  8.50000000E-01
  8.50000000E-01  8.50000000E-01  8.50000000E-01  8.50000000E-01  8.50000000E-01
  8.50000000E-01  8.50000000E-01  8.50000000E-01  8.50000000E-01  8.50000000E-01
  8.50000000E-01  8.50000000E-01  8.50000000E-01  8.50000000E-01  8.50000000E-01
  8.50000000E-01  8.50000000E-01  8.50000000E-01  8.50000000E-01  8.50000000E-01
  8.50000000E-01  8.50000000E-01  8.50000000E-01  8.50000000E-01  8.50000000E-01
  8.50000000E-01  8.50000000E-01  8.50000000E-01  8.50000000E-01  8.50000000E-01
  8.50000000E-01  8.50000000E-01  8.50000000E-01  8.50000000E-01  8.50000000E-01
  8.50000000E-01  8.50000000E-01  8.50000000E-01  8.50000000E-01  8.50000000E-01
  8.50000000E-01  8.50000000E-01  8.50000000E-01  8.50000000E-01  8.50000000E-01
  8.50000000E-01  8.50000000E-01  8.50000000E-01  8.50000000E-01  8.50000000E-01
  8.50000000E-01  8.50000000E-01  8.50000000E-01  8.50000000E-01  8.50000000E-01
  8.50000000E-01  8.50000000E-01  8.50000000E-01  8.50000000E-01  8.50000000E-01
  8.50000000E-01  8.50000000E-01  8.50000000E-01  8.50000000E-01  8.50000000E-01
  8.50000000E-01  8.50000000E-01  8.50000000E-01  8.50000000E-01  8.50000000E-01
  8.50000000E-01  8.50000000E-01  8.50000000E-01  8.50000000E-01  8.50000000E-01
  8.50000000E-01  8.50000000E-01  8.50000000E-01  8.50000000E-01  8.50000000E-01
  8.50000000E-01  8.50000000E-01  8.50000000E-01  8.50000000E-01  8.50000000E-01
  8.50000000E-01  8.50000000E-01  8.50000000E-01  8.50000000E-01  8.50000000E-01
  8.50000000E-01  8.50000000E-01  8.50000000E-01  8.50000000E-01  8.50000000E-01
  8.50000000E-01  8.50000000E-01  8.50000000E-01  8.50000000E-01  8.50000000E-01
  8.50000000E-01  8.50000000E-01  8.50000000E-01  8.50000000E-01  8.50000000E-01
  8.50000000E-01  8.50000000E-01  8.50000000E-01  8.50000000E-01  8.50000000E-01
  8.50000000E-01  8.50000000E-01  8.50000000E-01  8.50000000E-01  8.50000000E-01
  8.50000000E-01  8.50000000E-01  8.50000000E-01  8.50000000E-01  8.50000000E-01
  8.50000000E-01  8.50000000E-01  8.50000000E-01  8.50000000E-01  8.50000000E-01
  8.50000000E-01  8.50000000E-01  8.50000000E-01  8.50000000E-01  8.50000000E-01
  8.50000000E-01  8.50000000E-01  8.50000000E-01  8.50000000E-01  8.50000000E-01
  8.50000000E-01  8.50000000E-01  8.50000000E-01  8.50000000E-01  8.50000000E-01
  8.50000000E-01  8.50000000E-01  8.50000000E-01  8.50000000E-01  8.50000000E-01
  8.50000000E-01  8.50000000E-01  8.50000000E-01  8.50000000E-01  8.50000000E-01
  8.50000000E-01  8.50000000E-01  8.50000000E-01  8.50000000E-01  8.50000000E-01
  8.50000000E-01  8.50000000E-01  8.50000000E-01  8.50000000E-01  8.50000000E-01
  8.50000000E-01  8.50000000E-01  8.50000000E-01  8.50000000E-01  8.50000000E-01
  8.50000000E-01  8.50000000E-01  8.50000000E-01  8.50000000E-01  8.50000000E-01
  8.50000000E-01  8.50000000E-01  8.50000000E-01  8.50000000E-01  8.50000000E-01
  8.50000000E-01  8.50000000E-01  8.50000000E-01  8.50000000E-01  8.50000000E-01
  8.50000000E-01  8.50000000E-01  8.50000000E-01  8.50000000E-01  8.50000000E-01
  8.50000000E-01  8.50000000E-01  8.50000000E-01  8.50000000E-01  8.50000000E-01
  8.50000000E-01  8.50000000E-01  8.50000000E-01  8.50000000E-01  8.50000000E-01
  8.50000000E-01  8.50000000E-01  8.50000000E-01  8.50000000E-01  8.50000000E-01
  8.50000000E-01  8.50000000E-01  8.50000000E-01  8.50000000E-01  8.50000000E-01
  8.50000000E-01  8.50000000E-01  8.50000000E-01  8.50000000E-01  8.50000000E-01
  8.50000000E-01  8.50000000E-01  8.50000000E-01  8.50000000E-01  8.50000000E-01
  8.50000000E-01  8.50000000E-01  8.50000000E-01  8.50000000E-01  8.50000000E-01
  8.50000000E-01  8.50000000E-01  8.50000000E-01  8.50000000E-01  8.50000000E-01
  8.50000000E-01  8.50000000E-01  8.50000000E-01  8.50000000E-01  8.50000000E-01
  8.50000000E-01  8.50000000E-01  8.50000000E-01  8.50000000E-01  8.50000000E-01
  8.50000000E-01  8.50000000E-01  8.50000000E-01  8.50000000E-01  8.50000000E-01
  8.50000000E-01  8.50000000E-01  8.50000000E-01  8.50000000E-01  8.50000000E-01
  8.50000000E-01  8.50000000E-01  8.50000000E-01  8.50000000E-01  8.50000000E-01
  8.50000000E-01  8.50000000E-01  8.50000000E-01  8.50000000E-01  8.50000000E-01
  8.50000000E-01  8.50000000E-01  8.50000000E-01  8.50000000E-01  8.50000000E-01
  8.50000000E-01  8.50000000E-01  8.50000000E-01  8.50000000E-01  8.50000000E-01
  8.50000000E-01  8.50000000E-01  8.50000000E-01  8.50000000E-01  8.50000000E-01
  8.50000000E-01  8.50000000E-01  8.50000000E-01  8.50000000E-01  8.50000000E-01
  8.50000000E-01  8.50000000E-01  8.50000000E-01  8.50000000E-01  8.50000000E-01
  8.50000000E-01  8.50000000E-01  8.50000000E-01  8.50000000E-01  8.50000000E-01
  8.50000000E-01  8.50000000E-01  8.50000000E-01  8.50000000E-01  8.50000000E-01
  8.50000000E-01  8.50000000E-01  8.50000000E-01  8.50000000E-01  8.50000000E-01
  8.50000000E-01  8.50000000E-01  8.50000000E-01  8.50000000E-01  8.50000000E-01
  8.50000000E-01  8.50000000E-01  8.50000000E-01  8.50000000E-01  8.50000000E-01
  8.50000000E-01  8.50000000E-01  8.50000000E-01  8.50000000E-01  8.50000000E-01
  8.50000000E-01  8.50000000E-01  8.50000000E-01  8.50000000E-01  8.50000000E-01
  8.50000000E-01  8.50000000E-01  8.50000000E-01  8.50000000E-01  8.50000000E-01
  8.50000000E-01  8.50000000E-01  8.50000000E-01  8.50000000E-01  8.50000000E-01
  8.50000000E-01  8.50000000E-01  8.50000000E-01  8.50000000E-01  8.50000000E-01
  8.50000000E-01  8.50000000E-01  8.50000000E-01  8.50000000E-01  8.50000000E-01
  8.50000000E-01  8.50000000E-01  8.50000000E-01  8.50000000E-01  8.50000000E-01
  8.50000000E-01  8.50000000E-01  8.50000000E-01  8.50000000E-01  8.50000000E-01
  8.50000000E-01  8.50000000E-01  8.50000000E-01  8.50000000E-01  8.50000000E-01
  8.50000000E-01  8.50000000E-01  8.50000000E-01  8.50000000E-01  8.50000000E-01
  8.50000000E-01  8.50000000E-01  8.50000000E-01  8.50000000E-01  8.50000000E-01
  8.50000000E-01  8.50000000E-01  8.50000000E-01  8.50000000E-01  8.50000000E-01
  8.50000000E-01  8.50000000E-01  8.50000000E-01  8.50000000E-01  8.50000000E-01
  8.50000000E-01  8.50000000E-01  8.50000000E-01  8.50000000E-01  8.50000000E-01
  8.50000000E-01  8.50000000E-01  8.50000000E-01  8.50000000E-01  8.50000000E-01
  8.50000000E-01  8.50000000E-01  8.50000000E-01  8.50000000E-01  8.50000000E-01
  8.50000000E-01  8.50000000E-01  8.50000000E-01  8.50000000E-01  8.50000000E-01
  8.50000000E-01  8.50000000E-01  8.50000000E-01  8.50000000E-01  8.50000000E-01
  8.50000000E-01  8.50000000E-01  8.50000000E-01  8.50000000E-01  8.50000000E-01
  8.50000000E-01  8.50000000E-01  8.50000000E-01  8.50000000E-01  8.50000000E-01
  8.50000000E-01  8.50000000E-01  8.50000000E-01  8.50000000E-01  8.50000000E-01
  8.50000000E-01  8.50000000E-01  8.50000000E-01  8.50000000E-01  8.50000000E-01
  8.50000000E-01  8.50000000E-01  8.50000000E-01  8.50000000E-01  8.50000000E-01
  8.50000000E-01  8.50000000E-01  8.50000000E-01  8.50000000E-01  8.50000000E-01
  8.50000000E-01  8.50000000E-01  8.50000000E-01  8.50000000E-01  8.50000000E-01
  8.50000000E-01  8.50000000E-01  8.50000000E-01  8.50000000E-01  8.50000000E-01
  8.50000000E-01  8.50000000E-01  8.50000000E-01  8.50000000E-01  8.50000000E-01
  8.50000000E-01  8.50000000E-01  8.50000000E-01  8.50000000E-01  8.50000000E-01
  8.50000000E-01  8.50000000E-01  8.50000000E-01  8.50000000E-01  8.50000000E-01
  8.50000000E-01  8.50000000E-01  8.50000000E-01  8.50000000E-01  8.50000000E-01
  8.50000000E-01  8.50000000E-01  8.50000000E-01  8.50000000E-01  8.50000000E-01
  8.50000000E-01  8.50000000E-01  8.50000000E-01  8.50000000E-01  8.50000000E-01
  8.50000000E-01  8.50000000E-01  8.50000000E-01  8.50000000E-01  8.50000000E-01
  8.50000000E-01  8.50000000E-01  8.50000000E-01  8.50000000E-01  8.50000000E-01
  8.50000000E-01  8.50000000E-01  8.50000000E-01  8.50000000E-01  8.50000000E-01
  8.50000000E-01  8.50000000E-01  8.50000000E-01  8.50000000E-01  8.50000000E-01
  8.50000000E-01  8.50000000E-01  8.50000000E-01  8.50000000E-01  8.50000000E-01
  8.50000000E-01  8.50000000E-01  8.50000000E-01  8.50000000E-01  8.50000000E-01
  8.50000000E-01  8.50000000E-01  8.50000000E-01  8.50000000E-01  8.50000000E-01
  8.50000000E-01  8.50000000E-01  8.50000000E-01  8.50000000E-01  8.50000000E-01
  8.50000000E-01  8.50000000E-01  8.50000000E-01  8.50000000E-01  8.50000000E-01
  8.50000000E-01  8.50000000E-01  8.50000000E-01  8.50000000E-01  8.50000000E-01
  8.50000000E-01  8.50000000E-01  8.50000000E-01  8.50000000E-01  8.50000000E-01
  8.50000000E-01  8.50000000E-01  8.50000000E-01  8.50000000E-01  8.50000000E-01
  8.50000000E-01  8.50000000E-01  8.50000000E-01  8.50000000E-01  8.50000000E-01
  8.50000000E-01  8.50000000E-01  8.50000000E-01  8.50000000E-01  8.50000000E-01
  8.50000000E-01  8.50000000E-01  8.50000000E-01  8.50000000E-01  8.50000000E-01
  8.50000000E-01  8.50000000E-01  8.50000000E-01  8.50000000E-01  8.50000000E-01
  8.50000000E-01  8.50000000E-01  8.50000000E-01  8.50000000E-01  8.50000000E-01
  8.50000000E-01  8.50000000E-01  8.50000000E-01  8.50000000E-01  8.50000000E-01
  8.50000000E-01  8.50000000E-01  8.50000000E-01  8.50000000E-01  8.50000000E-01
  8.50000000E-01  8.50000000E-01  8.50000000E-01  8.50000000E-01  8.50000000E-01
  8.50000000E-01  8.50000000E-01  8.50000000E-01  8.50000000E-01  8.50000000E-01
  8.50000000E-01  8.50000000E-01  8.50000000E-01  8.50000000E-01  8.50000000E-01
  8.50000000E-01  8.50000000E-01  8.50000000E-01  8.50000000E-01  8.50000000E-01
  8.50000000E-01  8.50000000E-01  8.50000000E-01  8.50000000E-01  8.50000000E-01
  8.50000000E-01  8.50000000E-01  8.50000000E-01  8.50000000E-01  8.50000000E-01
  8.50000000E-01  8.50000000E-01  8.50000000E-01  8.50000000E-01  8.50000000E-01
  8.50000000E-01  8.50000000E-01  8.50000000E-01  8.50000000E-01  8.50000000E-01
  8.50000000E-01  8.50000000E-01  8.50000000E-01  8.50000000E-01  8.50000000E-01
  8.50000000E-01  8.50000000E-01  8.50000000E-01  8.50000000E-01  8.50000000E-01
  8.50000000E-01  8.50000000E-01  8.50000000E-01  8.50000000E-01  8.50000000E-01
  8.50000000E-01  8.50000000E-01  8.50000000E-01  8.50000000E-01  8.50000000E-01
  8.50000000E-01  8.50000000E-01  8.50000000E-01  8.50000000E-01  8.50000000E-01
  8.50000000E-01  8.50000000E-01  8.50000000E-01  8.50000000E-01  8.50000000E-01
  8.50000000E-01  8.50000000E-01  8.50000000E-01  8.50000000E-01  8.50000000E-01
  8.50000000E-01  8.50000000E-01  8.50000000E-01  8.50000000E-01  8.50000000E-01
  8.50000000E-01  8.50000000E-01  8.50000000E-01  8.50000000E-01  8.50000000E-01
  8.50000000E-01  8.50000000E-01  8.50000000E-01  8.50000000E-01  8.50000000E-01
  8.50000000E-01  8.50000000E-01  8.50000000E-01  8.50000000E-01  8.50000000E-01
  8.50000000E-01  8.50000000E-01  8.50000000E-01  8.50000000E-01  8.50000000E-01
  8.50000000E-01  8.50000000E-01  8.50000000E-01  8.50000000E-01  8.50000000E-01
  8.50000000E-01  8.50000000E-01  8.50000000E-01  8.50000000E-01  8.50000000E-01
  8.50000000E-01  8.50000000E-01  8.50000000E-01  8.50000000E-01  8.50000000E-01
  8.50000000E-01  8.50000000E-01  8.50000000E-01  8.50000000E-01  8.50000000E-01
  8.50000000E-01  8.50000000E-01  8.50000000E-01  8.50000000E-01  8.50000000E-01
  8.50000000E-01  8.50000000E-01  8.50000000E-01  8.50000000E-01  8.50000000E-01
  8.50000000E-01  8.50000000E-01  8.50000000E-01  8.50000000E-01  8.50000000E-01
  8.50000000E-01  8.50000000E-01  8.50000000E-01  8.50000000E-01  8.50000000E-01
  8.50000000E-01  8.50000000E-01  8.50000000E-01  8.50000000E-01  8.50000000E-01
  8.50000000E-01  8.50000000E-01  8.50000000E-01  8.50000000E-01  8.50000000E-01
  8.50000000E-01  8.50000000E-01  8.50000000E-01  8.50000000E-01  8.50000000E-01
  8.50000000E-01  8.50000000E-01  8.50000000E-01  8.50000000E-01  8.50000000E-01
  8.50000000E-01  8.50000000E-01  8.50000000E-01  8.50000000E-01  8.50000000E-01
  8.50000000E-01  8.50000000E-01  8.50000000E-01  8.50000000E-01  8.50000000E-01
  8.50000000E-01  8.50000000E-01  8.50000000E-01  8.50000000E-01  8.50000000E-01
  8.50000000E-01  8.50000000E-01  8.50000000E-01  8.50000000E-01  8.50000000E-01
  8.50000000E-01  8.50000000E-01  8.50000000E-01  8.50000000E-01  8.50000000E-01
  8.50000000E-01  8.50000000E-01  8.50000000E-01  8.50000000E-01  8.50000000E-01
  8.50000000E-01  8.50000000E-01  8.50000000E-01  8.50000000E-01  8.50000000E-01
  8.50000000E-01  8.50000000E-01  8.50000000E-01  8.50000000E-01  8.50000000E-01
  8.50000000E-01  8.50000000E-01  8.50000000E-01  8.50000000E-01  8.50000000E-01
  8.50000000E-01  8.50000000E-01  8.50000000E-01  8.50000000E-01  8.50000000E-01
  8.50000000E-01  8.50000000E-01  8.50000000E-01  8.50000000E-01  8.50000000E-01
  8.50000000E-01  8.50000000E-01  8.50000000E-01  8.50000000E-01  8.50000000E-01
  8.50000000E-01  8.50000000E-01  8.50000000E-01  8.50000000E-01  8.50000000E-01
  8.50000000E-01  8.50000000E-01  8.50000000E-01  8.50000000E-01  8.50000000E-01
  8.50000000E-01  8.50000000E-01  8.50000000E-01  8.50000000E-01  8.50000000E-01
  8.50000000E-01  8.50000000E-01  8.50000000E-01  8.50000000E-01  8.50000000E-01
  8.50000000E-01  8.50000000E-01  8.50000000E-01  8.50000000E-01  8.50000000E-01
  8.50000000E-01  8.50000000E-01  8.50000000E-01  8.50000000E-01  8.50000000E-01
  8.50000000E-01  8.50000000E-01  8.50000000E-01  8.50000000E-01  8.50000000E-01
  8.50000000E-01  8.50000000E-01  8.50000000E-01  8.50000000E-01  8.50000000E-01
  8.50000000E-01  8.50000000E-01  8.50000000E-01  8.50000000E-01  8.50000000E-01
  8.50000000E-01  8.50000000E-01  8.50000000E-01  8.50000000E-01  8.50000000E-01
  8.50000000E-01  8.50000000E-01  8.50000000E-01  8.50000000E-01  8.50000000E-01
  8.50000000E-01  8.50000000E-01  8.50000000E-01  8.50000000E-01  8.50000000E-01
  8.50000000E-01  8.50000000E-01  8.50000000E-01  8.50000000E-01  8.50000000E-01
  8.50000000E-01  8.50000000E-01  8.50000000E-01  8.50000000E-01  8.50000000E-01
  8.50000000E-01  8.50000000E-01  8.50000000E-01  8.50000000E-01  8.50000000E-01
  8.50000000E-01  8.50000000E-01  8.50000000E-01  8.50000000E-01  8.50000000E-01
  8.50000000E-01  8.50000000E-01  8.50000000E-01  8.50000000E-01  8.50000000E-01
  8.50000000E-01  8.50000000E-01  8.50000000E-01  8.50000000E-01  8.50000000E-01
  8.50000000E-01  8.50000000E-01  8.50000000E-01  8.50000000E-01  8.50000000E-01
  8.50000000E-01  8.50000000E-01  8.50000000E-01  8.50000000E-01  8.50000000E-01
  8.50000000E-01  8.50000000E-01  8.50000000E-01  8.50000000E-01  8.50000000E-01
  8.50000000E-01  8.50000000E-01  8.50000000E-01  8.50000000E-01  8.50000000E-01
  8.50000000E-01  8.50000000E-01  8.50000000E-01  8.50000000E-01  8.50000000E-01
  8.50000000E-01  8.50000000E-01  8.50000000E-01  8.50000000E-01  8.50000000E-01
  8.50000000E-01  8.50000000E-01  8.50000000E-01  8.50000000E-01  8.50000000E-01
  8.50000000E-01  8.50000000E-01  8.50000000E-01  8.50000000E-01  8.50000000E-01
  8.50000000E-01  8.50000000E-01  8.50000000E-01  8.50000000E-01  8.50000000E-01
  8.50000000E-01  8.50000000E-01  8.50000000E-01  8.50000000E-01  8.50000000E-01
  8.50000000E-01  8.50000000E-01  8.50000000E-01  8.50000000E-01  8.50000000E-01
  8.50000000E-01  8.50000000E-01  8.50000000E-01  8.50000000E-01  8.50000000E-01
  8.50000000E-01  8.50000000E-01  8.50000000E-01  8.50000000E-01  8.50000000E-01
  8.50000000E-01  8.50000000E-01  8.50000000E-01  8.50000000E-01  8.50000000E-01
  8.50000000E-01  8.50000000E-01  8.50000000E-01  8.50000000E-01  8.50000000E-01
  8.50000000E-01  8.50000000E-01  8.50000000E-01  8.50000000E-01  8.50000000E-01
  8.50000000E-01  8.50000000E-01  8.50000000E-01  8.50000000E-01  8.50000000E-01
  8.50000000E-01  8.50000000E-01  8.50000000E-01  8.50000000E-01  8.50000000E-01
  8.50000000E-01  8.50000000E-01  8.50000000E-01  8.50000000E-01  8.50000000E-01
  8.50000000E-01  8.50000000E-01  8.50000000E-01  8.50000000E-01  8.50000000E-01
  8.50000000E-01  8.50000000E-01  8.50000000E-01  8.50000000E-01  8.50000000E-01
  8.50000000E-01  8.50000000E-01  8.50000000E-01  8.50000000E-01  8.50000000E-01
  8.50000000E-01  8.50000000E-01  8.50000000E-01  8.50000000E-01  8.50000000E-01
  8.50000000E-01  8.50000000E-01  8.50000000E-01  8.50000000E-01  8.50000000E-01
  8.50000000E-01  8.50000000E-01  8.50000000E-01  8.50000000E-01  8.50000000E-01
  8.50000000E-01  8.50000000E-01  8.50000000E-01  8.50000000E-01  8.50000000E-01
  8.50000000E-01  8.50000000E-01  8.50000000E-01  8.50000000E-01  8.50000000E-01
  8.50000000E-01  8.50000000E-01  8.50000000E-01  8.50000000E-01  8.50000000E-01
  8.50000000E-01  8.50000000E-01  8.50000000E-01  8.50000000E-01  8.50000000E-01
  8.50000000E-01  8.50000000E-01  8.50000000E-01  8.50000000E-01  8.50000000E-01
  8.50000000E-01  8.50000000E-01  8.50000000E-01  8.50000000E-01  8.50000000E-01
  8.50000000E-01  8.50000000E-01  8.50000000E-01  8.50000000E-01  8.50000000E-01
  8.50000000E-01  8.50000000E-01  8.50000000E-01  8.50000000E-01  8.50000000E-01
  8.50000000E-01  8.50000000E-01  8.50000000E-01  8.50000000E-01  8.50000000E-01
  8.50000000E-01  8.50000000E-01  8.50000000E-01  8.50000000E-01  8.50000000E-01
  8.50000000E-01  8.50000000E-01  8.50000000E-01  8.50000000E-01  8.50000000E-01
  8.50000000E-01  8.50000000E-01  8.50000000E-01  8.50000000E-01  8.50000000E-01
  8.50000000E-01  8.50000000E-01  8.50000000E-01  8.50000000E-01  8.50000000E-01
  8.50000000E-01  8.50000000E-01  8.50000000E-01  8.50000000E-01  8.50000000E-01
  8.50000000E-01  8.50000000E-01  8.50000000E-01  8.50000000E-01  8.50000000E-01
  8.50000000E-01  8.50000000E-01  8.50000000E-01  8.50000000E-01  8.50000000E-01
  8.50000000E-01  8.50000000E-01  8.50000000E-01  8.50000000E-01  8.50000000E-01
  8.50000000E-01  8.50000000E-01  8.50000000E-01  8.50000000E-01  8.50000000E-01
  8.50000000E-01  8.50000000E-01  8.50000000E-01  8.50000000E-01  8.50000000E-01
  8.50000000E-01  8.50000000E-01  8.50000000E-01  8.50000000E-01  8.50000000E-01
  8.50000000E-01  8.50000000E-01  8.50000000E-01  8.50000000E-01  8.50000000E-01
  8.50000000E-01  8.50000000E-01  8.50000000E-01  8.50000000E-01  8.50000000E-01
  8.50000000E-01  8.50000000E-01  8.50000000E-01  8.50000000E-01  8.50000000E-01
  8.50000000E-01  8.50000000E-01  8.50000000E-01  8.50000000E-01  8.50000000E-01
  8.50000000E-01  8.50000000E-01  8.50000000E-01  8.50000000E-01  8.50000000E-01
  8.50000000E-01  8.50000000E-01  8.50000000E-01  8.50000000E-01  8.50000000E-01
  8.50000000E-01  8.50000000E-01  8.50000000E-01  8.50000000E-01  8.50000000E-01
  8.50000000E-01  8.50000000E-01  8.50000000E-01  8.50000000E-01  8.50000000E-01
  8.50000000E-01  8.50000000E-01  8.50000000E-01  8.50000000E-01  8.50000000E-01
  8.50000000E-01  8.50000000E-01  8.50000000E-01  8.50000000E-01  8.50000000E-01
  8.50000000E-01  8.50000000E-01  8.50000000E-01  8.50000000E-01  8.50000000E-01
  8.50000000E-01  8.50000000E-01  8.50000000E-01  8.50000000E-01  8.50000000E-01
  8.50000000E-01  8.50000000E-01  8.50000000E-01  8.50000000E-01  8.50000000E-01
  8.50000000E-01  8.50000000E-01  8.50000000E-01  8.50000000E-01  8.50000000E-01
  8.50000000E-01  8.50000000E-01  8.50000000E-01  8.50000000E-01  8.50000000E-01
  8.50000000E-01  8.50000000E-01  8.50000000E-01  8.50000000E-01  8.50000000E-01
  8.50000000E-01  8.50000000E-01  8.50000000E-01  8.50000000E-01  8.50000000E-01
  8.50000000E-01  8.50000000E-01  8.50000000E-01  8.50000000E-01  8.50000000E-01
  8.50000000E-01  8.50000000E-01  8.50000000E-01  8.50000000E-01  8.50000000E-01
  8.50000000E-01  8.50000000E-01  8.50000000E-01  8.50000000E-01  8.50000000E-01
  8.50000000E-01  8.50000000E-01  8.50000000E-01  8.50000000E-01  8.50000000E-01
  8.50000000E-01  8.50000000E-01  8.50000000E-01  8.50000000E-01  8.50000000E-01
  8.50000000E-01  8.50000000E-01  8.50000000E-01  8.50000000E-01  8.50000000E-01
  8.50000000E-01  8.50000000E-01  8.50000000E-01  8.50000000E-01  8.50000000E-01
  8.50000000E-01  8.50000000E-01  8.50000000E-01  8.50000000E-01  8.50000000E-01
  8.50000000E-01  8.50000000E-01  8.50000000E-01  8.50000000E-01  8.50000000E-01
  8.50000000E-01  8.50000000E-01  8.50000000E-01  8.50000000E-01  8.50000000E-01
  8.50000000E-01  8.50000000E-01  8.50000000E-01  8.50000000E-01  8.50000000E-01
  8.50000000E-01  8.50000000E-01  8.50000000E-01  8.50000000E-01  8.50000000E-01
  8.50000000E-01  8.50000000E-01  8.50000000E-01  8.50000000E-01  8.50000000E-01
  8.50000000E-01  8.50000000E-01  8.50000000E-01  8.50000000E-01  8.50000000E-01
  8.50000000E-01  8.50000000E-01  8.50000000E-01  8.50000000E-01  8.50000000E-01
  8.50000000E-01  8.50000000E-01  8.50000000E-01  8.50000000E-01  8.50000000E-01
  8.50000000E-01  8.50000000E-01  8.50000000E-01  8.50000000E-01  8.50000000E-01
  8.50000000E-01  8.50000000E-01  8.50000000E-01  8.50000000E-01  8.50000000E-01
  8.50000000E-01  8.50000000E-01  8.50000000E-01  8.50000000E-01  8.50000000E-01
  8.50000000E-01  8.50000000E-01  8.50000000E-01  8.50000000E-01  8.50000000E-01
  8.50000000E-01  8.50000000E-01  8.50000000E-01  8.50000000E-01  8.50000000E-01
  8.50000000E-01  8.50000000E-01  8.50000000E-01  8.50000000E-01  8.50000000E-01
  8.50000000E-01  8.50000000E-01  8.50000000E-01  8.50000000E-01  8.50000000E-01
  8.50000000E-01  8.50000000E-01  8.50000000E-01  8.50000000E-01  8.50000000E-01
  8.50000000E-01  8.50000000E-01  8.50000000E-01  8.50000000E-01  8.50000000E-01
  8.50000000E-01  8.50000000E-01  8.50000000E-01  8.50000000E-01  8.50000000E-01
  8.50000000E-01  8.50000000E-01  8.50000000E-01  8.50000000E-01  8.50000000E-01
  8.50000000E-01  8.50000000E-01  8.50000000E-01  8.50000000E-01  8.50000000E-01
  8.50000000E-01  8.50000000E-01  8.50000000E-01  8.50000000E-01  8.50000000E-01
  8.50000000E-01  8.50000000E-01  8.50000000E-01  8.50000000E-01  8.50000000E-01
  8.50000000E-01  8.50000000E-01  8.50000000E-01  8.50000000E-01  8.50000000E-01
  8.50000000E-01  8.50000000E-01  8.50000000E-01  8.50000000E-01  8.50000000E-01
  8.50000000E-01  8.50000000E-01  8.50000000E-01  8.50000000E-01  8.50000000E-01
  8.50000000E-01  8.50000000E-01  8.50000000E-01  8.50000000E-01  8.50000000E-01
  8.50000000E-01  8.50000000E-01  8.50000000E-01  8.50000000E-01  8.50000000E-01
  8.50000000E-01  8.50000000E-01  8.50000000E-01  8.50000000E-01  8.50000000E-01
  8.50000000E-01  8.50000000E-01  8.50000000E-01  8.50000000E-01  8.50000000E-01
  8.50000000E-01  8.50000000E-01  8.50000000E-01  8.50000000E-01  8.50000000E-01
  8.50000000E-01  8.50000000E-01  8.50000000E-01  8.50000000E-01  8.50000000E-01
  8.50000000E-01  8.50000000E-01  8.50000000E-01  8.50000000E-01  8.50000000E-01
  8.50000000E-01  8.50000000E-01  8.50000000E-01  8.50000000E-01  8.50000000E-01
  8.50000000E-01  8.50000000E-01  8.50000000E-01  8.50000000E-01  8.50000000E-01
  8.50000000E-01  8.50000000E-01  8.50000000E-01  8.50000000E-01  8.50000000E-01
  8.50000000E-01  8.50000000E-01  8.50000000E-01  8.50000000E-01  8.50000000E-01
  8.50000000E-01  8.50000000E-01  8.50000000E-01  8.50000000E-01  8.50000000E-01
  8.50000000E-01  8.50000000E-01  8.50000000E-01  8.50000000E-01  8.50000000E-01
  8.50000000E-01  8.50000000E-01  8.50000000E-01  8.50000000E-01  8.50000000E-01
  8.50000000E-01  8.50000000E-01  8.50000000E-01  8.50000000E-01  8.50000000E-01
  8.50000000E-01  8.50000000E-01  8.50000000E-01  8.50000000E-01  8.50000000E-01
  8.50000000E-01  8.50000000E-01  8.50000000E-01  8.50000000E-01  8.50000000E-01
  8.50000000E-01  8.50000000E-01  8.50000000E-01  8.50000000E-01  8.50000000E-01
  8.50000000E-01  8.50000000E-01  8.50000000E-01  8.50000000E-01  8.50000000E-01
  8.50000000E-01  8.50000000E-01  8.50000000E-01  8.50000000E-01  8.50000000E-01
  8.50000000E-01  8.50000000E-01  8.50000000E-01  8.50000000E-01  8.50000000E-01
  8.50000000E-01  8.50000000E-01  8.50000000E-01  8.50000000E-01  8.50000000E-01
  8.50000000E-01  8.50000000E-01  8.50000000E-01  8.50000000E-01  8.50000000E-01
  8.50000000E-01  8.50000000E-01  8.50000000E-01  8.50000000E-01  8.50000000E-01
  8.50000000E-01  8.50000000E-01  8.50000000E-01  8.50000000E-01  8.50000000E-01
  8.50000000E-01  8.50000000E-01  8.50000000E-01  8.50000000E-01  8.50000000E-01
  8.50000000E-01  8.50000000E-01  8.50000000E-01  8.50000000E-01  8.50000000E-01
  8.50000000E-01  8.50000000E-01  8.50000000E-01  8.50000000E-01  8.50000000E-01
  8.50000000E-01  8.50000000E-01  8.50000000E-01  8.50000000E-01  8.50000000E-01
  8.50000000E-01  8.50000000E-01  8.50000000E-01  8.50000000E-01  8.50000000E-01
  8.50000000E-01  8.50000000E-01  8.50000000E-01  8.50000000E-01  8.50000000E-01
  8.50000000E-01  8.50000000E-01  8.50000000E-01  8.50000000E-01  8.50000000E-01
  8.50000000E-01  8.50000000E-01  8.50000000E-01  8.50000000E-01  8.50000000E-01
  8.50000000E-01  8.50000000E-01  8.50000000E-01  8.50000000E-01  8.50000000E-01
  8.50000000E-01  8.50000000E-01  8.50000000E-01  8.50000000E-01  8.50000000E-01
  8.50000000E-01  8.50000000E-01  8.50000000E-01  8.50000000E-01  8.50000000E-01
  8.50000000E-01  8.50000000E-01  8.50000000E-01  8.50000000E-01  8.50000000E-01
  8.50000000E-01  8.50000000E-01  8.50000000E-01  8.50000000E-01  8.50000000E-01
  8.50000000E-01  8.50000000E-01  8.50000000E-01  8.50000000E-01  8.50000000E-01
  8.50000000E-01  8.50000000E-01  8.50000000E-01  8.50000000E-01  8.50000000E-01
  8.50000000E-01  8.50000000E-01  8.50000000E-01  8.50000000E-01  8.50000000E-01
  8.50000000E-01  8.50000000E-01  8.50000000E-01  8.50000000E-01  8.50000000E-01
  8.50000000E-01  8.50000000E-01  8.50000000E-01  8.50000000E-01  8.50000000E-01
  8.50000000E-01  8.50000000E-01  8.50000000E-01  8.50000000E-01  8.50000000E-01
  8.50000000E-01  8.50000000E-01  8.50000000E-01  8.50000000E-01  8.50000000E-01
  8.50000000E-01  8.50000000E-01  8.50000000E-01  8.50000000E-01  8.50000000E-01
  8.50000000E-01  8.50000000E-01  8.50000000E-01  8.50000000E-01  8.50000000E-01
  8.50000000E-01  8.50000000E-01  8.50000000E-01  8.50000000E-01  8.50000000E-01
  8.50000000E-01  8.50000000E-01  8.50000000E-01  8.50000000E-01  8.50000000E-01
  8.50000000E-01  8.50000000E-01  8.50000000E-01  8.50000000E-01  8.50000000E-01
  8.50000000E-01  8.50000000E-01  8.50000000E-01  8.50000000E-01  8.50000000E-01
  8.50000000E-01  8.50000000E-01  8.50000000E-01  8.50000000E-01  8.50000000E-01
  8.50000000E-01  8.50000000E-01  8.50000000E-01  8.50000000E-01  8.50000000E-01
  8.50000000E-01  8.50000000E-01  8.50000000E-01  8.50000000E-01  8.50000000E-01
  8.50000000E-01  8.50000000E-01  8.50000000E-01  8.50000000E-01  8.50000000E-01
  8.50000000E-01  8.50000000E-01  8.50000000E-01  8.50000000E-01  8.50000000E-01
  8.50000000E-01  8.50000000E-01  8.50000000E-01  8.50000000E-01  8.50000000E-01
  8.50000000E-01  8.50000000E-01  8.50000000E-01  8.50000000E-01  8.50000000E-01
  8.50000000E-01  8.50000000E-01  8.50000000E-01  8.50000000E-01  8.50000000E-01
  8.50000000E-01  8.50000000E-01  8.50000000E-01  8.50000000E-01  8.50000000E-01
  8.50000000E-01  8.50000000E-01  8.50000000E-01  8.50000000E-01  8.50000000E-01
  8.50000000E-01  8.50000000E-01  8.50000000E-01  8.50000000E-01  8.50000000E-01
  8.50000000E-01  8.50000000E-01  8.50000000E-01  8.50000000E-01  8.50000000E-01
  8.50000000E-01  8.50000000E-01  8.50000000E-01  8.50000000E-01  8.50000000E-01
  8.50000000E-01  8.50000000E-01  8.50000000E-01  8.50000000E-01  8.50000000E-01
  8.50000000E-01  8.50000000E-01  8.50000000E-01  8.50000000E-01  8.50000000E-01
  8.50000000E-01  8.50000000E-01  8.50000000E-01  8.50000000E-01  8.50000000E-01
  8.50000000E-01  8.50000000E-01  8.50000000E-01  8.50000000E-01  8.50000000E-01
  8.50000000E-01  8.50000000E-01  8.50000000E-01  8.50000000E-01  8.50000000E-01
  8.50000000E-01  8.50000000E-01  8.50000000E-01  8.50000000E-01  8.50000000E-01
  8.50000000E-01  8.50000000E-01  8.50000000E-01  8.50000000E-01  8.50000000E-01
  8.50000000E-01  8.50000000E-01  8.50000000E-01  8.50000000E-01  8.50000000E-01
  8.50000000E-01  8.50000000E-01  8.50000000E-01  8.50000000E-01  8.50000000E-01
  8.50000000E-01  8.50000000E-01  8.50000000E-01  8.50000000E-01  8.50000000E-01
  8.50000000E-01  8.50000000E-01  8.50000000E-01  8.50000000E-01  8.50000000E-01
  8.50000000E-01  8.50000000E-01  8.50000000E-01  8.50000000E-01  8.50000000E-01
  8.50000000E-01  8.50000000E-01  8.50000000E-01  8.50000000E-01  8.50000000E-01
  8.50000000E-01  8.50000000E-01  8.50000000E-01  8.50000000E-01  8.50000000E-01
  8.50000000E-01  8.50000000E-01  8.50000000E-01  8.50000000E-01  8.50000000E-01
  8.50000000E-01  8.50000000E-01  8.50000000E-01  8.50000000E-01  8.50000000E-01
  8.50000000E-01  8.50000000E-01  8.50000000E-01  8.50000000E-01  8.50000000E-01
  8.50000000E-01  8.50000000E-01  8.50000000E-01  8.50000000E-01  8.50000000E-01
  8.50000000E-01  8.50000000E-01  8.50000000E-01  8.50000000E-01  8.50000000E-01
  8.50000000E-01  8.50000000E-01  8.50000000E-01  8.50000000E-01  8.50000000E-01
  8.50000000E-01  8.50000000E-01  8.50000000E-01  8.50000000E-01  8.50000000E-01
  8.50000000E-01  8.50000000E-01  8.50000000E-01  8.50000000E-01  8.50000000E-01
  8.50000000E-01  8.50000000E-01  8.50000000E-01  8.50000000E-01  8.50000000E-01
  8.50000000E-01  8.50000000E-01  8.50000000E-01  8.50000000E-01  8.50000000E-01
  8.50000000E-01  8.50000000E-01  8.50000000E-01  8.50000000E-01  8.50000000E-01
  8.50000000E-01  8.50000000E-01  8.50000000E-01  8.50000000E-01  8.50000000E-01
  8.50000000E-01  8.50000000E-01  8.50000000E-01  8.50000000E-01  8.50000000E-01
  8.50000000E-01  8.50000000E-01  8.50000000E-01  8.50000000E-01  8.50000000E-01
  8.50000000E-01  8.50000000E-01  8.50000000E-01  8.50000000E-01  8.50000000E-01
  8.50000000E-01  8.50000000E-01  8.50000000E-01  8.50000000E-01  8.50000000E-01
  8.50000000E-01  8.50000000E-01  8.50000000E-01  8.50000000E-01  8.50000000E-01
  8.50000000E-01  8.50000000E-01  8.50000000E-01  8.50000000E-01  8.50000000E-01
  8.50000000E-01  8.50000000E-01  8.50000000E-01  8.50000000E-01  8.50000000E-01
  8.50000000E-01  8.50000000E-01  8.50000000E-01  8.50000000E-01  8.50000000E-01
  8.50000000E-01  8.50000000E-01  8.50000000E-01  8.50000000E-01  8.50000000E-01
  8.50000000E-01  8.50000000E-01  8.50000000E-01  8.50000000E-01  8.50000000E-01
  8.50000000E-01  8.50000000E-01  8.50000000E-01  8.50000000E-01  8.50000000E-01
  8.50000000E-01  8.50000000E-01  8.50000000E-01  8.50000000E-01  8.50000000E-01
  8.50000000E-01  8.50000000E-01  8.50000000E-01  8.50000000E-01  8.50000000E-01
  8.50000000E-01  8.50000000E-01  8.50000000E-01  8.50000000E-01  8.50000000E-01
  8.50000000E-01  8.50000000E-01  8.50000000E-01  8.50000000E-01  8.50000000E-01
  8.50000000E-01  8.50000000E-01  8.50000000E-01  8.50000000E-01  8.50000000E-01
  8.50000000E-01  8.50000000E-01  8.50000000E-01  8.50000000E-01  8.50000000E-01
  8.50000000E-01  8.50000000E-01  8.50000000E-01  8.50000000E-01  8.50000000E-01
  8.50000000E-01  8.50000000E-01  8.50000000E-01  8.50000000E-01  8.50000000E-01
  8.50000000E-01  8.50000000E-01  8.50000000E-01  8.50000000E-01  8.50000000E-01
  8.50000000E-01  8.50000000E-01  8.50000000E-01  8.50000000E-01  8.50000000E-01
  8.50000000E-01  8.50000000E-01  8.50000000E-01  8.50000000E-01  8.50000000E-01
  8.50000000E-01  8.50000000E-01  8.50000000E-01  8.50000000E-01  8.50000000E-01
  8.50000000E-01  8.50000000E-01  8.50000000E-01  8.50000000E-01  8.50000000E-01
  8.50000000E-01  8.50000000E-01  8.50000000E-01  8.50000000E-01  8.50000000E-01
  8.50000000E-01  8.50000000E-01  8.50000000E-01  8.50000000E-01  8.50000000E-01
  8.50000000E-01  8.50000000E-01  8.50000000E-01  8.50000000E-01  8.50000000E-01
  8.50000000E-01  8.50000000E-01  8.50000000E-01  8.50000000E-01  8.50000000E-01
  8.50000000E-01  8.50000000E-01  8.50000000E-01  8.50000000E-01  8.50000000E-01
  8.50000000E-01  8.50000000E-01  8.50000000E-01  8.50000000E-01  8.50000000E-01
  8.50000000E-01  8.50000000E-01  8.50000000E-01  8.50000000E-01  8.50000000E-01
  8.50000000E-01  8.50000000E-01  8.50000000E-01  8.50000000E-01  8.50000000E-01
  8.50000000E-01  8.50000000E-01  8.50000000E-01  8.50000000E-01  8.50000000E-01
  8.50000000E-01  8.50000000E-01  8.50000000E-01  8.50000000E-01  8.50000000E-01
  8.50000000E-01  8.50000000E-01  8.50000000E-01  8.50000000E-01  8.50000000E-01
  8.50000000E-01  8.50000000E-01  8.50000000E-01  8.50000000E-01  8.50000000E-01
  8.50000000E-01  8.50000000E-01  8.50000000E-01  8.50000000E-01  8.50000000E-01
  8.50000000E-01  8.50000000E-01  8.50000000E-01  8.50000000E-01  8.50000000E-01
  8.50000000E-01  8.50000000E-01  8.50000000E-01  8.50000000E-01  8.50000000E-01
  8.50000000E-01  8.50000000E-01  8.50000000E-01  8.50000000E-01  8.50000000E-01
  8.50000000E-01  8.50000000E-01  8.50000000E-01  8.50000000E-01  8.50000000E-01
  8.50000000E-01  8.50000000E-01  8.50000000E-01  8.50000000E-01  8.50000000E-01
  8.50000000E-01  8.50000000E-01  8.50000000E-01  8.50000000E-01  8.50000000E-01
  8.50000000E-01  8.50000000E-01  8.50000000E-01  8.50000000E-01  8.50000000E-01
  8.50000000E-01  8.50000000E-01  8.50000000E-01  8.50000000E-01  8.50000000E-01
  8.50000000E-01  8.50000000E-01  8.50000000E-01  8.50000000E-01  8.50000000E-01
  8.50000000E-01  8.50000000E-01  8.50000000E-01  8.50000000E-01  8.50000000E-01
  8.50000000E-01  8.50000000E-01  8.50000000E-01  8.50000000E-01  8.50000000E-01
  8.50000000E-01  8.50000000E-01  8.50000000E-01  8.50000000E-01  8.50000000E-01
  8.50000000E-01  8.50000000E-01  8.50000000E-01  8.50000000E-01  8.50000000E-01
  8.50000000E-01  8.50000000E-01  8.50000000E-01  8.50000000E-01  8.50000000E-01
  8.50000000E-01  8.50000000E-01  8.50000000E-01  8.50000000E-01  8.50000000E-01
  8.50000000E-01  8.50000000E-01  8.50000000E-01  8.50000000E-01  8.50000000E-01
  8.50000000E-01  8.50000000E-01  8.50000000E-01  8.50000000E-01  8.50000000E-01
  8.50000000E-01  8.50000000E-01  8.50000000E-01  8.50000000E-01  8.50000000E-01
  8.50000000E-01  8.50000000E-01  8.50000000E-01  8.50000000E-01  8.50000000E-01
  8.50000000E-01  8.50000000E-01  8.50000000E-01  8.50000000E-01  8.50000000E-01
  8.50000000E-01  8.50000000E-01  8.50000000E-01  8.50000000E-01  8.50000000E-01
  8.50000000E-01  8.50000000E-01  8.50000000E-01  8.50000000E-01  8.50000000E-01
  8.50000000E-01  8.50000000E-01  8.50000000E-01  8.50000000E-01  8.50000000E-01
  8.50000000E-01  8.50000000E-01  8.50000000E-01  8.50000000E-01  8.50000000E-01
  8.50000000E-01  8.50000000E-01  8.50000000E-01  8.50000000E-01  8.50000000E-01
  8.50000000E-01  8.50000000E-01  8.50000000E-01  8.50000000E-01  8.50000000E-01
  8.50000000E-01  8.50000000E-01  8.50000000E-01  8.50000000E-01  8.50000000E-01
  8.50000000E-01  8.50000000E-01  8.50000000E-01  8.50000000E-01  8.50000000E-01
  8.50000000E-01  8.50000000E-01  8.50000000E-01  8.50000000E-01  8.50000000E-01
  8.50000000E-01  8.50000000E-01  8.50000000E-01  8.50000000E-01  8.50000000E-01
  8.50000000E-01  8.50000000E-01  8.50000000E-01  8.50000000E-01  8.50000000E-01
  8.50000000E-01  8.50000000E-01  8.50000000E-01  8.50000000E-01  8.50000000E-01
  8.50000000E-01  8.50000000E-01  8.50000000E-01  8.50000000E-01  8.50000000E-01
  8.50000000E-01  8.50000000E-01  8.50000000E-01  8.50000000E-01  8.50000000E-01
  8.50000000E-01  8.50000000E-01  8.50000000E-01  8.50000000E-01  8.50000000E-01
  8.50000000E-01  8.50000000E-01  8.50000000E-01  8.50000000E-01  8.50000000E-01
  8.50000000E-01  8.50000000E-01  8.50000000E-01  8.50000000E-01  8.50000000E-01
  8.50000000E-01  8.50000000E-01  8.50000000E-01  8.50000000E-01  8.50000000E-01
  8.50000000E-01  8.50000000E-01  8.50000000E-01  8.50000000E-01  8.50000000E-01
  8.50000000E-01  8.50000000E-01  8.50000000E-01  8.50000000E-01  8.50000000E-01
  8.50000000E-01  8.50000000E-01  8.50000000E-01  8.50000000E-01  8.50000000E-01
  8.50000000E-01  8.50000000E-01  8.50000000E-01  8.50000000E-01  8.50000000E-01
  8.50000000E-01  8.50000000E-01  8.50000000E-01  8.50000000E-01  8.50000000E-01
  8.50000000E-01  8.50000000E-01  8.50000000E-01  8.50000000E-01  8.50000000E-01
  8.50000000E-01  8.50000000E-01  8.50000000E-01  8.50000000E-01  8.50000000E-01
  8.50000000E-01  8.50000000E-01  8.50000000E-01  8.50000000E-01  8.50000000E-01
  8.50000000E-01  8.50000000E-01  8.50000000E-01  8.50000000E-01  8.50000000E-01
  8.50000000E-01  8.50000000E-01  8.50000000E-01  8.50000000E-01  8.50000000E-01
  8.50000000E-01  8.50000000E-01  8.50000000E-01  8.50000000E-01  8.50000000E-01
  8.50000000E-01  8.50000000E-01  8.50000000E-01  8.50000000E-01  8.50000000E-01
  8.50000000E-01  8.50000000E-01  8.50000000E-01  8.50000000E-01  8.50000000E-01
  8.50000000E-01  8.50000000E-01  8.50000000E-01  8.50000000E-01  8.50000000E-01
  8.50000000E-01  8.50000000E-01  8.50000000E-01  8.50000000E-01  8.50000000E-01
  8.50000000E-01  8.50000000E-01  8.50000000E-01  8.50000000E-01  8.50000000E-01
  8.50000000E-01  8.50000000E-01  8.50000000E-01  8.50000000E-01  8.50000000E-01
  8.50000000E-01  8.50000000E-01  8.50000000E-01  8.50000000E-01  8.50000000E-01
  8.50000000E-01  8.50000000E-01  8.50000000E-01  8.50000000E-01  8.50000000E-01
  8.50000000E-01  8.50000000E-01  8.50000000E-01  8.50000000E-01  8.50000000E-01
  8.50000000E-01  8.50000000E-01  8.50000000E-01  8.50000000E-01  8.50000000E-01
  8.50000000E-01  8.50000000E-01  8.50000000E-01  8.50000000E-01  8.50000000E-01
  8.50000000E-01  8.50000000E-01  8.50000000E-01  8.50000000E-01  8.50000000E-01
  8.50000000E-01  8.50000000E-01  8.50000000E-01  8.50000000E-01  8.50000000E-01
  8.50000000E-01  8.50000000E-01  8.50000000E-01  8.50000000E-01  8.50000000E-01
  8.50000000E-01  8.50000000E-01  8.50000000E-01  8.50000000E-01  8.50000000E-01
  8.50000000E-01  8.50000000E-01  8.50000000E-01  8.50000000E-01  8.50000000E-01
  8.50000000E-01  8.50000000E-01  8.50000000E-01  8.50000000E-01  8.50000000E-01
  8.50000000E-01  8.50000000E-01  8.50000000E-01  8.50000000E-01  8.50000000E-01
  8.50000000E-01  8.50000000E-01  8.50000000E-01  8.50000000E-01  8.50000000E-01
  8.50000000E-01  8.50000000E-01  8.50000000E-01  8.50000000E-01  8.50000000E-01
  8.50000000E-01  8.50000000E-01  8.50000000E-01  8.50000000E-01  8.50000000E-01
  8.50000000E-01  8.50000000E-01  8.50000000E-01  8.50000000E-01  8.50000000E-01
  8.50000000E-01  8.50000000E-01  8.50000000E-01  8.50000000E-01  8.50000000E-01
  8.50000000E-01  8.50000000E-01  8.50000000E-01  8.50000000E-01  8.50000000E-01
  8.50000000E-01  8.50000000E-01  8.50000000E-01  8.50000000E-01  8.50000000E-01
  8.50000000E-01  8.50000000E-01  8.50000000E-01  8.50000000E-01  8.50000000E-01
  8.50000000E-01  8.50000000E-01  8.50000000E-01  8.50000000E-01  8.50000000E-01
  8.50000000E-01  8.50000000E-01  8.50000000E-01  8.50000000E-01  8.50000000E-01
  8.50000000E-01  8.50000000E-01  8.50000000E-01  8.50000000E-01  8.50000000E-01
  8.50000000E-01  8.50000000E-01  8.50000000E-01  8.50000000E-01  8.50000000E-01
  8.50000000E-01  8.50000000E-01  8.50000000E-01  8.50000000E-01  8.50000000E-01
  8.50000000E-01  8.50000000E-01  8.50000000E-01  8.50000000E-01  8.50000000E-01
  8.50000000E-01  8.50000000E-01  8.50000000E-01  8.50000000E-01  8.50000000E-01
  8.50000000E-01  8.50000000E-01  8.50000000E-01  8.50000000E-01  8.50000000E-01
  8.50000000E-01  8.50000000E-01  8.50000000E-01  8.50000000E-01  8.50000000E-01
  8.50000000E-01  8.50000000E-01  8.50000000E-01  8.50000000E-01  8.50000000E-01
  8.50000000E-01  8.50000000E-01  8.50000000E-01  8.50000000E-01  8.50000000E-01
  8.50000000E-01  8.50000000E-01  8.50000000E-01  8.50000000E-01  8.50000000E-01
  8.50000000E-01  8.50000000E-01  8.50000000E-01  8.50000000E-01  8.50000000E-01
  8.50000000E-01  8.50000000E-01  8.50000000E-01  8.50000000E-01  8.50000000E-01
  8.50000000E-01  8.50000000E-01  8.50000000E-01  8.50000000E-01  8.50000000E-01
  8.50000000E-01  8.50000000E-01  8.50000000E-01  8.50000000E-01  8.50000000E-01
  8.50000000E-01  8.50000000E-01  8.50000000E-01  8.50000000E-01  8.50000000E-01
  8.50000000E-01  8.50000000E-01  8.50000000E-01  8.50000000E-01  8.50000000E-01
  8.50000000E-01  8.50000000E-01  8.50000000E-01  8.50000000E-01  8.50000000E-01
  8.50000000E-01  8.50000000E-01  8.50000000E-01  8.50000000E-01  8.50000000E-01
  8.50000000E-01  8.50000000E-01  8.50000000E-01  8.50000000E-01  8.50000000E-01
  8.50000000E-01  8.50000000E-01  8.50000000E-01  8.50000000E-01  8.50000000E-01
  8.50000000E-01  8.50000000E-01  8.50000000E-01  8.50000000E-01  8.50000000E-01
  8.50000000E-01  8.50000000E-01  8.50000000E-01  8.50000000E-01  8.50000000E-01
  8.50000000E-01  8.50000000E-01  8.50000000E-01  8.50000000E-01  8.50000000E-01
  8.50000000E-01  8.50000000E-01  8.50000000E-01  8.50000000E-01  8.50000000E-01
  8.50000000E-01  8.50000000E-01  8.50000000E-01  8.50000000E-01  8.50000000E-01
  8.50000000E-01  8.50000000E-01  8.50000000E-01  8.50000000E-01  8.50000000E-01
  8.50000000E-01  8.50000000E-01  8.50000000E-01  8.50000000E-01  8.50000000E-01
  8.50000000E-01  8.50000000E-01  8.50000000E-01  8.50000000E-01  8.50000000E-01
  8.50000000E-01  8.50000000E-01  8.50000000E-01  8.50000000E-01  8.50000000E-01
  8.50000000E-01  8.50000000E-01  8.50000000E-01  8.50000000E-01  8.50000000E-01
  8.50000000E-01  8.50000000E-01  8.50000000E-01  8.50000000E-01  8.50000000E-01
  8.50000000E-01  8.50000000E-01  8.50000000E-01  8.50000000E-01  8.50000000E-01
  8.50000000E-01  8.50000000E-01  8.50000000E-01  8.50000000E-01  8.50000000E-01
  8.50000000E-01  8.50000000E-01  8.50000000E-01  8.50000000E-01  8.50000000E-01
  8.50000000E-01  8.50000000E-01  8.50000000E-01  8.50000000E-01  8.50000000E-01
  8.50000000E-01  8.50000000E-01  8.50000000E-01  8.50000000E-01  8.50000000E-01
  8.50000000E-01  8.50000000E-01  8.50000000E-01  8.50000000E-01  8.50000000E-01
  8.50000000E-01  8.50000000E-01  8.50000000E-01  8.50000000E-01  8.50000000E-01
  8.50000000E-01  8.50000000E-01  8.50000000E-01  8.50000000E-01  8.50000000E-01
  8.50000000E-01  8.50000000E-01  8.50000000E-01  8.50000000E-01  8.50000000E-01
  8.50000000E-01  8.50000000E-01  8.50000000E-01  8.50000000E-01  8.50000000E-01
  8.50000000E-01  8.50000000E-01  8.50000000E-01  8.50000000E-01  8.50000000E-01
  8.50000000E-01  8.50000000E-01  8.50000000E-01  8.50000000E-01  8.50000000E-01
  8.50000000E-01  8.50000000E-01  8.50000000E-01  8.50000000E-01  8.50000000E-01
  8.50000000E-01  8.50000000E-01  8.50000000E-01  8.50000000E-01  8.50000000E-01
  8.50000000E-01  8.50000000E-01  8.50000000E-01  8.50000000E-01  8.50000000E-01
  8.50000000E-01  8.50000000E-01  8.50000000E-01  8.50000000E-01  8.50000000E-01
  8.50000000E-01  8.50000000E-01  8.50000000E-01  8.50000000E-01  8.50000000E-01
  8.50000000E-01  8.50000000E-01  8.50000000E-01  8.50000000E-01  8.50000000E-01
  8.50000000E-01  8.50000000E-01  8.50000000E-01  8.50000000E-01  8.50000000E-01
  8.50000000E-01  8.50000000E-01  8.50000000E-01  8.50000000E-01  8.50000000E-01
  8.50000000E-01  8.50000000E-01  8.50000000E-01  8.50000000E-01  8.50000000E-01
  8.50000000E-01  8.50000000E-01  8.50000000E-01  8.50000000E-01  8.50000000E-01
  8.50000000E-01  8.50000000E-01  8.50000000E-01  8.50000000E-01  8.50000000E-01
  8.50000000E-01  8.50000000E-01  8.50000000E-01  8.50000000E-01  8.50000000E-01
  8.50000000E-01  8.50000000E-01  8.50000000E-01  8.50000000E-01  8.50000000E-01
  8.50000000E-01  8.50000000E-01  8.50000000E-01  8.50000000E-01  8.50000000E-01
  8.50000000E-01  8.50000000E-01  8.50000000E-01  8.50000000E-01  8.50000000E-01
  8.50000000E-01  8.50000000E-01  8.50000000E-01  8.50000000E-01  8.50000000E-01
  8.50000000E-01  8.50000000E-01  8.50000000E-01  8.50000000E-01  8.50000000E-01
  8.50000000E-01  8.50000000E-01  8.50000000E-01  8.50000000E-01  8.50000000E-01
  8.50000000E-01  8.50000000E-01  8.50000000E-01  8.50000000E-01  8.50000000E-01
  8.50000000E-01  8.50000000E-01  8.50000000E-01  8.50000000E-01  8.50000000E-01
  8.50000000E-01  8.50000000E-01  8.50000000E-01  8.50000000E-01  8.50000000E-01
  8.50000000E-01  8.50000000E-01  8.50000000E-01  8.50000000E-01  8.50000000E-01
  8.50000000E-01  8.50000000E-01  8.50000000E-01  8.50000000E-01  8.50000000E-01
  8.50000000E-01  8.50000000E-01  8.50000000E-01  8.50000000E-01  8.50000000E-01
  8.50000000E-01  8.50000000E-01  8.50000000E-01  8.50000000E-01  8.50000000E-01
  8.50000000E-01  8.50000000E-01  8.50000000E-01  8.50000000E-01  8.50000000E-01
  8.50000000E-01  8.50000000E-01  8.50000000E-01  8.50000000E-01  8.50000000E-01
  8.50000000E-01  8.50000000E-01  8.50000000E-01  8.50000000E-01  8.50000000E-01
  8.50000000E-01  8.50000000E-01  8.50000000E-01  8.50000000E-01  8.50000000E-01
  8.50000000E-01  8.50000000E-01  8.50000000E-01  8.50000000E-01  8.50000000E-01
  8.50000000E-01  8.50000000E-01  8.50000000E-01  8.50000000E-01  8.50000000E-01
  8.50000000E-01  8.50000000E-01  8.50000000E-01  8.50000000E-01  8.50000000E-01
  8.50000000E-01  8.50000000E-01  8.50000000E-01  8.50000000E-01  8.50000000E-01
  8.50000000E-01  8.50000000E-01  8.50000000E-01  8.50000000E-01  8.50000000E-01
  8.50000000E-01  8.50000000E-01  8.50000000E-01  8.50000000E-01  8.50000000E-01
  8.50000000E-01  8.50000000E-01  8.50000000E-01  8.50000000E-01  8.50000000E-01
  8.50000000E-01  8.50000000E-01  8.50000000E-01  8.50000000E-01  8.50000000E-01
  8.50000000E-01  8.50000000E-01  8.50000000E-01  8.50000000E-01  8.50000000E-01
  8.50000000E-01  8.50000000E-01  8.50000000E-01  8.50000000E-01  8.50000000E-01
  8.50000000E-01  8.50000000E-01  8.50000000E-01  8.50000000E-01  8.50000000E-01
  8.50000000E-01  8.50000000E-01  8.50000000E-01  8.50000000E-01  8.50000000E-01
  8.50000000E-01  8.50000000E-01  8.50000000E-01  8.50000000E-01  8.50000000E-01
  8.50000000E-01  8.50000000E-01  8.50000000E-01  8.50000000E-01  8.50000000E-01
  8.50000000E-01  8.50000000E-01  8.50000000E-01  8.50000000E-01  8.50000000E-01
  8.50000000E-01  8.50000000E-01  8.50000000E-01  8.50000000E-01  8.50000000E-01
  8.50000000E-01  8.50000000E-01  8.50000000E-01  8.50000000E-01  8.50000000E-01
  8.50000000E-01  8.50000000E-01  8.50000000E-01  8.50000000E-01  8.50000000E-01
  8.50000000E-01  8.50000000E-01  8.50000000E-01  8.50000000E-01  8.50000000E-01
  8.50000000E-01  8.50000000E-01  8.50000000E-01  8.50000000E-01  8.50000000E-01
  8.50000000E-01  8.50000000E-01  8.50000000E-01  8.50000000E-01  8.50000000E-01
  8.50000000E-01  8.50000000E-01  8.50000000E-01  8.50000000E-01  8.50000000E-01
  8.50000000E-01  8.50000000E-01  8.50000000E-01  8.50000000E-01  8.50000000E-01
  8.50000000E-01  8.50000000E-01  8.50000000E-01  8.50000000E-01  8.50000000E-01
  8.50000000E-01  8.50000000E-01  8.50000000E-01  8.50000000E-01  8.50000000E-01
  8.50000000E-01  8.50000000E-01  8.50000000E-01  8.50000000E-01  8.50000000E-01
  8.50000000E-01  8.50000000E-01  8.50000000E-01  8.50000000E-01  8.50000000E-01
  8.50000000E-01  8.50000000E-01  8.50000000E-01  8.50000000E-01  8.50000000E-01
  8.50000000E-01  8.50000000E-01  8.50000000E-01  8.50000000E-01  8.50000000E-01
  8.50000000E-01  8.50000000E-01  8.50000000E-01  8.50000000E-01  8.50000000E-01
  8.50000000E-01  8.50000000E-01  8.50000000E-01  8.50000000E-01  8.50000000E-01
  8.50000000E-01  8.50000000E-01  8.50000000E-01  8.50000000E-01  8.50000000E-01
  8.50000000E-01  8.50000000E-01  8.50000000E-01  8.50000000E-01  8.50000000E-01
  8.50000000E-01  8.50000000E-01  8.50000000E-01  8.50000000E-01  8.50000000E-01
  8.50000000E-01  8.50000000E-01  8.50000000E-01  8.50000000E-01  8.50000000E-01
  8.50000000E-01  8.50000000E-01  8.50000000E-01  8.50000000E-01  8.50000000E-01
  8.50000000E-01  8.50000000E-01  8.50000000E-01  8.50000000E-01  8.50000000E-01
  8.50000000E-01  8.50000000E-01  8.50000000E-01  8.50000000E-01  8.50000000E-01
  8.50000000E-01  8.50000000E-01  8.50000000E-01  8.50000000E-01  8.50000000E-01
  8.50000000E-01  8.50000000E-01  8.50000000E-01  8.50000000E-01  8.50000000E-01
  8.50000000E-01  8.50000000E-01  8.50000000E-01  8.50000000E-01  8.50000000E-01
  8.50000000E-01  8.50000000E-01  8.50000000E-01  8.50000000E-01  8.50000000E-01
  8.50000000E-01  8.50000000E-01  8.50000000E-01  8.50000000E-01  8.50000000E-01
  8.50000000E-01  8.50000000E-01  8.50000000E-01  8.50000000E-01  8.50000000E-01
  8.50000000E-01  8.50000000E-01  8.50000000E-01  8.50000000E-01  8.50000000E-01
  8.50000000E-01  8.50000000E-01  8.50000000E-01  8.50000000E-01  8.50000000E-01
  8.50000000E-01  8.50000000E-01  8.50000000E-01  8.50000000E-01  8.50000000E-01
  8.50000000E-01  8.50000000E-01  8.50000000E-01  8.50000000E-01  8.50000000E-01
  8.50000000E-01  8.50000000E-01  8.50000000E-01  8.50000000E-01  8.50000000E-01
  8.50000000E-01  8.50000000E-01  8.50000000E-01  8.50000000E-01  8.50000000E-01
  8.50000000E-01  8.50000000E-01  8.50000000E-01  8.50000000E-01  8.50000000E-01
  8.50000000E-01  8.50000000E-01  8.50000000E-01  8.50000000E-01  8.50000000E-01
  8.50000000E-01  8.50000000E-01  8.50000000E-01  8.50000000E-01  8.50000000E-01
  8.50000000E-01  8.50000000E-01  8.50000000E-01  8.50000000E-01  8.50000000E-01
  8.50000000E-01  8.50000000E-01  8.50000000E-01  8.50000000E-01  8.50000000E-01
  8.50000000E-01  8.50000000E-01  8.50000000E-01  8.50000000E-01  8.50000000E-01
  8.50000000E-01  8.50000000E-01  8.50000000E-01  8.50000000E-01  8.50000000E-01
  8.50000000E-01  8.50000000E-01  8.50000000E-01  8.50000000E-01  8.50000000E-01
  8.50000000E-01  8.50000000E-01  8.50000000E-01  8.50000000E-01  8.50000000E-01
  8.50000000E-01  8.50000000E-01  8.50000000E-01  8.50000000E-01  8.50000000E-01
  8.50000000E-01  8.50000000E-01  8.50000000E-01  8.50000000E-01  8.50000000E-01
  8.50000000E-01  8.50000000E-01  8.50000000E-01  8.50000000E-01  8.50000000E-01
  8.50000000E-01  8.50000000E-01  8.50000000E-01  8.50000000E-01  8.50000000E-01
  8.50000000E-01  8.50000000E-01  8.50000000E-01  8.50000000E-01  8.50000000E-01
  8.50000000E-01  8.50000000E-01  8.50000000E-01  8.50000000E-01  8.50000000E-01
  8.50000000E-01  8.50000000E-01  8.50000000E-01  8.50000000E-01  8.50000000E-01
  8.50000000E-01  8.50000000E-01  8.50000000E-01  8.50000000E-01  8.50000000E-01
  8.50000000E-01  8.50000000E-01  8.50000000E-01  8.50000000E-01  8.50000000E-01
  8.50000000E-01  8.50000000E-01  8.50000000E-01  8.50000000E-01  8.50000000E-01
  8.50000000E-01  8.50000000E-01  8.50000000E-01  8.50000000E-01  8.50000000E-01
  8.50000000E-01  8.50000000E-01  8.50000000E-01  8.50000000E-01  8.50000000E-01
  8.50000000E-01  8.50000000E-01  8.50000000E-01  8.50000000E-01  8.50000000E-01
  8.50000000E-01  8.50000000E-01  8.50000000E-01  8.50000000E-01  8.50000000E-01
  8.50000000E-01  8.50000000E-01  8.50000000E-01  8.50000000E-01  8.50000000E-01
  8.50000000E-01  8.50000000E-01  8.50000000E-01  8.50000000E-01  8.50000000E-01
  8.50000000E-01  8.50000000E-01  8.50000000E-01  8.50000000E-01  8.50000000E-01
  8.50000000E-01  8.50000000E-01  8.50000000E-01  8.50000000E-01  8.50000000E-01
  8.50000000E-01  8.50000000E-01  8.50000000E-01  8.50000000E-01  8.50000000E-01
  8.50000000E-01  8.50000000E-01  8.50000000E-01  8.50000000E-01  8.50000000E-01
  8.50000000E-01  8.50000000E-01  8.50000000E-01  8.50000000E-01  8.50000000E-01
  8.50000000E-01  8.50000000E-01  8.50000000E-01  8.50000000E-01  8.50000000E-01
  8.50000000E-01  8.50000000E-01  8.50000000E-01  8.50000000E-01  8.50000000E-01
  8.50000000E-01  8.50000000E-01  8.50000000E-01  8.50000000E-01  8.50000000E-01
  8.50000000E-01  8.50000000E-01  8.50000000E-01  8.50000000E-01  8.50000000E-01
  8.50000000E-01  8.50000000E-01  8.50000000E-01  8.50000000E-01  8.50000000E-01
  8.50000000E-01  8.50000000E-01  8.50000000E-01  8.50000000E-01  8.50000000E-01
  8.50000000E-01  8.50000000E-01  8.50000000E-01  8.50000000E-01  8.50000000E-01
  8.50000000E-01  8.50000000E-01  8.50000000E-01  8.50000000E-01  8.50000000E-01
  8.50000000E-01  8.50000000E-01  8.50000000E-01  8.50000000E-01  8.50000000E-01
  8.50000000E-01  8.50000000E-01  8.50000000E-01  8.50000000E-01  8.50000000E-01
  8.50000000E-01  8.50000000E-01  8.50000000E-01  8.50000000E-01  8.50000000E-01
  8.50000000E-01  8.50000000E-01  8.50000000E-01  8.50000000E-01  8.50000000E-01
  8.50000000E-01  8.50000000E-01  8.50000000E-01  8.50000000E-01  8.50000000E-01
  8.50000000E-01  8.50000000E-01  8.50000000E-01  8.50000000E-01  8.50000000E-01
  8.50000000E-01  8.50000000E-01  8.50000000E-01  8.50000000E-01  8.50000000E-01
  8.50000000E-01  8.50000000E-01  8.50000000E-01  8.50000000E-01  8.50000000E-01
  8.50000000E-01  8.50000000E-01  8.50000000E-01  8.50000000E-01  8.50000000E-01
  8.50000000E-01  8.50000000E-01  8.50000000E-01  8.50000000E-01  8.50000000E-01
  8.50000000E-01  8.50000000E-01  8.50000000E-01  8.50000000E-01  8.50000000E-01
  8.50000000E-01  8.50000000E-01  8.50000000E-01  8.50000000E-01  8.50000000E-01
  8.50000000E-01  8.50000000E-01  8.50000000E-01  8.50000000E-01  8.50000000E-01
  8.50000000E-01  8.50000000E-01  8.50000000E-01  8.50000000E-01  8.50000000E-01
  8.50000000E-01  8.50000000E-01  8.50000000E-01  8.50000000E-01  8.50000000E-01
  8.50000000E-01  8.50000000E-01  8.50000000E-01  8.50000000E-01  8.50000000E-01
  8.50000000E-01  8.50000000E-01  8.50000000E-01  8.50000000E-01  8.50000000E-01
  8.50000000E-01  8.50000000E-01  8.50000000E-01  8.50000000E-01  8.50000000E-01
  8.50000000E-01  8.50000000E-01  8.50000000E-01  8.50000000E-01  8.50000000E-01
  8.50000000E-01  8.50000000E-01  8.50000000E-01  8.50000000E-01  8.50000000E-01
  8.50000000E-01  8.50000000E-01  8.50000000E-01  8.50000000E-01  8.50000000E-01
  8.50000000E-01  8.50000000E-01  8.50000000E-01  8.50000000E-01  8.50000000E-01
  8.50000000E-01  8.50000000E-01  8.50000000E-01  8.50000000E-01  8.50000000E-01
  8.50000000E-01  8.50000000E-01  8.50000000E-01  8.50000000E-01  8.50000000E-01
  8.50000000E-01  8.50000000E-01  8.50000000E-01  8.50000000E-01  8.50000000E-01
  8.50000000E-01  8.50000000E-01  8.50000000E-01  8.50000000E-01  8.50000000E-01
  8.50000000E-01  8.50000000E-01  8.50000000E-01  8.50000000E-01  8.50000000E-01
  8.50000000E-01  8.50000000E-01  8.50000000E-01  8.50000000E-01  8.50000000E-01
  8.50000000E-01  8.50000000E-01  8.50000000E-01  8.50000000E-01  8.50000000E-01
  8.50000000E-01  8.50000000E-01  8.50000000E-01  8.50000000E-01  8.50000000E-01
  8.50000000E-01  8.50000000E-01  8.50000000E-01  8.50000000E-01  8.50000000E-01
  8.50000000E-01  8.50000000E-01  8.50000000E-01  8.50000000E-01  8.50000000E-01
  8.50000000E-01  8.50000000E-01  8.50000000E-01  8.50000000E-01  8.50000000E-01
  8.50000000E-01  8.50000000E-01  8.50000000E-01  8.50000000E-01  8.50000000E-01
  8.50000000E-01  8.50000000E-01  8.50000000E-01  8.50000000E-01  8.50000000E-01
  8.50000000E-01  8.50000000E-01  8.50000000E-01  8.50000000E-01  8.50000000E-01
  8.50000000E-01  8.50000000E-01  8.50000000E-01  8.50000000E-01  8.50000000E-01
  8.50000000E-01  8.50000000E-01  8.50000000E-01  8.50000000E-01  8.50000000E-01
  8.50000000E-01  8.50000000E-01  8.50000000E-01  8.50000000E-01  8.50000000E-01
  8.50000000E-01  8.50000000E-01  8.50000000E-01  8.50000000E-01  8.50000000E-01
  8.50000000E-01  8.50000000E-01  8.50000000E-01  8.50000000E-01  8.50000000E-01
  8.50000000E-01  8.50000000E-01  8.50000000E-01  8.50000000E-01  8.50000000E-01
  8.50000000E-01  8.50000000E-01  8.50000000E-01  8.50000000E-01  8.50000000E-01
  8.50000000E-01  8.50000000E-01  8.50000000E-01  8.50000000E-01  8.50000000E-01
  8.50000000E-01  8.50000000E-01  8.50000000E-01  8.50000000E-01  8.50000000E-01
  8.50000000E-01  8.50000000E-01  8.50000000E-01  8.50000000E-01  8.50000000E-01
  8.50000000E-01  8.50000000E-01  8.50000000E-01  8.50000000E-01  8.50000000E-01
  8.50000000E-01  8.50000000E-01  8.50000000E-01  8.50000000E-01  8.50000000E-01
  8.50000000E-01  8.50000000E-01  8.50000000E-01  8.50000000E-01  8.50000000E-01
  8.50000000E-01  8.50000000E-01  8.50000000E-01  8.50000000E-01  8.50000000E-01
  8.50000000E-01  8.50000000E-01  8.50000000E-01  8.50000000E-01  8.50000000E-01
  8.50000000E-01  8.50000000E-01  8.50000000E-01  8.50000000E-01  8.50000000E-01
  8.50000000E-01  8.50000000E-01  8.50000000E-01  8.50000000E-01  8.50000000E-01
  8.50000000E-01  8.50000000E-01  8.50000000E-01  8.50000000E-01  8.50000000E-01
  8.50000000E-01  8.50000000E-01  8.50000000E-01  8.50000000E-01  8.50000000E-01
  8.50000000E-01  8.50000000E-01  8.50000000E-01  8.50000000E-01  8.50000000E-01
  8.50000000E-01  8.50000000E-01  8.50000000E-01  8.50000000E-01  8.50000000E-01
  8.50000000E-01  8.50000000E-01  8.50000000E-01  8.50000000E-01  8.50000000E-01
  8.50000000E-01  8.50000000E-01  8.50000000E-01  8.50000000E-01  8.50000000E-01
  8.50000000E-01  8.50000000E-01  8.50000000E-01  8.50000000E-01  8.50000000E-01
  8.50000000E-01  8.50000000E-01  8.50000000E-01  8.50000000E-01  8.50000000E-01
  8.50000000E-01  8.50000000E-01  8.50000000E-01  8.50000000E-01  8.50000000E-01
  8.50000000E-01  8.50000000E-01  8.50000000E-01  8.50000000E-01  8.50000000E-01
  8.50000000E-01  8.50000000E-01  8.50000000E-01  8.50000000E-01  8.50000000E-01
  8.50000000E-01  8.50000000E-01  8.50000000E-01  8.50000000E-01  8.50000000E-01
  8.50000000E-01  8.50000000E-01  8.50000000E-01  8.50000000E-01  8.50000000E-01
  8.50000000E-01  8.50000000E-01  8.50000000E-01  8.50000000E-01  8.50000000E-01
  8.50000000E-01  8.50000000E-01  8.50000000E-01  8.50000000E-01  8.50000000E-01
  8.50000000E-01  8.50000000E-01  8.50000000E-01  8.50000000E-01  8.50000000E-01
  8.50000000E-01  8.50000000E-01  8.50000000E-01  8.50000000E-01  8.50000000E-01
  8.50000000E-01  8.50000000E-01  8.50000000E-01  8.50000000E-01  8.50000000E-01
  8.50000000E-01  8.50000000E-01  8.50000000E-01  8.50000000E-01  8.50000000E-01
  8.50000000E-01  8.50000000E-01  8.50000000E-01  8.50000000E-01  8.50000000E-01
  8.50000000E-01  8.50000000E-01  8.50000000E-01  8.50000000E-01  8.50000000E-01
  8.50000000E-01  8.50000000E-01  8.50000000E-01  8.50000000E-01  8.50000000E-01
  8.50000000E-01  8.50000000E-01  8.50000000E-01  8.50000000E-01  8.50000000E-01
  8.50000000E-01  8.50000000E-01  8.50000000E-01  8.50000000E-01  8.50000000E-01
  8.50000000E-01  8.50000000E-01  8.50000000E-01  8.50000000E-01  8.50000000E-01
  8.50000000E-01  8.50000000E-01  8.50000000E-01  8.50000000E-01  8.50000000E-01
  8.50000000E-01  8.50000000E-01  8.50000000E-01  8.50000000E-01  8.50000000E-01
  8.50000000E-01  8.50000000E-01  8.50000000E-01  8.50000000E-01  8.50000000E-01
  8.50000000E-01  8.50000000E-01  8.50000000E-01  8.50000000E-01  8.50000000E-01
  8.50000000E-01  8.50000000E-01  8.50000000E-01  8.50000000E-01  8.50000000E-01
  8.50000000E-01  8.50000000E-01  8.50000000E-01  8.50000000E-01  8.50000000E-01
  8.50000000E-01  8.50000000E-01  8.50000000E-01  8.50000000E-01  8.50000000E-01
  8.50000000E-01  8.50000000E-01  8.50000000E-01  8.50000000E-01  8.50000000E-01
  8.50000000E-01  8.50000000E-01  8.50000000E-01  8.50000000E-01  8.50000000E-01
  8.50000000E-01  8.50000000E-01  8.50000000E-01  8.50000000E-01  8.50000000E-01
  8.50000000E-01  8.50000000E-01  8.50000000E-01  8.50000000E-01  8.50000000E-01
  8.50000000E-01  8.50000000E-01  8.50000000E-01  8.50000000E-01  8.50000000E-01
  8.50000000E-01  8.50000000E-01  8.50000000E-01  8.50000000E-01  8.50000000E-01
  8.50000000E-01  8.50000000E-01  8.50000000E-01  8.50000000E-01  8.50000000E-01
  8.50000000E-01  8.50000000E-01  8.50000000E-01  8.50000000E-01  8.50000000E-01
  8.50000000E-01  8.50000000E-01  8.50000000E-01  8.50000000E-01  8.50000000E-01
  8.50000000E-01  8.50000000E-01  8.50000000E-01  8.50000000E-01  8.50000000E-01
  8.50000000E-01  8.50000000E-01  8.50000000E-01  8.50000000E-01  8.50000000E-01
  8.50000000E-01  8.50000000E-01  8.50000000E-01  8.50000000E-01  8.50000000E-01
  8.50000000E-01  8.50000000E-01  8.50000000E-01  8.50000000E-01  8.50000000E-01
  8.50000000E-01  8.50000000E-01  8.50000000E-01  8.50000000E-01  8.50000000E-01
  8.50000000E-01  8.50000000E-01  8.50000000E-01  8.50000000E-01  8.50000000E-01
  8.50000000E-01  8.50000000E-01  8.50000000E-01  8.50000000E-01  8.50000000E-01
  8.50000000E-01  8.50000000E-01  8.50000000E-01  8.50000000E-01  8.50000000E-01
  8.50000000E-01  8.50000000E-01  8.50000000E-01  8.50000000E-01  8.50000000E-01
  8.50000000E-01  8.50000000E-01  8.50000000E-01  8.50000000E-01  8.50000000E-01
  8.50000000E-01  8.50000000E-01  8.50000000E-01  8.50000000E-01  8.50000000E-01
  8.50000000E-01  8.50000000E-01  8.50000000E-01  8.50000000E-01  8.50000000E-01
  8.50000000E-01  8.50000000E-01  8.50000000E-01  8.50000000E-01  8.50000000E-01
  8.50000000E-01  8.50000000E-01  8.50000000E-01  8.50000000E-01  8.50000000E-01
  8.50000000E-01  8.50000000E-01  8.50000000E-01  8.50000000E-01  8.50000000E-01
  8.50000000E-01  8.50000000E-01  8.50000000E-01  8.50000000E-01  8.50000000E-01
  8.50000000E-01  8.50000000E-01  8.50000000E-01  8.50000000E-01  8.50000000E-01
  8.50000000E-01  8.50000000E-01  8.50000000E-01  8.50000000E-01  8.50000000E-01
  8.50000000E-01  8.50000000E-01  8.50000000E-01  8.50000000E-01  8.50000000E-01
  8.50000000E-01  8.50000000E-01  8.50000000E-01  8.50000000E-01  8.50000000E-01
  8.50000000E-01  8.50000000E-01  8.50000000E-01  8.50000000E-01  8.50000000E-01
  8.50000000E-01  8.50000000E-01  8.50000000E-01  8.50000000E-01  8.50000000E-01
  8.50000000E-01  8.50000000E-01  8.50000000E-01  8.50000000E-01  8.50000000E-01
  8.50000000E-01  8.50000000E-01  8.50000000E-01  8.50000000E-01  8.50000000E-01
  8.50000000E-01  8.50000000E-01  8.50000000E-01  8.50000000E-01  8.50000000E-01
  8.50000000E-01  8.50000000E-01  8.50000000E-01  8.50000000E-01  8.50000000E-01
  8.50000000E-01  8.50000000E-01  8.50000000E-01  8.50000000E-01  8.50000000E-01
  8.50000000E-01  8.50000000E-01  8.50000000E-01  8.50000000E-01  8.50000000E-01
  8.50000000E-01  8.50000000E-01  8.50000000E-01  8.50000000E-01  8.50000000E-01
  8.50000000E-01  8.50000000E-01  8.50000000E-01  8.50000000E-01  8.50000000E-01
  8.50000000E-01  8.50000000E-01  8.50000000E-01  8.50000000E-01  8.50000000E-01
  8.50000000E-01  8.50000000E-01  8.50000000E-01  8.50000000E-01  8.50000000E-01
  8.50000000E-01  8.50000000E-01  8.50000000E-01  8.50000000E-01  8.50000000E-01
  8.50000000E-01  8.50000000E-01  8.50000000E-01  8.50000000E-01  8.50000000E-01
  8.50000000E-01  8.50000000E-01  8.50000000E-01  8.50000000E-01  8.50000000E-01
  8.50000000E-01  8.50000000E-01  8.50000000E-01  8.50000000E-01  8.50000000E-01
  8.50000000E-01  8.50000000E-01  8.50000000E-01  8.50000000E-01  8.50000000E-01
  8.50000000E-01  8.50000000E-01  8.50000000E-01  8.50000000E-01  8.50000000E-01
  8.50000000E-01  8.50000000E-01  8.50000000E-01  8.50000000E-01  8.50000000E-01
  8.50000000E-01  8.50000000E-01  8.50000000E-01  8.50000000E-01  8.50000000E-01
  8.50000000E-01  8.50000000E-01  8.50000000E-01  8.50000000E-01  8.50000000E-01
  8.50000000E-01  8.50000000E-01  8.50000000E-01  8.50000000E-01  8.50000000E-01
  8.50000000E-01  8.50000000E-01  8.50000000E-01  8.50000000E-01  8.50000000E-01
  8.50000000E-01  8.50000000E-01  8.50000000E-01  8.50000000E-01  8.50000000E-01
  8.50000000E-01  8.50000000E-01  8.50000000E-01  8.50000000E-01  8.50000000E-01
  8.50000000E-01  8.50000000E-01  8.50000000E-01  8.50000000E-01  8.50000000E-01
  8.50000000E-01  8.50000000E-01  8.50000000E-01  8.50000000E-01  8.50000000E-01
  8.50000000E-01  8.50000000E-01  8.50000000E-01  8.50000000E-01  8.50000000E-01
  8.50000000E-01  8.50000000E-01  8.50000000E-01  8.50000000E-01  8.50000000E-01
  8.50000000E-01  8.50000000E-01  8.50000000E-01  8.50000000E-01  8.50000000E-01
  8.50000000E-01  8.50000000E-01  8.50000000E-01  8.50000000E-01  8.50000000E-01
  8.50000000E-01  8.50000000E-01  8.50000000E-01  8.50000000E-01  8.50000000E-01
  8.50000000E-01  8.50000000E-01  8.50000000E-01  8.50000000E-01  8.50000000E-01
  8.50000000E-01  8.50000000E-01  8.50000000E-01  8.50000000E-01  8.50000000E-01
  8.50000000E-01  8.50000000E-01  8.50000000E-01  8.50000000E-01  8.50000000E-01
  8.50000000E-01  8.50000000E-01  8.50000000E-01  8.50000000E-01  8.50000000E-01
  8.50000000E-01  8.50000000E-01  8.50000000E-01  8.50000000E-01  8.50000000E-01
  8.50000000E-01  8.50000000E-01  8.50000000E-01  8.50000000E-01  8.50000000E-01
  8.50000000E-01  8.50000000E-01  8.50000000E-01  8.50000000E-01  8.50000000E-01
  8.50000000E-01  8.50000000E-01  8.50000000E-01  8.50000000E-01  8.50000000E-01
  8.50000000E-01  8.50000000E-01  8.50000000E-01  8.50000000E-01  8.50000000E-01
  8.50000000E-01  8.50000000E-01  8.50000000E-01  8.50000000E-01  8.50000000E-01
  8.50000000E-01  8.50000000E-01  8.50000000E-01  8.50000000E-01  8.50000000E-01
  8.50000000E-01  8.50000000E-01  8.50000000E-01  8.50000000E-01  8.50000000E-01
  8.50000000E-01  8.50000000E-01  8.50000000E-01  8.50000000E-01  8.50000000E-01
  8.50000000E-01  8.50000000E-01  8.50000000E-01  8.50000000E-01  8.50000000E-01
  8.50000000E-01  8.50000000E-01  8.50000000E-01  8.50000000E-01  8.50000000E-01
  8.50000000E-01  8.50000000E-01  8.50000000E-01  8.50000000E-01  8.50000000E-01
  8.50000000E-01  8.50000000E-01  8.50000000E-01  8.50000000E-01  8.50000000E-01
  8.50000000E-01  8.50000000E-01  8.50000000E-01  8.50000000E-01  8.50000000E-01
  8.50000000E-01  8.50000000E-01  8.50000000E-01  8.50000000E-01  8.50000000E-01
  8.50000000E-01  8.50000000E-01  8.50000000E-01  8.50000000E-01  8.50000000E-01
  8.50000000E-01  8.50000000E-01  8.50000000E-01  8.50000000E-01  8.50000000E-01
  8.50000000E-01  8.50000000E-01  8.50000000E-01  8.50000000E-01  8.50000000E-01
  8.50000000E-01  8.50000000E-01  8.50000000E-01  8.50000000E-01  8.50000000E-01
  8.50000000E-01  8.50000000E-01  8.50000000E-01  8.50000000E-01  8.50000000E-01
  8.50000000E-01  8.50000000E-01  8.50000000E-01  8.50000000E-01  8.50000000E-01
  8.50000000E-01  8.50000000E-01  8.50000000E-01  8.50000000E-01  8.50000000E-01
  8.50000000E-01  8.50000000E-01  8.50000000E-01  8.50000000E-01  8.50000000E-01
  8.50000000E-01  8.50000000E-01  8.50000000E-01  8.50000000E-01  8.50000000E-01
  8.50000000E-01  8.50000000E-01  8.50000000E-01  8.50000000E-01  8.50000000E-01
  8.50000000E-01  8.50000000E-01  8.50000000E-01  8.50000000E-01  8.50000000E-01
  8.50000000E-01  8.50000000E-01  8.50000000E-01  8.50000000E-01  8.50000000E-01
  8.50000000E-01  8.50000000E-01  8.50000000E-01  8.50000000E-01  8.50000000E-01
  8.50000000E-01  8.50000000E-01  8.50000000E-01  8.50000000E-01  8.50000000E-01
  8.50000000E-01  8.50000000E-01  8.50000000E-01  8.50000000E-01  8.50000000E-01
  8.50000000E-01  8.50000000E-01  8.50000000E-01  8.50000000E-01  8.50000000E-01
  8.50000000E-01  8.50000000E-01  8.50000000E-01  8.50000000E-01  8.50000000E-01
  8.50000000E-01  8.50000000E-01  8.50000000E-01  8.50000000E-01  8.50000000E-01
  8.50000000E-01  8.50000000E-01  8.50000000E-01  8.50000000E-01  8.50000000E-01
  8.50000000E-01  8.50000000E-01  8.50000000E-01  8.50000000E-01  8.50000000E-01
  8.50000000E-01  8.50000000E-01  8.50000000E-01  8.50000000E-01  8.50000000E-01
  8.50000000E-01  8.50000000E-01  8.50000000E-01  8.50000000E-01  8.50000000E-01
  8.50000000E-01  8.50000000E-01  8.50000000E-01  8.50000000E-01  8.50000000E-01
  8.50000000E-01  8.50000000E-01  8.50000000E-01  8.50000000E-01  8.50000000E-01
  8.50000000E-01  8.50000000E-01  8.50000000E-01  8.50000000E-01  8.50000000E-01
  8.50000000E-01  8.50000000E-01  8.50000000E-01  8.50000000E-01  8.50000000E-01
  8.50000000E-01  8.50000000E-01  8.50000000E-01  8.50000000E-01  8.50000000E-01
  8.50000000E-01  8.50000000E-01  8.50000000E-01  8.50000000E-01  8.50000000E-01
  8.50000000E-01  8.50000000E-01  8.50000000E-01  8.50000000E-01  8.50000000E-01
  8.50000000E-01  8.50000000E-01  8.50000000E-01  8.50000000E-01  8.50000000E-01
  8.50000000E-01  8.50000000E-01  8.50000000E-01  8.50000000E-01  8.50000000E-01
  8.50000000E-01  8.50000000E-01  8.50000000E-01  8.50000000E-01  8.50000000E-01
  8.50000000E-01  8.50000000E-01  8.50000000E-01  8.50000000E-01  8.50000000E-01
  8.50000000E-01  8.50000000E-01  8.50000000E-01  8.50000000E-01  8.50000000E-01
  8.50000000E-01  8.50000000E-01  8.50000000E-01  8.50000000E-01  8.50000000E-01
  8.50000000E-01  8.50000000E-01  8.50000000E-01  8.50000000E-01  8.50000000E-01
  8.50000000E-01  8.50000000E-01  8.50000000E-01  8.50000000E-01  8.50000000E-01
  8.50000000E-01  8.50000000E-01  8.50000000E-01  8.50000000E-01  8.50000000E-01
  8.50000000E-01  8.50000000E-01  8.50000000E-01  8.50000000E-01  8.50000000E-01
  8.50000000E-01  8.50000000E-01  8.50000000E-01  8.50000000E-01  8.50000000E-01
  8.50000000E-01  8.50000000E-01  8.50000000E-01  8.50000000E-01  8.50000000E-01
  8.50000000E-01  8.50000000E-01  8.50000000E-01  8.50000000E-01  8.50000000E-01
  8.50000000E-01  8.50000000E-01  8.50000000E-01  8.50000000E-01  8.50000000E-01
  8.50000000E-01  8.50000000E-01  8.50000000E-01  8.50000000E-01  8.50000000E-01
  8.50000000E-01  8.50000000E-01  8.50000000E-01  8.50000000E-01  8.50000000E-01
  8.50000000E-01  8.50000000E-01  8.50000000E-01  8.50000000E-01  8.50000000E-01
  8.50000000E-01  8.50000000E-01  8.50000000E-01  8.50000000E-01  8.50000000E-01
  8.50000000E-01  8.50000000E-01  8.50000000E-01  8.50000000E-01  8.50000000E-01
  8.50000000E-01  8.50000000E-01  8.50000000E-01  8.50000000E-01  8.50000000E-01
  8.50000000E-01  8.50000000E-01  8.50000000E-01  8.50000000E-01  8.50000000E-01
  8.50000000E-01  8.50000000E-01  8.50000000E-01  8.50000000E-01  8.50000000E-01
  8.50000000E-01  8.50000000E-01  8.50000000E-01  8.50000000E-01  8.50000000E-01
  8.50000000E-01  8.50000000E-01  8.50000000E-01  8.50000000E-01  8.50000000E-01
  8.50000000E-01  8.50000000E-01  8.50000000E-01  8.50000000E-01  8.50000000E-01
  8.50000000E-01  8.50000000E-01  8.50000000E-01  8.50000000E-01  8.50000000E-01
  8.50000000E-01  8.50000000E-01  8.50000000E-01  8.50000000E-01  8.50000000E-01
  8.50000000E-01  8.50000000E-01  8.50000000E-01  8.50000000E-01  8.50000000E-01
  8.50000000E-01  8.50000000E-01  8.50000000E-01  8.50000000E-01  8.50000000E-01
  8.50000000E-01  8.50000000E-01  8.50000000E-01  8.50000000E-01  8.50000000E-01
  8.50000000E-01  8.50000000E-01  8.50000000E-01  8.50000000E-01  8.50000000E-01
  8.50000000E-01  8.50000000E-01  8.50000000E-01  8.50000000E-01  8.50000000E-01
  8.50000000E-01  8.50000000E-01  8.50000000E-01  8.50000000E-01  8.50000000E-01
  8.50000000E-01  8.50000000E-01  8.50000000E-01  8.50000000E-01  8.50000000E-01
  8.50000000E-01  8.50000000E-01  8.50000000E-01  8.50000000E-01  8.50000000E-01
  8.50000000E-01  8.50000000E-01  8.50000000E-01  8.50000000E-01  8.50000000E-01
  8.50000000E-01  8.50000000E-01  8.50000000E-01  8.50000000E-01  8.50000000E-01
  8.50000000E-01  8.50000000E-01  8.50000000E-01  8.50000000E-01  8.50000000E-01
  8.50000000E-01  8.50000000E-01  8.50000000E-01  8.50000000E-01  8.50000000E-01
  8.50000000E-01  8.50000000E-01  8.50000000E-01  8.50000000E-01  8.50000000E-01
  8.50000000E-01  8.50000000E-01  8.50000000E-01  8.50000000E-01  8.50000000E-01
  8.50000000E-01  8.50000000E-01  8.50000000E-01  8.50000000E-01  8.50000000E-01
  8.50000000E-01  8.50000000E-01  8.50000000E-01  8.50000000E-01  8.50000000E-01
  8.50000000E-01  8.50000000E-01  8.50000000E-01  8.50000000E-01  8.50000000E-01
  8.50000000E-01  8.50000000E-01  8.50000000E-01  8.50000000E-01  8.50000000E-01
  8.50000000E-01  8.50000000E-01  8.50000000E-01  8.50000000E-01  8.50000000E-01
  8.50000000E-01  8.50000000E-01  8.50000000E-01  8.50000000E-01  8.50000000E-01
  8.50000000E-01  8.50000000E-01  8.50000000E-01  8.50000000E-01  8.50000000E-01
  8.50000000E-01  8.50000000E-01  8.50000000E-01  8.50000000E-01  8.50000000E-01
  8.50000000E-01  8.50000000E-01  8.50000000E-01  8.50000000E-01  8.50000000E-01
  8.50000000E-01  8.50000000E-01  8.50000000E-01  8.50000000E-01  8.50000000E-01
  8.50000000E-01  8.50000000E-01  8.50000000E-01  8.50000000E-01  8.50000000E-01
  8.50000000E-01  8.50000000E-01  8.50000000E-01  8.50000000E-01  8.50000000E-01
  8.50000000E-01  8.50000000E-01  8.50000000E-01  8.50000000E-01  8.50000000E-01
  8.50000000E-01  8.50000000E-01  8.50000000E-01  8.50000000E-01  8.50000000E-01
  8.50000000E-01  8.50000000E-01  8.50000000E-01  8.50000000E-01  8.50000000E-01
  8.50000000E-01  8.50000000E-01  8.50000000E-01  8.50000000E-01  8.50000000E-01
  8.50000000E-01  8.50000000E-01  8.50000000E-01  8.50000000E-01  8.50000000E-01
  8.50000000E-01  8.50000000E-01  8.50000000E-01  8.50000000E-01  8.50000000E-01
  8.50000000E-01  8.50000000E-01  8.50000000E-01  8.50000000E-01  8.50000000E-01
  8.50000000E-01  8.50000000E-01  8.50000000E-01  8.50000000E-01  8.50000000E-01
  8.50000000E-01  8.50000000E-01  8.50000000E-01  8.50000000E-01  8.50000000E-01
  8.50000000E-01  8.50000000E-01  8.50000000E-01  8.50000000E-01  8.50000000E-01
  8.50000000E-01  8.50000000E-01  8.50000000E-01  8.50000000E-01  8.50000000E-01
  8.50000000E-01  8.50000000E-01  8.50000000E-01  8.50000000E-01  8.50000000E-01
  8.50000000E-01  8.50000000E-01  8.50000000E-01  8.50000000E-01  8.50000000E-01
  8.50000000E-01  8.50000000E-01  8.50000000E-01  8.50000000E-01  8.50000000E-01
  8.50000000E-01  8.50000000E-01  8.50000000E-01  8.50000000E-01  8.50000000E-01
  8.50000000E-01  8.50000000E-01  8.50000000E-01  8.50000000E-01  8.50000000E-01
  8.50000000E-01  8.50000000E-01  8.50000000E-01  8.50000000E-01  8.50000000E-01
  8.50000000E-01  8.50000000E-01  8.50000000E-01  8.50000000E-01  8.50000000E-01
  8.50000000E-01  8.50000000E-01  8.50000000E-01  8.50000000E-01  8.50000000E-01
  8.50000000E-01  8.50000000E-01  8.50000000E-01  8.50000000E-01  8.50000000E-01
  8.50000000E-01  8.50000000E-01  8.50000000E-01  8.50000000E-01  8.50000000E-01
  8.50000000E-01  8.50000000E-01  8.50000000E-01  8.50000000E-01  8.50000000E-01
  8.50000000E-01  8.50000000E-01  8.50000000E-01  8.50000000E-01  8.50000000E-01
  8.50000000E-01  8.50000000E-01  8.50000000E-01  8.50000000E-01  8.50000000E-01
  8.50000000E-01  8.50000000E-01  8.50000000E-01  8.50000000E-01  8.50000000E-01
  8.50000000E-01  8.50000000E-01  8.50000000E-01  8.50000000E-01  8.50000000E-01
  8.50000000E-01  8.50000000E-01  8.50000000E-01  8.50000000E-01  8.50000000E-01
  8.50000000E-01  8.50000000E-01  8.50000000E-01  8.50000000E-01  8.50000000E-01
  8.50000000E-01  8.50000000E-01  8.50000000E-01  8.50000000E-01  8.50000000E-01
  8.50000000E-01  8.50000000E-01  8.50000000E-01  8.50000000E-01  8.50000000E-01
  8.50000000E-01  8.50000000E-01  8.50000000E-01  8.50000000E-01  8.50000000E-01
  8.50000000E-01  8.50000000E-01  8.50000000E-01  8.50000000E-01  8.50000000E-01
  8.50000000E-01  8.50000000E-01  8.50000000E-01  8.50000000E-01  8.50000000E-01
  8.50000000E-01  8.50000000E-01  8.50000000E-01  8.50000000E-01  8.50000000E-01
  8.50000000E-01  8.50000000E-01  8.50000000E-01  8.50000000E-01  8.50000000E-01
  8.50000000E-01  8.50000000E-01  8.50000000E-01  8.50000000E-01  8.50000000E-01
  8.50000000E-01  8.50000000E-01  8.50000000E-01  8.50000000E-01  8.50000000E-01
  8.50000000E-01  8.50000000E-01  8.50000000E-01  8.50000000E-01  8.50000000E-01
  8.50000000E-01  8.50000000E-01  8.50000000E-01  8.50000000E-01  8.50000000E-01
  8.50000000E-01  8.50000000E-01  8.50000000E-01  8.50000000E-01  8.50000000E-01
  8.50000000E-01  8.50000000E-01  8.50000000E-01  8.50000000E-01  8.50000000E-01
  8.50000000E-01  8.50000000E-01  8.50000000E-01  8.50000000E-01  8.50000000E-01
  8.50000000E-01  8.50000000E-01  8.50000000E-01  8.50000000E-01  8.50000000E-01
  8.50000000E-01  8.50000000E-01  8.50000000E-01  8.50000000E-01  8.50000000E-01
  8.50000000E-01  8.50000000E-01  8.50000000E-01  8.50000000E-01  8.50000000E-01
  8.50000000E-01  8.50000000E-01  8.50000000E-01  8.50000000E-01  8.50000000E-01
  8.50000000E-01  8.50000000E-01  8.50000000E-01  8.50000000E-01  8.50000000E-01
  8.50000000E-01  8.50000000E-01  8.50000000E-01  8.50000000E-01  8.50000000E-01
  8.50000000E-01  8.50000000E-01  8.50000000E-01  8.50000000E-01  8.50000000E-01
  8.50000000E-01  8.50000000E-01  8.50000000E-01  8.50000000E-01  8.50000000E-01
  8.50000000E-01  8.50000000E-01  8.50000000E-01  8.50000000E-01  8.50000000E-01
  8.50000000E-01  8.50000000E-01  8.50000000E-01  8.50000000E-01  8.50000000E-01
  8.50000000E-01  8.50000000E-01  8.50000000E-01  8.50000000E-01  8.50000000E-01
  8.50000000E-01  8.50000000E-01  8.50000000E-01  8.50000000E-01  8.50000000E-01
  8.50000000E-01  8.50000000E-01  8.50000000E-01  8.50000000E-01  8.50000000E-01
  8.50000000E-01  8.50000000E-01  8.50000000E-01  8.50000000E-01  8.50000000E-01
  8.50000000E-01  8.50000000E-01  8.50000000E-01  8.50000000E-01  8.50000000E-01
  8.50000000E-01  8.50000000E-01  8.50000000E-01  8.50000000E-01  8.50000000E-01
  8.50000000E-01  8.50000000E-01  8.50000000E-01  8.50000000E-01  8.50000000E-01
  8.50000000E-01  8.50000000E-01  8.50000000E-01  8.50000000E-01  8.50000000E-01
  8.50000000E-01  8.50000000E-01  8.50000000E-01  8.50000000E-01  8.50000000E-01
  8.50000000E-01  8.50000000E-01  8.50000000E-01  8.50000000E-01  8.50000000E-01
  8.50000000E-01  8.50000000E-01  8.50000000E-01  8.50000000E-01  8.50000000E-01
  8.50000000E-01  8.50000000E-01  8.50000000E-01  8.50000000E-01  8.50000000E-01
  8.50000000E-01  8.50000000E-01  8.50000000E-01  8.50000000E-01  8.50000000E-01
  8.50000000E-01  8.50000000E-01  8.50000000E-01  8.50000000E-01  8.50000000E-01
  8.50000000E-01  8.50000000E-01  8.50000000E-01  8.50000000E-01  8.50000000E-01
  8.50000000E-01  8.50000000E-01  8.50000000E-01  8.50000000E-01  8.50000000E-01
  8.50000000E-01  8.50000000E-01  8.50000000E-01  8.50000000E-01  8.50000000E-01
  8.50000000E-01  8.50000000E-01  8.50000000E-01  8.50000000E-01  8.50000000E-01
  8.50000000E-01  8.50000000E-01  8.50000000E-01  8.50000000E-01  8.50000000E-01
  8.50000000E-01  8.50000000E-01  8.50000000E-01  8.50000000E-01  8.50000000E-01
  8.50000000E-01  8.50000000E-01  8.50000000E-01  8.50000000E-01  8.50000000E-01
  8.50000000E-01  8.50000000E-01  8.50000000E-01  8.50000000E-01  8.50000000E-01
  8.50000000E-01  8.50000000E-01  8.50000000E-01  8.50000000E-01  8.50000000E-01
  8.50000000E-01  8.50000000E-01  8.50000000E-01  8.50000000E-01  8.50000000E-01
  8.50000000E-01  8.50000000E-01  8.50000000E-01  8.50000000E-01  8.50000000E-01
  8.50000000E-01  8.50000000E-01  8.50000000E-01  8.50000000E-01  8.50000000E-01
  8.50000000E-01  8.50000000E-01  8.50000000E-01  8.50000000E-01  8.50000000E-01
  8.50000000E-01  8.50000000E-01  8.50000000E-01  8.50000000E-01  8.50000000E-01
  8.50000000E-01  8.50000000E-01  8.50000000E-01  8.50000000E-01  8.50000000E-01
  8.50000000E-01  8.50000000E-01  8.50000000E-01  8.50000000E-01  8.50000000E-01
  8.50000000E-01  8.50000000E-01  8.50000000E-01  8.50000000E-01  8.50000000E-01
  8.50000000E-01  8.50000000E-01  8.50000000E-01  8.50000000E-01  8.50000000E-01
  8.50000000E-01  8.50000000E-01  8.50000000E-01  8.50000000E-01  8.50000000E-01
  8.50000000E-01  8.50000000E-01  8.50000000E-01  8.50000000E-01  8.50000000E-01
  8.50000000E-01  8.50000000E-01  8.50000000E-01  8.50000000E-01  8.50000000E-01
  8.50000000E-01  8.50000000E-01  8.50000000E-01  8.50000000E-01  8.50000000E-01
  8.50000000E-01  8.50000000E-01  8.50000000E-01  8.50000000E-01  8.50000000E-01
  8.50000000E-01  8.50000000E-01  8.50000000E-01  8.50000000E-01  8.50000000E-01
  8.50000000E-01  8.50000000E-01  8.50000000E-01  8.50000000E-01  8.50000000E-01
  8.50000000E-01  8.50000000E-01  8.50000000E-01  8.50000000E-01  8.50000000E-01
  8.50000000E-01  8.50000000E-01  8.50000000E-01  8.50000000E-01  8.50000000E-01
  8.50000000E-01  8.50000000E-01  8.50000000E-01  8.50000000E-01  8.50000000E-01
  8.50000000E-01  8.50000000E-01  8.50000000E-01  8.50000000E-01  8.50000000E-01
  8.50000000E-01  8.50000000E-01  8.50000000E-01  8.50000000E-01  8.50000000E-01
  8.50000000E-01  8.50000000E-01  8.50000000E-01  8.50000000E-01  8.50000000E-01
  8.50000000E-01  8.50000000E-01  8.50000000E-01  8.50000000E-01  8.50000000E-01
  8.50000000E-01  8.50000000E-01  8.50000000E-01  8.50000000E-01  8.50000000E-01
  8.50000000E-01  8.50000000E-01  8.50000000E-01  8.50000000E-01  8.50000000E-01
  8.50000000E-01  8.50000000E-01  8.50000000E-01  8.50000000E-01  8.50000000E-01
  8.50000000E-01  8.50000000E-01  8.50000000E-01  8.50000000E-01  8.50000000E-01
  8.50000000E-01  8.50000000E-01  8.50000000E-01  8.50000000E-01  8.50000000E-01
  8.50000000E-01  8.50000000E-01  8.50000000E-01  8.50000000E-01  8.50000000E-01
  8.50000000E-01  8.50000000E-01  8.50000000E-01  8.50000000E-01  8.50000000E-01
  8.50000000E-01  8.50000000E-01  8.50000000E-01  8.50000000E-01  8.50000000E-01
  8.50000000E-01  8.50000000E-01  8.50000000E-01  8.50000000E-01  8.50000000E-01
  8.50000000E-01  8.50000000E-01  8.50000000E-01  8.50000000E-01  8.50000000E-01
  8.50000000E-01  8.50000000E-01  8.50000000E-01  8.50000000E-01  8.50000000E-01
  8.50000000E-01  8.50000000E-01  8.50000000E-01  8.50000000E-01  8.50000000E-01
  8.50000000E-01  8.50000000E-01  8.50000000E-01  8.50000000E-01  8.50000000E-01
  8.50000000E-01  8.50000000E-01  8.50000000E-01  8.50000000E-01  8.50000000E-01
  8.50000000E-01  8.50000000E-01  8.50000000E-01  8.50000000E-01  8.50000000E-01
  8.50000000E-01  8.50000000E-01  8.50000000E-01  8.50000000E-01  8.50000000E-01
  8.50000000E-01  8.50000000E-01  8.50000000E-01  8.50000000E-01  8.50000000E-01
  8.50000000E-01  8.50000000E-01  8.50000000E-01  8.50000000E-01  8.50000000E-01
  8.50000000E-01  8.50000000E-01  8.50000000E-01  8.50000000E-01  8.50000000E-01
  8.50000000E-01  8.50000000E-01  8.50000000E-01  8.50000000E-01  8.50000000E-01
  8.50000000E-01  8.50000000E-01  8.50000000E-01  8.50000000E-01  8.50000000E-01
  8.50000000E-01  8.50000000E-01  8.50000000E-01  8.50000000E-01  8.50000000E-01
  8.50000000E-01  8.50000000E-01  8.50000000E-01  8.50000000E-01  8.50000000E-01
  8.50000000E-01  8.50000000E-01  8.50000000E-01  8.50000000E-01  8.50000000E-01
  8.50000000E-01  8.50000000E-01  8.50000000E-01  8.50000000E-01  8.50000000E-01
  8.50000000E-01  8.50000000E-01  8.50000000E-01  8.50000000E-01  8.50000000E-01
  8.50000000E-01  8.50000000E-01  8.50000000E-01  8.50000000E-01  8.50000000E-01
  8.50000000E-01  8.50000000E-01  8.50000000E-01  8.50000000E-01  8.50000000E-01
  8.50000000E-01  8.50000000E-01  8.50000000E-01  8.50000000E-01  8.50000000E-01
  8.50000000E-01  8.50000000E-01  8.50000000E-01  8.50000000E-01  8.50000000E-01
  8.50000000E-01  8.50000000E-01  8.50000000E-01  8.50000000E-01  8.50000000E-01
  8.50000000E-01  8.50000000E-01  8.50000000E-01  8.50000000E-01  8.50000000E-01
  8.50000000E-01  8.50000000E-01  8.50000000E-01  8.50000000E-01  8.50000000E-01
  8.50000000E-01  8.50000000E-01  8.50000000E-01  8.50000000E-01  8.50000000E-01
  8.50000000E-01  8.50000000E-01  8.50000000E-01  8.50000000E-01  8.50000000E-01
  8.50000000E-01  8.50000000E-01  8.50000000E-01  8.50000000E-01  8.50000000E-01
  8.50000000E-01  8.50000000E-01  8.50000000E-01  8.50000000E-01  8.50000000E-01
  8.50000000E-01  8.50000000E-01  8.50000000E-01  8.50000000E-01  8.50000000E-01
  8.50000000E-01  8.50000000E-01  8.50000000E-01  8.50000000E-01  8.50000000E-01
  8.50000000E-01  8.50000000E-01  8.50000000E-01  8.50000000E-01  8.50000000E-01
  8.50000000E-01  8.50000000E-01  8.50000000E-01  8.50000000E-01  8.50000000E-01
  8.50000000E-01  8.50000000E-01  8.50000000E-01  8.50000000E-01  8.50000000E-01
  8.50000000E-01  8.50000000E-01  8.50000000E-01  8.50000000E-01  8.50000000E-01
  8.50000000E-01  8.50000000E-01  8.50000000E-01  8.50000000E-01  8.50000000E-01
  8.50000000E-01  8.50000000E-01  8.50000000E-01  8.50000000E-01  8.50000000E-01
  8.50000000E-01  8.50000000E-01  8.50000000E-01  8.50000000E-01  8.50000000E-01
  8.50000000E-01  8.50000000E-01  8.50000000E-01  8.50000000E-01  8.50000000E-01
  8.50000000E-01  8.50000000E-01  8.50000000E-01  8.50000000E-01  8.50000000E-01
  8.50000000E-01  8.50000000E-01  8.50000000E-01  8.50000000E-01  8.50000000E-01
  8.50000000E-01  8.50000000E-01  8.50000000E-01  8.50000000E-01  8.50000000E-01
  8.50000000E-01  8.50000000E-01  8.50000000E-01  8.50000000E-01  8.50000000E-01
  8.50000000E-01  8.50000000E-01  8.50000000E-01  8.50000000E-01  8.50000000E-01
  8.50000000E-01  8.50000000E-01  8.50000000E-01  8.50000000E-01  8.50000000E-01
  8.50000000E-01  8.50000000E-01  8.50000000E-01  8.50000000E-01  8.50000000E-01
  8.50000000E-01  8.50000000E-01  8.50000000E-01  8.50000000E-01  8.50000000E-01
  8.50000000E-01  8.50000000E-01  8.50000000E-01  8.50000000E-01  8.50000000E-01
  8.50000000E-01  8.50000000E-01  8.50000000E-01  8.50000000E-01  8.50000000E-01
  8.50000000E-01  8.50000000E-01  8.50000000E-01  8.50000000E-01  8.50000000E-01
  8.50000000E-01  8.50000000E-01  8.50000000E-01  8.50000000E-01  8.50000000E-01
  8.50000000E-01  8.50000000E-01  8.50000000E-01  8.50000000E-01  8.50000000E-01
  8.50000000E-01  8.50000000E-01  8.50000000E-01  8.50000000E-01  8.50000000E-01
  8.50000000E-01  8.50000000E-01  8.50000000E-01  8.50000000E-01  8.50000000E-01
  8.50000000E-01  8.50000000E-01  8.50000000E-01  8.50000000E-01  8.50000000E-01
  8.50000000E-01  8.50000000E-01  8.50000000E-01  8.50000000E-01  8.50000000E-01
  8.50000000E-01  8.50000000E-01  8.50000000E-01  8.50000000E-01  8.50000000E-01
  8.50000000E-01  8.50000000E-01  8.50000000E-01  8.50000000E-01  8.50000000E-01
  8.50000000E-01  8.50000000E-01  8.50000000E-01  8.50000000E-01  8.50000000E-01
  8.50000000E-01  8.50000000E-01  8.50000000E-01  8.50000000E-01  8.50000000E-01
  8.50000000E-01  8.50000000E-01  8.50000000E-01  8.50000000E-01  8.50000000E-01
  8.50000000E-01  8.50000000E-01  8.50000000E-01  8.50000000E-01  8.50000000E-01
  8.50000000E-01  8.50000000E-01  8.50000000E-01  8.50000000E-01  8.50000000E-01
  8.50000000E-01  8.50000000E-01  8.50000000E-01  8.50000000E-01  8.50000000E-01
  8.50000000E-01  8.50000000E-01  8.50000000E-01  8.50000000E-01  8.50000000E-01
  8.50000000E-01  8.50000000E-01  8.50000000E-01  8.50000000E-01  8.50000000E-01
  8.50000000E-01  8.50000000E-01  8.50000000E-01  8.50000000E-01  8.50000000E-01
  8.50000000E-01  8.50000000E-01  8.50000000E-01  8.50000000E-01  8.50000000E-01
  8.50000000E-01  8.50000000E-01  8.50000000E-01  8.50000000E-01  8.50000000E-01
  8.50000000E-01  8.50000000E-01  8.50000000E-01  8.50000000E-01  8.50000000E-01
  8.50000000E-01  8.50000000E-01  8.50000000E-01  8.50000000E-01  8.50000000E-01
  8.50000000E-01  8.50000000E-01  8.50000000E-01  8.50000000E-01  8.50000000E-01
  8.50000000E-01  8.50000000E-01  8.50000000E-01  8.50000000E-01  8.50000000E-01
  8.50000000E-01  8.50000000E-01  8.50000000E-01  8.50000000E-01  8.50000000E-01
  8.50000000E-01  8.50000000E-01  8.50000000E-01  8.50000000E-01  8.50000000E-01
  8.50000000E-01  8.50000000E-01  8.50000000E-01  8.50000000E-01  8.50000000E-01
  8.50000000E-01  8.50000000E-01  8.50000000E-01  8.50000000E-01  8.50000000E-01
  8.50000000E-01  8.50000000E-01  8.50000000E-01  8.50000000E-01  8.50000000E-01
  8.50000000E-01  8.50000000E-01  8.50000000E-01  8.50000000E-01  8.50000000E-01
  8.50000000E-01  8.50000000E-01  8.50000000E-01  8.50000000E-01  8.50000000E-01
  8.50000000E-01  8.50000000E-01  8.50000000E-01  8.50000000E-01  8.50000000E-01
  8.50000000E-01  8.50000000E-01  8.50000000E-01  8.50000000E-01  8.50000000E-01
  8.50000000E-01  8.50000000E-01  8.50000000E-01  8.50000000E-01  8.50000000E-01
  8.50000000E-01  8.50000000E-01  8.50000000E-01  8.50000000E-01  8.50000000E-01
  8.50000000E-01  8.50000000E-01  8.50000000E-01  8.50000000E-01  8.50000000E-01
  8.50000000E-01  8.50000000E-01  8.50000000E-01  8.50000000E-01  8.50000000E-01
  8.50000000E-01  8.50000000E-01  8.50000000E-01  8.50000000E-01  8.50000000E-01
  8.50000000E-01  8.50000000E-01  8.50000000E-01  8.50000000E-01  8.50000000E-01
  8.50000000E-01  8.50000000E-01  8.50000000E-01  8.50000000E-01  8.50000000E-01
  8.50000000E-01  8.50000000E-01  8.50000000E-01  8.50000000E-01  8.50000000E-01
  8.50000000E-01  8.50000000E-01  8.50000000E-01  8.50000000E-01  8.50000000E-01
  8.50000000E-01  8.50000000E-01  8.50000000E-01  8.50000000E-01  8.50000000E-01
  8.50000000E-01  8.50000000E-01  8.50000000E-01  8.50000000E-01  8.50000000E-01
  8.50000000E-01  8.50000000E-01  8.50000000E-01  8.50000000E-01  8.50000000E-01
  8.50000000E-01  8.50000000E-01  8.50000000E-01  8.50000000E-01  8.50000000E-01
  8.50000000E-01  8.50000000E-01  8.50000000E-01  8.50000000E-01  8.50000000E-01
  8.50000000E-01  8.50000000E-01  8.50000000E-01  8.50000000E-01  8.50000000E-01
  8.50000000E-01  8.50000000E-01  8.50000000E-01  8.50000000E-01  8.50000000E-01
  8.50000000E-01  8.50000000E-01  8.50000000E-01  8.50000000E-01  8.50000000E-01
  8.50000000E-01  8.50000000E-01  8.50000000E-01  8.50000000E-01  8.50000000E-01
  8.50000000E-01  8.50000000E-01  8.50000000E-01  8.50000000E-01  8.50000000E-01
  8.50000000E-01  8.50000000E-01  8.50000000E-01  8.50000000E-01  8.50000000E-01
  8.50000000E-01  8.50000000E-01  8.50000000E-01  8.50000000E-01  8.50000000E-01
  8.50000000E-01  8.50000000E-01  8.50000000E-01  8.50000000E-01  8.50000000E-01
  8.50000000E-01  8.50000000E-01  8.50000000E-01  8.50000000E-01  8.50000000E-01
  8.50000000E-01  8.50000000E-01  8.50000000E-01  8.50000000E-01  8.50000000E-01
  8.50000000E-01  8.50000000E-01  8.50000000E-01  8.50000000E-01  8.50000000E-01
  8.50000000E-01  8.50000000E-01  8.50000000E-01  8.50000000E-01  8.50000000E-01
  8.50000000E-01  8.50000000E-01  8.50000000E-01  8.50000000E-01  8.50000000E-01
  8.50000000E-01  8.50000000E-01  8.50000000E-01  8.50000000E-01  8.50000000E-01
  8.50000000E-01  8.50000000E-01  8.50000000E-01  8.50000000E-01  8.50000000E-01
  8.50000000E-01  8.50000000E-01  8.50000000E-01  8.50000000E-01  8.50000000E-01
  8.50000000E-01  8.50000000E-01  8.50000000E-01  8.50000000E-01  8.50000000E-01
  8.50000000E-01  8.50000000E-01  8.50000000E-01  8.50000000E-01  8.50000000E-01
  8.50000000E-01  8.50000000E-01  8.50000000E-01  8.50000000E-01  8.50000000E-01
  8.50000000E-01  8.50000000E-01  8.50000000E-01  8.50000000E-01  8.50000000E-01
  8.50000000E-01  8.50000000E-01  8.50000000E-01  8.50000000E-01  8.50000000E-01
  8.50000000E-01  8.50000000E-01  8.50000000E-01  8.50000000E-01  8.50000000E-01
  8.50000000E-01  8.50000000E-01  8.50000000E-01  8.50000000E-01  8.50000000E-01
  8.50000000E-01  8.50000000E-01  8.50000000E-01  8.50000000E-01  8.50000000E-01
  8.50000000E-01  8.50000000E-01  8.50000000E-01  8.50000000E-01  8.50000000E-01
  8.50000000E-01  8.50000000E-01  8.50000000E-01  8.50000000E-01  8.50000000E-01
  8.50000000E-01  8.50000000E-01  8.50000000E-01  8.50000000E-01  8.50000000E-01
  8.50000000E-01  8.50000000E-01  8.50000000E-01  8.50000000E-01  8.50000000E-01
  8.50000000E-01  8.50000000E-01  8.50000000E-01  8.50000000E-01  8.50000000E-01
  8.50000000E-01  8.50000000E-01  8.50000000E-01  8.50000000E-01  8.50000000E-01
  8.50000000E-01  8.50000000E-01  8.50000000E-01  8.50000000E-01  8.50000000E-01
  8.50000000E-01  8.50000000E-01  8.50000000E-01  8.50000000E-01  8.50000000E-01
  8.50000000E-01  8.50000000E-01  8.50000000E-01  8.50000000E-01  8.50000000E-01
  8.50000000E-01  8.50000000E-01  8.50000000E-01  8.50000000E-01  8.50000000E-01
  8.50000000E-01  8.50000000E-01  8.50000000E-01  8.50000000E-01  8.50000000E-01
  8.50000000E-01  8.50000000E-01  8.50000000E-01  8.50000000E-01  8.50000000E-01
  8.50000000E-01  8.50000000E-01  8.50000000E-01  8.50000000E-01  8.50000000E-01
  8.50000000E-01  8.50000000E-01  8.50000000E-01  8.50000000E-01  8.50000000E-01
  8.50000000E-01  8.50000000E-01  8.50000000E-01  8.50000000E-01  8.50000000E-01
  8.50000000E-01  8.50000000E-01  8.50000000E-01  8.50000000E-01  8.50000000E-01
  8.50000000E-01  8.50000000E-01  8.50000000E-01  8.50000000E-01  8.50000000E-01
  8.50000000E-01  8.50000000E-01  8.50000000E-01  8.50000000E-01  8.50000000E-01
  8.50000000E-01  8.50000000E-01  8.50000000E-01  8.50000000E-01  8.50000000E-01
  8.50000000E-01  8.50000000E-01  8.50000000E-01  8.50000000E-01  8.50000000E-01
  8.50000000E-01  8.50000000E-01  8.50000000E-01  8.50000000E-01  8.50000000E-01
  8.50000000E-01  8.50000000E-01  8.50000000E-01  8.50000000E-01  8.50000000E-01
  8.50000000E-01  8.50000000E-01  8.50000000E-01  8.50000000E-01  8.50000000E-01
  8.50000000E-01  8.50000000E-01  8.50000000E-01  8.50000000E-01  8.50000000E-01
  8.50000000E-01  8.50000000E-01  8.50000000E-01  8.50000000E-01  8.50000000E-01
  8.50000000E-01  8.50000000E-01  8.50000000E-01  8.50000000E-01  8.50000000E-01
  8.50000000E-01  8.50000000E-01  8.50000000E-01  8.50000000E-01  8.50000000E-01
  8.50000000E-01  8.50000000E-01  8.50000000E-01  8.50000000E-01  8.50000000E-01
  8.50000000E-01  8.50000000E-01  8.50000000E-01  8.50000000E-01  8.50000000E-01
  8.50000000E-01  8.50000000E-01  8.50000000E-01  8.50000000E-01  8.50000000E-01
  8.50000000E-01  8.50000000E-01  8.50000000E-01  8.50000000E-01  8.50000000E-01
  8.50000000E-01  8.50000000E-01  8.50000000E-01  8.50000000E-01  8.50000000E-01
  8.50000000E-01  8.50000000E-01  8.50000000E-01  8.50000000E-01  8.50000000E-01
  8.50000000E-01  8.50000000E-01  8.50000000E-01  8.50000000E-01  8.50000000E-01
  8.50000000E-01  8.50000000E-01  8.50000000E-01  8.50000000E-01  8.50000000E-01
  8.50000000E-01  8.50000000E-01  8.50000000E-01  8.50000000E-01  8.50000000E-01
  8.50000000E-01  8.50000000E-01  8.50000000E-01  8.50000000E-01  8.50000000E-01
  8.50000000E-01  8.50000000E-01  8.50000000E-01  8.50000000E-01  8.50000000E-01
  8.50000000E-01  8.50000000E-01  8.50000000E-01  8.50000000E-01  8.50000000E-01
  8.50000000E-01  8.50000000E-01  8.50000000E-01  8.50000000E-01  8.50000000E-01
  8.50000000E-01  8.50000000E-01  8.50000000E-01  8.50000000E-01  8.50000000E-01
  8.50000000E-01  8.50000000E-01  8.50000000E-01  8.50000000E-01  8.50000000E-01
  8.50000000E-01  8.50000000E-01  8.50000000E-01  8.50000000E-01  8.50000000E-01
  8.50000000E-01  8.50000000E-01  8.50000000E-01  8.50000000E-01  8.50000000E-01
  8.50000000E-01  8.50000000E-01  8.50000000E-01  8.50000000E-01  8.50000000E-01
  8.50000000E-01  8.50000000E-01  8.50000000E-01  8.50000000E-01  8.50000000E-01
  8.50000000E-01  8.50000000E-01  8.50000000E-01  8.50000000E-01  8.50000000E-01
  8.50000000E-01  8.50000000E-01  8.50000000E-01  8.50000000E-01  8.50000000E-01
  8.50000000E-01  8.50000000E-01  8.50000000E-01  8.50000000E-01  8.50000000E-01
  8.50000000E-01  8.50000000E-01  8.50000000E-01  8.50000000E-01  8.50000000E-01
  8.50000000E-01  8.50000000E-01  8.50000000E-01  8.50000000E-01  8.50000000E-01
  8.50000000E-01  8.50000000E-01  8.50000000E-01  8.50000000E-01  8.50000000E-01
  8.50000000E-01  8.50000000E-01  8.50000000E-01  8.50000000E-01  8.50000000E-01
  8.50000000E-01  8.50000000E-01  8.50000000E-01  8.50000000E-01  8.50000000E-01
  8.50000000E-01  8.50000000E-01  8.50000000E-01  8.50000000E-01  8.50000000E-01
  8.50000000E-01  8.50000000E-01  8.50000000E-01  8.50000000E-01  8.50000000E-01
  8.50000000E-01  8.50000000E-01  8.50000000E-01  8.50000000E-01  8.50000000E-01
  8.50000000E-01  8.50000000E-01  8.50000000E-01  8.50000000E-01  8.50000000E-01
  8.50000000E-01  8.50000000E-01  8.50000000E-01  8.50000000E-01  8.50000000E-01
  8.50000000E-01  8.50000000E-01  8.50000000E-01  8.50000000E-01  8.50000000E-01
  8.50000000E-01  8.50000000E-01  8.50000000E-01  8.50000000E-01  8.50000000E-01
  8.50000000E-01  8.50000000E-01  8.50000000E-01  8.50000000E-01  8.50000000E-01
  8.50000000E-01  8.50000000E-01  8.50000000E-01  8.50000000E-01  8.50000000E-01
  8.50000000E-01  8.50000000E-01  8.50000000E-01  8.50000000E-01  8.50000000E-01
  8.50000000E-01  8.50000000E-01  8.50000000E-01  8.50000000E-01  8.50000000E-01
  8.50000000E-01  8.50000000E-01  8.50000000E-01  8.50000000E-01  8.50000000E-01
  8.50000000E-01  8.50000000E-01  8.50000000E-01  8.50000000E-01  8.50000000E-01
  8.50000000E-01  8.50000000E-01  8.50000000E-01  8.50000000E-01  8.50000000E-01
  8.50000000E-01  8.50000000E-01  8.50000000E-01  8.50000000E-01  8.50000000E-01
  8.50000000E-01  8.50000000E-01  8.50000000E-01  8.50000000E-01  8.50000000E-01
  8.50000000E-01  8.50000000E-01  8.50000000E-01  8.50000000E-01  8.50000000E-01
  8.50000000E-01  8.50000000E-01  8.50000000E-01  8.50000000E-01  8.50000000E-01
  8.50000000E-01  8.50000000E-01  8.50000000E-01  8.50000000E-01  8.50000000E-01
  8.50000000E-01  8.50000000E-01  8.50000000E-01  8.50000000E-01  8.50000000E-01
  8.50000000E-01  8.50000000E-01  8.50000000E-01  8.50000000E-01  8.50000000E-01
  8.50000000E-01  8.50000000E-01  8.50000000E-01  8.50000000E-01  8.50000000E-01
  8.50000000E-01  8.50000000E-01  8.50000000E-01  8.50000000E-01  8.50000000E-01
  8.50000000E-01  8.50000000E-01  8.50000000E-01  8.50000000E-01  8.50000000E-01
  8.50000000E-01  8.50000000E-01  8.50000000E-01  8.50000000E-01  8.50000000E-01
  8.50000000E-01  8.50000000E-01  8.50000000E-01  8.50000000E-01  8.50000000E-01
  8.50000000E-01  8.50000000E-01  8.50000000E-01  8.50000000E-01  8.50000000E-01
  8.50000000E-01  8.50000000E-01  8.50000000E-01  8.50000000E-01  8.50000000E-01
  8.50000000E-01  8.50000000E-01  8.50000000E-01  8.50000000E-01  8.50000000E-01
  8.50000000E-01  8.50000000E-01  8.50000000E-01  8.50000000E-01  8.50000000E-01
  8.50000000E-01  8.50000000E-01  8.50000000E-01  8.50000000E-01  8.50000000E-01
  8.50000000E-01  8.50000000E-01  8.50000000E-01  8.50000000E-01  8.50000000E-01
  8.50000000E-01  8.50000000E-01  8.50000000E-01  8.50000000E-01  8.50000000E-01
  8.50000000E-01  8.50000000E-01  8.50000000E-01  8.50000000E-01  8.50000000E-01
  8.50000000E-01  8.50000000E-01  8.50000000E-01  8.50000000E-01  8.50000000E-01
  8.50000000E-01  8.50000000E-01  8.50000000E-01  8.50000000E-01  8.50000000E-01
  8.50000000E-01  8.50000000E-01  8.50000000E-01  8.50000000E-01  8.50000000E-01
  8.50000000E-01  8.50000000E-01  8.50000000E-01  8.50000000E-01  8.50000000E-01
  8.50000000E-01  8.50000000E-01  8.50000000E-01  8.50000000E-01  8.50000000E-01
  8.50000000E-01  8.50000000E-01  8.50000000E-01  8.50000000E-01  8.50000000E-01
  8.50000000E-01  8.50000000E-01  8.50000000E-01  8.50000000E-01  8.50000000E-01
  8.50000000E-01  8.50000000E-01  8.50000000E-01  8.50000000E-01  8.50000000E-01
  8.50000000E-01  8.50000000E-01  8.50000000E-01  8.50000000E-01  8.50000000E-01
  8.50000000E-01  8.50000000E-01  8.50000000E-01  8.50000000E-01  8.50000000E-01
  8.50000000E-01  8.50000000E-01  8.50000000E-01  8.50000000E-01  8.50000000E-01
  8.50000000E-01  8.50000000E-01  8.50000000E-01  8.50000000E-01  8.50000000E-01
  8.50000000E-01  8.50000000E-01  8.50000000E-01  8.50000000E-01  8.50000000E-01
  8.50000000E-01  8.50000000E-01  8.50000000E-01  8.50000000E-01  8.50000000E-01
  8.50000000E-01  8.50000000E-01  8.50000000E-01  8.50000000E-01  8.50000000E-01
  8.50000000E-01  8.50000000E-01  8.50000000E-01  8.50000000E-01  8.50000000E-01
  8.50000000E-01  8.50000000E-01  8.50000000E-01  8.50000000E-01  8.50000000E-01
  8.50000000E-01  8.50000000E-01  8.50000000E-01  8.50000000E-01  8.50000000E-01
  8.50000000E-01  8.50000000E-01  8.50000000E-01  8.50000000E-01  8.50000000E-01
  8.50000000E-01  8.50000000E-01  8.50000000E-01  8.50000000E-01  8.50000000E-01
  8.50000000E-01  8.50000000E-01  8.50000000E-01  8.50000000E-01  8.50000000E-01
  8.50000000E-01  8.50000000E-01  8.50000000E-01  8.50000000E-01  8.50000000E-01
  8.50000000E-01  8.50000000E-01  8.50000000E-01  8.50000000E-01  8.50000000E-01
  8.50000000E-01  8.50000000E-01  8.50000000E-01  8.50000000E-01  8.50000000E-01
  8.50000000E-01  8.50000000E-01  8.50000000E-01  8.50000000E-01  8.50000000E-01
  8.50000000E-01  8.50000000E-01  8.50000000E-01  8.50000000E-01  8.50000000E-01
  8.50000000E-01  8.50000000E-01  8.50000000E-01  8.50000000E-01  8.50000000E-01
  8.50000000E-01  8.50000000E-01  8.50000000E-01  8.50000000E-01  8.50000000E-01
  8.50000000E-01  8.50000000E-01  8.50000000E-01  8.50000000E-01  8.50000000E-01
  8.50000000E-01  8.50000000E-01  8.50000000E-01  8.50000000E-01  8.50000000E-01
  8.50000000E-01  8.50000000E-01  8.50000000E-01  8.50000000E-01  8.50000000E-01
  8.50000000E-01  8.50000000E-01  8.50000000E-01  8.50000000E-01  8.50000000E-01
  8.50000000E-01  8.50000000E-01  8.50000000E-01  8.50000000E-01  8.50000000E-01
  8.50000000E-01  8.50000000E-01  8.50000000E-01  8.50000000E-01  8.50000000E-01
  8.50000000E-01  8.50000000E-01  8.50000000E-01  8.50000000E-01  8.50000000E-01
  8.50000000E-01  8.50000000E-01  8.50000000E-01  8.50000000E-01  8.50000000E-01
  8.50000000E-01  8.50000000E-01  8.50000000E-01  8.50000000E-01  8.50000000E-01
  8.50000000E-01  8.50000000E-01  8.50000000E-01  8.50000000E-01  8.50000000E-01
  8.50000000E-01  8.50000000E-01  8.50000000E-01  8.50000000E-01  8.50000000E-01
  8.50000000E-01  8.50000000E-01  8.50000000E-01  8.50000000E-01  8.50000000E-01
  8.50000000E-01  8.50000000E-01  8.50000000E-01  8.50000000E-01  8.50000000E-01
  8.50000000E-01  8.50000000E-01  8.50000000E-01  8.50000000E-01  8.50000000E-01
  8.50000000E-01  8.50000000E-01  8.50000000E-01  8.50000000E-01  8.50000000E-01
  8.50000000E-01  8.50000000E-01  8.50000000E-01  8.50000000E-01  8.50000000E-01
  8.50000000E-01  8.50000000E-01  8.50000000E-01  8.50000000E-01  8.50000000E-01
  8.50000000E-01  8.50000000E-01  8.50000000E-01  8.50000000E-01  8.50000000E-01
  8.50000000E-01  8.50000000E-01  8.50000000E-01  8.50000000E-01  8.50000000E-01
  8.50000000E-01  8.50000000E-01  8.50000000E-01  8.50000000E-01  8.50000000E-01
  8.50000000E-01  8.50000000E-01  8.50000000E-01  8.50000000E-01  8.50000000E-01
  8.50000000E-01  8.50000000E-01  8.50000000E-01  8.50000000E-01  8.50000000E-01
  8.50000000E-01  8.50000000E-01  8.50000000E-01  8.50000000E-01  8.50000000E-01
  8.50000000E-01  8.50000000E-01  8.50000000E-01  8.50000000E-01  8.50000000E-01
  8.50000000E-01  8.50000000E-01  8.50000000E-01  8.50000000E-01  8.50000000E-01
  8.50000000E-01  8.50000000E-01  8.50000000E-01  8.50000000E-01  8.50000000E-01
  8.50000000E-01  8.50000000E-01  8.50000000E-01  8.50000000E-01  8.50000000E-01
  8.50000000E-01  8.50000000E-01  8.50000000E-01  8.50000000E-01  8.50000000E-01
  8.50000000E-01  8.50000000E-01  8.50000000E-01  8.50000000E-01  8.50000000E-01
  8.50000000E-01  8.50000000E-01  8.50000000E-01  8.50000000E-01  8.50000000E-01
  8.50000000E-01  8.50000000E-01  8.50000000E-01  8.50000000E-01  8.50000000E-01
  8.50000000E-01  8.50000000E-01  8.50000000E-01  8.50000000E-01  8.50000000E-01
  8.50000000E-01  8.50000000E-01  8.50000000E-01  8.50000000E-01  8.50000000E-01
  8.50000000E-01  8.50000000E-01  8.50000000E-01  8.50000000E-01  8.50000000E-01
  8.50000000E-01  8.50000000E-01  8.50000000E-01  8.50000000E-01  8.50000000E-01
  8.50000000E-01  8.50000000E-01  8.50000000E-01  8.50000000E-01  8.50000000E-01
  8.50000000E-01  8.50000000E-01  8.50000000E-01  8.50000000E-01  8.50000000E-01
  8.50000000E-01  8.50000000E-01  8.50000000E-01  8.50000000E-01  8.50000000E-01
  8.50000000E-01  8.50000000E-01  8.50000000E-01  8.50000000E-01  8.50000000E-01
  8.50000000E-01  8.50000000E-01  8.50000000E-01  8.50000000E-01  8.50000000E-01
  8.50000000E-01  8.50000000E-01  8.50000000E-01  8.50000000E-01  8.50000000E-01
  8.50000000E-01  8.50000000E-01  8.50000000E-01  8.50000000E-01  8.50000000E-01
  8.50000000E-01  8.50000000E-01  8.50000000E-01  8.50000000E-01  8.50000000E-01
  8.50000000E-01  8.50000000E-01  8.50000000E-01  8.50000000E-01  8.50000000E-01
  8.50000000E-01  8.50000000E-01  8.50000000E-01  8.50000000E-01  8.50000000E-01
  8.50000000E-01  8.50000000E-01  8.50000000E-01  8.50000000E-01  8.50000000E-01
  8.50000000E-01  8.50000000E-01  8.50000000E-01  8.50000000E-01  8.50000000E-01
  8.50000000E-01  8.50000000E-01  8.50000000E-01  8.50000000E-01  8.50000000E-01
  8.50000000E-01  8.50000000E-01  8.50000000E-01  8.50000000E-01  8.50000000E-01
  8.50000000E-01  8.50000000E-01  8.50000000E-01  8.50000000E-01  8.50000000E-01
  8.50000000E-01  8.50000000E-01  8.50000000E-01  8.50000000E-01  8.50000000E-01
  8.50000000E-01  8.50000000E-01  8.50000000E-01  8.50000000E-01  8.50000000E-01
  8.50000000E-01  8.50000000E-01  8.50000000E-01  8.50000000E-01  8.50000000E-01
  8.50000000E-01  8.50000000E-01  8.50000000E-01  8.50000000E-01  8.50000000E-01
  8.50000000E-01  8.50000000E-01  8.50000000E-01  8.50000000E-01  8.50000000E-01
  8.50000000E-01  8.50000000E-01  8.50000000E-01  8.50000000E-01  8.50000000E-01
  8.50000000E-01  8.50000000E-01  8.50000000E-01  8.50000000E-01  8.50000000E-01
  8.50000000E-01  8.50000000E-01  8.50000000E-01  8.50000000E-01  8.50000000E-01
  8.50000000E-01  8.50000000E-01  8.50000000E-01  8.50000000E-01  8.50000000E-01
  8.50000000E-01  8.50000000E-01  8.50000000E-01  8.50000000E-01  8.50000000E-01
  8.50000000E-01  8.50000000E-01  8.50000000E-01  8.50000000E-01  8.50000000E-01
  8.50000000E-01  8.50000000E-01  8.50000000E-01  8.50000000E-01  8.50000000E-01
  8.50000000E-01  8.50000000E-01  8.50000000E-01  8.50000000E-01  8.50000000E-01
  8.50000000E-01  8.50000000E-01  8.50000000E-01  8.50000000E-01  8.50000000E-01
  8.50000000E-01  8.50000000E-01  8.50000000E-01  8.50000000E-01  8.50000000E-01
  8.50000000E-01  8.50000000E-01  8.50000000E-01  8.50000000E-01  8.50000000E-01
  8.50000000E-01  8.50000000E-01  8.50000000E-01  8.50000000E-01  8.50000000E-01
  8.50000000E-01  8.50000000E-01  8.50000000E-01  8.50000000E-01  8.50000000E-01
  8.50000000E-01  8.50000000E-01  8.50000000E-01  8.50000000E-01  8.50000000E-01
  8.50000000E-01  8.50000000E-01  8.50000000E-01  8.50000000E-01  8.50000000E-01
  8.50000000E-01  8.50000000E-01  8.50000000E-01  8.50000000E-01  8.50000000E-01
  8.50000000E-01  8.50000000E-01  8.50000000E-01  8.50000000E-01  8.50000000E-01
  8.50000000E-01  8.50000000E-01  8.50000000E-01  8.50000000E-01  8.50000000E-01
  8.50000000E-01  8.50000000E-01  8.50000000E-01  8.50000000E-01  8.50000000E-01
  8.50000000E-01  8.50000000E-01  8.50000000E-01  8.50000000E-01  8.50000000E-01
  8.50000000E-01  8.50000000E-01  8.50000000E-01  8.50000000E-01  8.50000000E-01
  8.50000000E-01  8.50000000E-01  8.50000000E-01  8.50000000E-01  8.50000000E-01
  8.50000000E-01  8.50000000E-01  8.50000000E-01  8.50000000E-01  8.50000000E-01
  8.50000000E-01  8.50000000E-01  8.50000000E-01  8.50000000E-01  8.50000000E-01
  8.50000000E-01  8.50000000E-01  8.50000000E-01  8.50000000E-01  8.50000000E-01
  8.50000000E-01  8.50000000E-01  8.50000000E-01  8.50000000E-01  8.50000000E-01
  8.50000000E-01  8.50000000E-01  8.50000000E-01  8.50000000E-01  8.50000000E-01
  8.50000000E-01  8.50000000E-01  8.50000000E-01  8.50000000E-01  8.50000000E-01
  8.50000000E-01  8.50000000E-01  8.50000000E-01  8.50000000E-01  8.50000000E-01
  8.50000000E-01  8.50000000E-01  8.50000000E-01  8.50000000E-01  8.50000000E-01
  8.50000000E-01  8.50000000E-01  8.50000000E-01  8.50000000E-01  8.50000000E-01
  8.50000000E-01  8.50000000E-01  8.50000000E-01  8.50000000E-01  8.50000000E-01
  8.50000000E-01  8.50000000E-01  8.50000000E-01  8.50000000E-01  8.50000000E-01
  8.50000000E-01  8.50000000E-01  8.50000000E-01  8.50000000E-01  8.50000000E-01
  8.50000000E-01  8.50000000E-01  8.50000000E-01  8.50000000E-01  8.50000000E-01
  8.50000000E-01  8.50000000E-01  8.50000000E-01  8.50000000E-01  8.50000000E-01
  8.50000000E-01  8.50000000E-01  8.50000000E-01  8.50000000E-01  8.50000000E-01
  8.50000000E-01  8.50000000E-01  8.50000000E-01  8.50000000E-01  8.50000000E-01
  8.50000000E-01  8.50000000E-01  8.50000000E-01  8.50000000E-01  8.50000000E-01
  8.50000000E-01  8.50000000E-01  8.50000000E-01  8.50000000E-01  8.50000000E-01
  8.50000000E-01  8.50000000E-01  8.50000000E-01  8.50000000E-01  8.50000000E-01
  8.50000000E-01  8.50000000E-01  8.50000000E-01  8.50000000E-01  8.50000000E-01
  8.50000000E-01  8.50000000E-01  8.50000000E-01  8.50000000E-01  8.50000000E-01
  8.50000000E-01  8.50000000E-01  8.50000000E-01  8.50000000E-01  8.50000000E-01
  8.50000000E-01  8.50000000E-01  8.50000000E-01  8.50000000E-01  8.50000000E-01
  8.50000000E-01  8.50000000E-01  8.50000000E-01  8.50000000E-01  8.50000000E-01
  8.50000000E-01  8.50000000E-01  8.50000000E-01  8.50000000E-01  8.50000000E-01
  8.50000000E-01  8.50000000E-01  8.50000000E-01  8.50000000E-01  8.50000000E-01
  8.50000000E-01  8.50000000E-01  8.50000000E-01  8.50000000E-01  8.50000000E-01
  8.50000000E-01  8.50000000E-01  8.50000000E-01  8.50000000E-01  8.50000000E-01
  8.50000000E-01  8.50000000E-01  8.50000000E-01  8.50000000E-01  8.50000000E-01
  8.50000000E-01  8.50000000E-01  8.50000000E-01  8.50000000E-01  8.50000000E-01
  8.50000000E-01  8.50000000E-01  8.50000000E-01  8.50000000E-01  8.50000000E-01
  8.50000000E-01  8.50000000E-01  8.50000000E-01  8.50000000E-01  8.50000000E-01
  8.50000000E-01  8.50000000E-01  8.50000000E-01  8.50000000E-01  8.50000000E-01
  8.50000000E-01  8.50000000E-01  8.50000000E-01  8.50000000E-01  8.50000000E-01
  8.50000000E-01  8.50000000E-01  8.50000000E-01  8.50000000E-01  8.50000000E-01
  8.50000000E-01  8.50000000E-01  8.50000000E-01  8.50000000E-01  8.50000000E-01
  8.50000000E-01  8.50000000E-01  8.50000000E-01  8.50000000E-01  8.50000000E-01
  8.50000000E-01  8.50000000E-01  8.50000000E-01  8.50000000E-01  8.50000000E-01
  8.50000000E-01  8.50000000E-01  8.50000000E-01  8.50000000E-01  8.50000000E-01
  8.50000000E-01  8.50000000E-01  8.50000000E-01  8.50000000E-01  8.50000000E-01
  8.50000000E-01  8.50000000E-01  8.50000000E-01  8.50000000E-01  8.50000000E-01
  8.50000000E-01  8.50000000E-01  8.50000000E-01  8.50000000E-01  8.50000000E-01
  8.50000000E-01  8.50000000E-01  8.50000000E-01  8.50000000E-01  8.50000000E-01
  8.50000000E-01  8.50000000E-01  8.50000000E-01  8.50000000E-01  8.50000000E-01
  8.50000000E-01  8.50000000E-01  8.50000000E-01  8.50000000E-01  8.50000000E-01
  8.50000000E-01  8.50000000E-01  8.50000000E-01  8.50000000E-01  8.50000000E-01
  8.50000000E-01  8.50000000E-01  8.50000000E-01  8.50000000E-01  8.50000000E-01
  8.50000000E-01  8.50000000E-01  8.50000000E-01  8.50000000E-01  8.50000000E-01
  8.50000000E-01  8.50000000E-01  8.50000000E-01  8.50000000E-01  8.50000000E-01
  8.50000000E-01  8.50000000E-01  8.50000000E-01  8.50000000E-01  8.50000000E-01
  8.50000000E-01  8.50000000E-01  8.50000000E-01  8.50000000E-01  8.50000000E-01
  8.50000000E-01  8.50000000E-01  8.50000000E-01  8.50000000E-01  8.50000000E-01
  8.50000000E-01  8.50000000E-01  8.50000000E-01  8.50000000E-01  8.50000000E-01
  8.50000000E-01  8.50000000E-01  8.50000000E-01  8.50000000E-01  8.50000000E-01
  8.50000000E-01  8.50000000E-01  8.50000000E-01  8.50000000E-01  8.50000000E-01
  8.50000000E-01  8.50000000E-01  8.50000000E-01  8.50000000E-01  8.50000000E-01
  8.50000000E-01  8.50000000E-01  8.50000000E-01  8.50000000E-01  8.50000000E-01
  8.50000000E-01  8.50000000E-01  8.50000000E-01  8.50000000E-01  8.50000000E-01
  8.50000000E-01  8.50000000E-01  8.50000000E-01  8.50000000E-01  8.50000000E-01
  8.50000000E-01  8.50000000E-01  8.50000000E-01  8.50000000E-01  8.50000000E-01
  8.50000000E-01  8.50000000E-01  8.50000000E-01  8.50000000E-01  8.50000000E-01
  8.50000000E-01  8.50000000E-01  8.50000000E-01  8.50000000E-01  8.50000000E-01
  8.50000000E-01  8.50000000E-01  8.50000000E-01  8.50000000E-01  8.50000000E-01
  8.50000000E-01  8.50000000E-01  8.50000000E-01  8.50000000E-01  8.50000000E-01
  8.50000000E-01  8.50000000E-01  8.50000000E-01  8.50000000E-01  8.50000000E-01
  8.50000000E-01  8.50000000E-01  8.50000000E-01  8.50000000E-01  8.50000000E-01
  8.50000000E-01  8.50000000E-01  8.50000000E-01  8.50000000E-01  8.50000000E-01
  8.50000000E-01  8.50000000E-01  8.50000000E-01  8.50000000E-01  8.50000000E-01
  8.50000000E-01  8.50000000E-01  8.50000000E-01  8.50000000E-01  8.50000000E-01
  8.50000000E-01  8.50000000E-01  8.50000000E-01  8.50000000E-01  8.50000000E-01
  8.50000000E-01  8.50000000E-01  8.50000000E-01  8.50000000E-01  8.50000000E-01
  8.50000000E-01  8.50000000E-01  8.50000000E-01  8.50000000E-01  8.50000000E-01
  8.50000000E-01  8.50000000E-01  8.50000000E-01  8.50000000E-01  8.50000000E-01
  8.50000000E-01  8.50000000E-01  8.50000000E-01  8.50000000E-01  8.50000000E-01
  8.50000000E-01  8.50000000E-01  8.50000000E-01  8.50000000E-01  8.50000000E-01
  8.50000000E-01  8.50000000E-01  8.50000000E-01  8.50000000E-01  8.50000000E-01
  8.50000000E-01  8.50000000E-01  8.50000000E-01  8.50000000E-01  8.50000000E-01
  8.50000000E-01  8.50000000E-01  8.50000000E-01  8.50000000E-01  8.50000000E-01
  8.50000000E-01  8.50000000E-01  8.50000000E-01  8.50000000E-01  8.50000000E-01
  8.50000000E-01  8.50000000E-01  8.50000000E-01  8.50000000E-01  8.50000000E-01
  8.50000000E-01  8.50000000E-01  8.50000000E-01  8.50000000E-01  8.50000000E-01
  8.50000000E-01  8.50000000E-01  8.50000000E-01  8.50000000E-01  8.50000000E-01
  8.50000000E-01  8.50000000E-01  8.50000000E-01  8.50000000E-01  8.50000000E-01
  8.50000000E-01  8.50000000E-01  8.50000000E-01  8.50000000E-01  8.50000000E-01
  8.50000000E-01  8.50000000E-01  8.50000000E-01  8.50000000E-01  8.50000000E-01
  8.50000000E-01  8.50000000E-01  8.50000000E-01  8.50000000E-01  8.50000000E-01
  8.50000000E-01  8.50000000E-01  8.50000000E-01  8.50000000E-01  8.50000000E-01
  8.50000000E-01  8.50000000E-01  8.50000000E-01  8.50000000E-01  8.50000000E-01
  8.50000000E-01  8.50000000E-01  8.50000000E-01  8.50000000E-01  8.50000000E-01
  8.50000000E-01  8.50000000E-01  8.50000000E-01  8.50000000E-01  8.50000000E-01
  8.50000000E-01  8.50000000E-01  8.50000000E-01  8.50000000E-01  8.50000000E-01
  8.50000000E-01  8.50000000E-01  8.50000000E-01  8.50000000E-01  8.50000000E-01
  8.50000000E-01  8.50000000E-01  8.50000000E-01  8.50000000E-01  8.50000000E-01
  8.50000000E-01  8.50000000E-01  8.50000000E-01  8.50000000E-01  8.50000000E-01
  8.50000000E-01  8.50000000E-01  8.50000000E-01  8.50000000E-01  8.50000000E-01
  8.50000000E-01  8.50000000E-01  8.50000000E-01  8.50000000E-01  8.50000000E-01
  8.50000000E-01  8.50000000E-01  8.50000000E-01  8.50000000E-01  8.50000000E-01
  8.50000000E-01  8.50000000E-01  8.50000000E-01  8.50000000E-01  8.50000000E-01
  8.50000000E-01  8.50000000E-01  8.50000000E-01  8.50000000E-01  8.50000000E-01
  8.50000000E-01  8.50000000E-01  8.50000000E-01  8.50000000E-01  8.50000000E-01
  8.50000000E-01  8.50000000E-01  8.50000000E-01  8.50000000E-01  8.50000000E-01
  8.50000000E-01  8.50000000E-01  8.50000000E-01  8.50000000E-01  8.50000000E-01
  8.50000000E-01  8.50000000E-01  8.50000000E-01  8.50000000E-01  8.50000000E-01
  8.50000000E-01  8.50000000E-01  8.50000000E-01  8.50000000E-01  8.50000000E-01
  8.50000000E-01  8.50000000E-01  8.50000000E-01  8.50000000E-01  8.50000000E-01
  8.50000000E-01  8.50000000E-01  8.50000000E-01  8.50000000E-01  8.50000000E-01
  8.50000000E-01  8.50000000E-01  8.50000000E-01  8.50000000E-01  8.50000000E-01
  8.50000000E-01  8.50000000E-01  8.50000000E-01  8.50000000E-01  8.50000000E-01
  8.50000000E-01  8.50000000E-01  8.50000000E-01  8.50000000E-01  8.50000000E-01
  8.50000000E-01  8.50000000E-01  8.50000000E-01  8.50000000E-01  8.50000000E-01
  8.50000000E-01  8.50000000E-01  8.50000000E-01  8.50000000E-01  8.50000000E-01
  8.50000000E-01  8.50000000E-01  8.50000000E-01  8.50000000E-01  8.50000000E-01
  8.50000000E-01  8.50000000E-01  8.50000000E-01  8.50000000E-01  8.50000000E-01
  8.50000000E-01  8.50000000E-01  8.50000000E-01  8.50000000E-01  8.50000000E-01
  8.50000000E-01  8.50000000E-01  8.50000000E-01  8.50000000E-01  8.50000000E-01
  8.50000000E-01  8.50000000E-01  8.50000000E-01  8.50000000E-01  8.50000000E-01
  8.50000000E-01  8.50000000E-01  8.50000000E-01  8.50000000E-01  8.50000000E-01
  8.50000000E-01  8.50000000E-01  8.50000000E-01  8.50000000E-01  8.50000000E-01
  8.50000000E-01  8.50000000E-01  8.50000000E-01  8.50000000E-01  8.50000000E-01
  8.50000000E-01  8.50000000E-01  8.50000000E-01  8.50000000E-01  8.50000000E-01
  8.50000000E-01  8.50000000E-01  8.50000000E-01  8.50000000E-01  8.50000000E-01
  8.50000000E-01  8.50000000E-01  8.50000000E-01  8.50000000E-01  8.50000000E-01
  8.50000000E-01  8.50000000E-01  8.50000000E-01  8.50000000E-01  8.50000000E-01
  8.50000000E-01  8.50000000E-01  8.50000000E-01  8.50000000E-01  8.50000000E-01
  8.50000000E-01  8.50000000E-01  8.50000000E-01  8.50000000E-01  8.50000000E-01
  8.50000000E-01  8.50000000E-01  8.50000000E-01  8.50000000E-01  8.50000000E-01
  8.50000000E-01  8.50000000E-01  8.50000000E-01  8.50000000E-01  8.50000000E-01
  8.50000000E-01  8.50000000E-01  8.50000000E-01  8.50000000E-01  8.50000000E-01
  8.50000000E-01  8.50000000E-01  8.50000000E-01  8.50000000E-01  8.50000000E-01
  8.50000000E-01  8.50000000E-01  8.50000000E-01  8.50000000E-01  8.50000000E-01
  8.50000000E-01  8.50000000E-01  8.50000000E-01  8.50000000E-01  8.50000000E-01
  8.50000000E-01  8.50000000E-01  8.50000000E-01  8.50000000E-01  8.50000000E-01
  8.50000000E-01  8.50000000E-01  8.50000000E-01  8.50000000E-01  8.50000000E-01
  8.50000000E-01  8.50000000E-01  8.50000000E-01  8.50000000E-01  8.50000000E-01
  8.50000000E-01  8.50000000E-01  8.50000000E-01  8.50000000E-01  8.50000000E-01
  8.50000000E-01  8.50000000E-01  8.50000000E-01  8.50000000E-01  8.50000000E-01
  8.50000000E-01  8.50000000E-01  8.50000000E-01  8.50000000E-01  8.50000000E-01
  8.50000000E-01  8.50000000E-01  8.50000000E-01  8.50000000E-01  8.50000000E-01
  8.50000000E-01  8.50000000E-01  8.50000000E-01  8.50000000E-01  8.50000000E-01
  8.50000000E-01  8.50000000E-01  8.50000000E-01  8.50000000E-01  8.50000000E-01
  8.50000000E-01  8.50000000E-01  8.50000000E-01  8.50000000E-01  8.50000000E-01
  8.50000000E-01  8.50000000E-01  8.50000000E-01  8.50000000E-01  8.50000000E-01
  8.50000000E-01  8.50000000E-01  8.50000000E-01  8.50000000E-01  8.50000000E-01
  8.50000000E-01  8.50000000E-01  8.50000000E-01  8.50000000E-01  8.50000000E-01
  8.50000000E-01  8.50000000E-01  8.50000000E-01  8.50000000E-01  8.50000000E-01
  8.50000000E-01  8.50000000E-01  8.50000000E-01  8.50000000E-01  8.50000000E-01
  8.50000000E-01  8.50000000E-01  8.50000000E-01  8.50000000E-01  8.50000000E-01
  8.50000000E-01  8.50000000E-01  8.50000000E-01  8.50000000E-01  8.50000000E-01
  8.50000000E-01  8.50000000E-01  8.50000000E-01  8.50000000E-01  8.50000000E-01
  8.50000000E-01  8.50000000E-01  8.50000000E-01  8.50000000E-01  8.50000000E-01
  8.50000000E-01  8.50000000E-01  8.50000000E-01  8.50000000E-01  8.50000000E-01
  8.50000000E-01  8.50000000E-01  8.50000000E-01  8.50000000E-01  8.50000000E-01
  8.50000000E-01  8.50000000E-01  8.50000000E-01  8.50000000E-01  8.50000000E-01
  8.50000000E-01  8.50000000E-01  8.50000000E-01  8.50000000E-01  8.50000000E-01
  8.50000000E-01  8.50000000E-01  8.50000000E-01  8.50000000E-01  8.50000000E-01
  8.50000000E-01  8.50000000E-01  8.50000000E-01  8.50000000E-01  8.50000000E-01
  8.50000000E-01  8.50000000E-01  8.50000000E-01  8.50000000E-01  8.50000000E-01
  8.50000000E-01  8.50000000E-01  8.50000000E-01  8.50000000E-01  8.50000000E-01
  8.50000000E-01  8.50000000E-01  8.50000000E-01  8.50000000E-01  8.50000000E-01
  8.50000000E-01  8.50000000E-01  8.50000000E-01  8.50000000E-01  8.50000000E-01
  8.50000000E-01  8.50000000E-01  8.50000000E-01  8.50000000E-01  8.50000000E-01
  8.50000000E-01  8.50000000E-01  8.50000000E-01  8.50000000E-01  8.50000000E-01
  8.50000000E-01  8.50000000E-01  8.50000000E-01  8.50000000E-01  8.50000000E-01
  8.50000000E-01  8.50000000E-01  8.50000000E-01  8.50000000E-01  8.50000000E-01
  8.50000000E-01  8.50000000E-01  8.50000000E-01  8.50000000E-01  8.50000000E-01
  8.50000000E-01  8.50000000E-01  8.50000000E-01  8.50000000E-01  8.50000000E-01
  8.50000000E-01  8.50000000E-01  8.50000000E-01  8.50000000E-01  8.50000000E-01
  8.50000000E-01  8.50000000E-01  8.50000000E-01  8.50000000E-01  8.50000000E-01
  8.50000000E-01  8.50000000E-01  8.50000000E-01  8.50000000E-01  8.50000000E-01
  8.50000000E-01  8.50000000E-01  8.50000000E-01  8.50000000E-01  8.50000000E-01
  8.50000000E-01  8.50000000E-01  8.50000000E-01  8.50000000E-01  8.50000000E-01
  8.50000000E-01  8.50000000E-01  8.50000000E-01  8.50000000E-01  8.50000000E-01
  8.50000000E-01  8.50000000E-01  8.50000000E-01  8.50000000E-01  8.50000000E-01
  8.50000000E-01  8.50000000E-01  8.50000000E-01  8.50000000E-01  8.50000000E-01
  8.50000000E-01  8.50000000E-01  8.50000000E-01  8.50000000E-01  8.50000000E-01
  8.50000000E-01  8.50000000E-01  8.50000000E-01  8.50000000E-01  8.50000000E-01
  8.50000000E-01  8.50000000E-01  8.50000000E-01  8.50000000E-01  8.50000000E-01
  8.50000000E-01  8.50000000E-01  8.50000000E-01  8.50000000E-01  8.50000000E-01
  8.50000000E-01  8.50000000E-01  8.50000000E-01  8.50000000E-01  8.50000000E-01
  8.50000000E-01  8.50000000E-01  8.50000000E-01  8.50000000E-01  8.50000000E-01
  8.50000000E-01  8.50000000E-01  8.50000000E-01  8.50000000E-01  8.50000000E-01
  8.50000000E-01  8.50000000E-01  8.50000000E-01  8.50000000E-01  8.50000000E-01
  8.50000000E-01  8.50000000E-01  8.50000000E-01  8.50000000E-01  8.50000000E-01
  8.50000000E-01  8.50000000E-01  8.50000000E-01  8.50000000E-01  8.50000000E-01
  8.50000000E-01  8.50000000E-01  8.50000000E-01  8.50000000E-01  8.50000000E-01
  8.50000000E-01  8.50000000E-01  8.50000000E-01  8.50000000E-01  8.50000000E-01
  8.50000000E-01  8.50000000E-01  8.50000000E-01  8.50000000E-01  8.50000000E-01
  8.50000000E-01  8.50000000E-01  8.50000000E-01  8.50000000E-01  8.50000000E-01
  8.50000000E-01  8.50000000E-01  8.50000000E-01  8.50000000E-01  8.50000000E-01
  8.50000000E-01  8.50000000E-01  8.50000000E-01  8.50000000E-01  8.50000000E-01
  8.50000000E-01  8.50000000E-01  8.50000000E-01  8.50000000E-01  8.50000000E-01
  8.50000000E-01  8.50000000E-01  8.50000000E-01  8.50000000E-01  8.50000000E-01
  8.50000000E-01  8.50000000E-01  8.50000000E-01  8.50000000E-01  8.50000000E-01
  8.50000000E-01  8.50000000E-01  8.50000000E-01  8.50000000E-01  8.50000000E-01
  8.50000000E-01  8.50000000E-01  8.50000000E-01  8.50000000E-01  8.50000000E-01
  8.50000000E-01  8.50000000E-01  8.50000000E-01  8.50000000E-01  8.50000000E-01
  8.50000000E-01  8.50000000E-01  8.50000000E-01  8.50000000E-01  8.50000000E-01
  8.50000000E-01  8.50000000E-01  8.50000000E-01  8.50000000E-01  8.50000000E-01
  8.50000000E-01  8.50000000E-01  8.50000000E-01  8.50000000E-01  8.50000000E-01
  8.50000000E-01  8.50000000E-01  8.50000000E-01  8.50000000E-01  8.50000000E-01
  8.50000000E-01  8.50000000E-01  8.50000000E-01  8.50000000E-01  8.50000000E-01
  8.50000000E-01  8.50000000E-01  8.50000000E-01  8.50000000E-01  8.50000000E-01
  8.50000000E-01  8.50000000E-01  8.50000000E-01  8.50000000E-01  8.50000000E-01
  8.50000000E-01  8.50000000E-01  8.50000000E-01  8.50000000E-01  8.50000000E-01
  8.50000000E-01  8.50000000E-01  8.50000000E-01  8.50000000E-01  8.50000000E-01
  8.50000000E-01  8.50000000E-01  8.50000000E-01  8.50000000E-01  8.50000000E-01
  8.50000000E-01  8.50000000E-01  8.50000000E-01  8.50000000E-01  8.50000000E-01
  8.50000000E-01  8.50000000E-01  8.50000000E-01  8.50000000E-01  8.50000000E-01
  8.50000000E-01  8.50000000E-01  8.50000000E-01  8.50000000E-01  8.50000000E-01
  8.50000000E-01  8.50000000E-01  8.50000000E-01  8.50000000E-01  8.50000000E-01
  8.50000000E-01  8.50000000E-01  8.50000000E-01  8.50000000E-01  8.50000000E-01
  8.50000000E-01  8.50000000E-01  8.50000000E-01  8.50000000E-01  8.50000000E-01
  8.50000000E-01  8.50000000E-01  8.50000000E-01  8.50000000E-01  8.50000000E-01
  8.50000000E-01  8.50000000E-01  8.50000000E-01  8.50000000E-01  8.50000000E-01
  8.50000000E-01  8.50000000E-01  8.50000000E-01  8.50000000E-01  8.50000000E-01
  8.50000000E-01  8.50000000E-01  8.50000000E-01  8.50000000E-01  8.50000000E-01
  8.50000000E-01  8.50000000E-01  8.50000000E-01  8.50000000E-01  8.50000000E-01
  8.50000000E-01  8.50000000E-01  8.50000000E-01  8.50000000E-01  8.50000000E-01
  8.50000000E-01  8.50000000E-01  8.50000000E-01  8.50000000E-01  8.50000000E-01
  8.50000000E-01  8.50000000E-01  8.50000000E-01  8.50000000E-01  8.50000000E-01
  8.50000000E-01  8.50000000E-01  8.50000000E-01  8.50000000E-01  8.50000000E-01
  8.50000000E-01  8.50000000E-01  8.50000000E-01  8.50000000E-01  8.50000000E-01
  8.50000000E-01  8.50000000E-01  8.50000000E-01  8.50000000E-01  8.50000000E-01
  8.50000000E-01  8.50000000E-01  8.50000000E-01  8.50000000E-01  8.50000000E-01
  8.50000000E-01  8.50000000E-01  8.50000000E-01  8.50000000E-01  8.50000000E-01
  8.50000000E-01  8.50000000E-01  8.50000000E-01  8.50000000E-01  8.50000000E-01
  8.50000000E-01  8.50000000E-01  8.50000000E-01  8.50000000E-01  8.50000000E-01
  8.50000000E-01  8.50000000E-01  8.50000000E-01  8.50000000E-01  8.50000000E-01
  8.50000000E-01  8.50000000E-01  8.50000000E-01  8.50000000E-01  8.50000000E-01
  8.50000000E-01  8.50000000E-01  8.50000000E-01  8.50000000E-01  8.50000000E-01
  8.50000000E-01  8.50000000E-01  8.50000000E-01  8.50000000E-01  8.50000000E-01
  8.50000000E-01  8.50000000E-01  8.50000000E-01  8.50000000E-01  8.50000000E-01
  8.50000000E-01  8.50000000E-01  8.50000000E-01  8.50000000E-01  8.50000000E-01
  8.50000000E-01  8.50000000E-01  8.50000000E-01  8.50000000E-01  8.50000000E-01
  8.50000000E-01  8.50000000E-01  8.50000000E-01  8.50000000E-01  8.50000000E-01
  8.50000000E-01  8.50000000E-01  8.50000000E-01  8.50000000E-01  8.50000000E-01
  8.50000000E-01  8.50000000E-01  8.50000000E-01  8.50000000E-01  8.50000000E-01
  8.50000000E-01  8.50000000E-01  8.50000000E-01  8.50000000E-01  8.50000000E-01
  8.50000000E-01  8.50000000E-01  8.50000000E-01  8.50000000E-01  8.50000000E-01
  8.50000000E-01  8.50000000E-01  8.50000000E-01  8.50000000E-01  8.50000000E-01
  8.50000000E-01  8.50000000E-01  8.50000000E-01  8.50000000E-01  8.50000000E-01
  8.50000000E-01  8.50000000E-01  8.50000000E-01  8.50000000E-01  8.50000000E-01
  8.50000000E-01  8.50000000E-01  8.50000000E-01  8.50000000E-01  8.50000000E-01
  8.50000000E-01  8.50000000E-01  8.50000000E-01  8.50000000E-01  8.50000000E-01
  8.50000000E-01  8.50000000E-01  8.50000000E-01  8.50000000E-01  8.50000000E-01
  8.50000000E-01  8.50000000E-01  8.50000000E-01  8.50000000E-01  8.50000000E-01
  8.50000000E-01  8.50000000E-01  8.50000000E-01  8.50000000E-01  8.50000000E-01
  8.50000000E-01  8.50000000E-01  8.50000000E-01  8.50000000E-01  8.50000000E-01
  8.50000000E-01  8.50000000E-01  8.50000000E-01  8.50000000E-01  8.50000000E-01
  8.50000000E-01  8.50000000E-01  8.50000000E-01  8.50000000E-01  8.50000000E-01
  8.50000000E-01  8.50000000E-01  8.50000000E-01  8.50000000E-01  8.50000000E-01
  8.50000000E-01  8.50000000E-01  8.50000000E-01  8.50000000E-01  8.50000000E-01
  8.50000000E-01  8.50000000E-01  8.50000000E-01  8.50000000E-01  8.50000000E-01
  8.50000000E-01  8.50000000E-01  8.50000000E-01  8.50000000E-01  8.50000000E-01
  8.50000000E-01  8.50000000E-01  8.50000000E-01  8.50000000E-01  8.50000000E-01
  8.50000000E-01  8.50000000E-01  8.50000000E-01  8.50000000E-01  8.50000000E-01
  8.50000000E-01  8.50000000E-01  8.50000000E-01  8.50000000E-01  8.50000000E-01
  8.50000000E-01  8.50000000E-01  8.50000000E-01  8.50000000E-01  8.50000000E-01
  8.50000000E-01  8.50000000E-01  8.50000000E-01  8.50000000E-01  8.50000000E-01
  8.50000000E-01  8.50000000E-01  8.50000000E-01  8.50000000E-01  8.50000000E-01
  8.50000000E-01  8.50000000E-01  8.50000000E-01  8.50000000E-01  8.50000000E-01
  8.50000000E-01  8.50000000E-01  8.50000000E-01  8.50000000E-01  8.50000000E-01
  8.50000000E-01  8.50000000E-01  8.50000000E-01  8.50000000E-01  8.50000000E-01
  8.50000000E-01  8.50000000E-01  8.50000000E-01  8.50000000E-01  8.50000000E-01
  8.50000000E-01  8.50000000E-01  8.50000000E-01  8.50000000E-01  8.50000000E-01
  8.50000000E-01  8.50000000E-01  8.50000000E-01  8.50000000E-01  8.50000000E-01
  8.50000000E-01  8.50000000E-01  8.50000000E-01  8.50000000E-01  8.50000000E-01
  8.50000000E-01  8.50000000E-01  8.50000000E-01  8.50000000E-01  8.50000000E-01
  8.50000000E-01  8.50000000E-01  8.50000000E-01  8.50000000E-01  8.50000000E-01
  8.50000000E-01  8.50000000E-01  8.50000000E-01  8.50000000E-01  8.50000000E-01
  8.50000000E-01  8.50000000E-01  8.50000000E-01  8.50000000E-01  8.50000000E-01
  8.50000000E-01  8.50000000E-01  8.50000000E-01  8.50000000E-01  8.50000000E-01
  8.50000000E-01  8.50000000E-01  8.50000000E-01  8.50000000E-01  8.50000000E-01
  8.50000000E-01  8.50000000E-01  8.50000000E-01  8.50000000E-01  8.50000000E-01
  8.50000000E-01  8.50000000E-01  8.50000000E-01  8.50000000E-01  8.50000000E-01
  8.50000000E-01  8.50000000E-01  8.50000000E-01  8.50000000E-01  8.50000000E-01
  8.50000000E-01  8.50000000E-01  8.50000000E-01  8.50000000E-01  8.50000000E-01
  8.50000000E-01  8.50000000E-01  8.50000000E-01  8.50000000E-01  8.50000000E-01
  8.50000000E-01  8.50000000E-01  8.50000000E-01  8.50000000E-01  8.50000000E-01
  8.50000000E-01  8.50000000E-01  8.50000000E-01  8.50000000E-01  8.50000000E-01
  8.50000000E-01  8.50000000E-01  8.50000000E-01  8.50000000E-01  8.50000000E-01
  8.50000000E-01  8.50000000E-01  8.50000000E-01  8.50000000E-01  8.50000000E-01
  8.50000000E-01  8.50000000E-01  8.50000000E-01  8.50000000E-01  8.50000000E-01
  8.50000000E-01  8.50000000E-01  8.50000000E-01  8.50000000E-01  8.50000000E-01
  8.50000000E-01  8.50000000E-01  8.50000000E-01  8.50000000E-01  8.50000000E-01
  8.50000000E-01  8.50000000E-01  8.50000000E-01  8.50000000E-01  8.50000000E-01
  8.50000000E-01  8.50000000E-01  8.50000000E-01  8.50000000E-01  8.50000000E-01
  8.50000000E-01  8.50000000E-01  8.50000000E-01  8.50000000E-01  8.50000000E-01
  8.50000000E-01  8.50000000E-01  8.50000000E-01  8.50000000E-01  8.50000000E-01
  8.50000000E-01  8.50000000E-01  8.50000000E-01  8.50000000E-01  8.50000000E-01
  8.50000000E-01  8.50000000E-01  8.50000000E-01  8.50000000E-01  8.50000000E-01
  8.50000000E-01  8.50000000E-01  8.50000000E-01  8.50000000E-01  8.50000000E-01
  8.50000000E-01  8.50000000E-01  8.50000000E-01  8.50000000E-01  8.50000000E-01
  8.50000000E-01  8.50000000E-01  8.50000000E-01  8.50000000E-01  8.50000000E-01
  8.50000000E-01  8.50000000E-01  8.50000000E-01  8.50000000E-01  8.50000000E-01
  8.50000000E-01  8.50000000E-01  8.50000000E-01  8.50000000E-01  8.50000000E-01
  8.50000000E-01  8.50000000E-01  8.50000000E-01  8.50000000E-01  8.50000000E-01
  8.50000000E-01  8.50000000E-01  8.50000000E-01  8.50000000E-01  8.50000000E-01
  8.50000000E-01  8.50000000E-01  8.50000000E-01  8.50000000E-01  8.50000000E-01
  8.50000000E-01  8.50000000E-01  8.50000000E-01  8.50000000E-01  8.50000000E-01
  8.50000000E-01  8.50000000E-01  8.50000000E-01  8.50000000E-01  8.50000000E-01
  8.50000000E-01  8.50000000E-01  8.50000000E-01  8.50000000E-01  8.50000000E-01
  8.50000000E-01  8.50000000E-01  8.50000000E-01  8.50000000E-01  8.50000000E-01
  8.50000000E-01  8.50000000E-01  8.50000000E-01  8.50000000E-01  8.50000000E-01
  8.50000000E-01  8.50000000E-01  8.50000000E-01  8.50000000E-01  8.50000000E-01
  8.50000000E-01  8.50000000E-01  8.50000000E-01  8.50000000E-01  8.50000000E-01
  8.50000000E-01  8.50000000E-01  8.50000000E-01  8.50000000E-01  8.50000000E-01
  8.50000000E-01  8.50000000E-01  8.50000000E-01  8.50000000E-01  8.50000000E-01
  8.50000000E-01  8.50000000E-01  8.50000000E-01  8.50000000E-01  8.50000000E-01
  8.50000000E-01  8.50000000E-01  8.50000000E-01  8.50000000E-01  8.50000000E-01
  8.50000000E-01  8.50000000E-01  8.50000000E-01  8.50000000E-01  8.50000000E-01
  8.50000000E-01  8.50000000E-01  8.50000000E-01  8.50000000E-01  8.50000000E-01
  8.50000000E-01  8.50000000E-01  8.50000000E-01  8.50000000E-01  8.50000000E-01
  8.50000000E-01  8.50000000E-01  8.50000000E-01  8.50000000E-01  8.50000000E-01
  8.50000000E-01  8.50000000E-01  8.50000000E-01  8.50000000E-01  8.50000000E-01
  8.50000000E-01  8.50000000E-01  8.50000000E-01  8.50000000E-01  8.50000000E-01
  8.50000000E-01  8.50000000E-01  8.50000000E-01  8.50000000E-01  8.50000000E-01
  8.50000000E-01  8.50000000E-01  8.50000000E-01  8.50000000E-01  8.50000000E-01
  8.50000000E-01  8.50000000E-01  8.50000000E-01  8.50000000E-01  8.50000000E-01
  8.50000000E-01  8.50000000E-01  8.50000000E-01  8.50000000E-01  8.50000000E-01
  8.50000000E-01  8.50000000E-01  8.50000000E-01  8.50000000E-01  8.50000000E-01
  8.50000000E-01  8.50000000E-01  8.50000000E-01  8.50000000E-01  8.50000000E-01
  8.50000000E-01  8.50000000E-01  8.50000000E-01  8.50000000E-01  8.50000000E-01
  8.50000000E-01  8.50000000E-01  8.50000000E-01  8.50000000E-01  8.50000000E-01
  8.50000000E-01  8.50000000E-01  8.50000000E-01  8.50000000E-01  8.50000000E-01
  8.50000000E-01  8.50000000E-01  8.50000000E-01  8.50000000E-01  8.50000000E-01
  8.50000000E-01  8.50000000E-01  8.50000000E-01  8.50000000E-01  8.50000000E-01
  8.50000000E-01  8.50000000E-01  8.50000000E-01  8.50000000E-01  8.50000000E-01
  8.50000000E-01  8.50000000E-01  8.50000000E-01  8.50000000E-01  8.50000000E-01
  8.50000000E-01  8.50000000E-01  8.50000000E-01  8.50000000E-01  8.50000000E-01
  8.50000000E-01  8.50000000E-01  8.50000000E-01  8.50000000E-01  8.50000000E-01
  8.50000000E-01  8.50000000E-01  8.50000000E-01  8.50000000E-01  8.50000000E-01
  8.50000000E-01  8.50000000E-01  8.50000000E-01  8.50000000E-01  8.50000000E-01
  8.50000000E-01  8.50000000E-01  8.50000000E-01  8.50000000E-01  8.50000000E-01
  8.50000000E-01  8.50000000E-01  8.50000000E-01  8.50000000E-01  8.50000000E-01
  8.50000000E-01  8.50000000E-01  8.50000000E-01  8.50000000E-01  8.50000000E-01
  8.50000000E-01  8.50000000E-01  8.50000000E-01  8.50000000E-01  8.50000000E-01
  8.50000000E-01  8.50000000E-01  8.50000000E-01  8.50000000E-01  8.50000000E-01
  8.50000000E-01  8.50000000E-01  8.50000000E-01  8.50000000E-01  8.50000000E-01
  8.50000000E-01  8.50000000E-01  8.50000000E-01  8.50000000E-01  8.50000000E-01
  8.50000000E-01  8.50000000E-01  8.50000000E-01  8.50000000E-01  8.50000000E-01
  8.50000000E-01  8.50000000E-01  8.50000000E-01  8.50000000E-01  8.50000000E-01
  8.50000000E-01  8.50000000E-01  8.50000000E-01  8.50000000E-01  8.50000000E-01
  8.50000000E-01  8.50000000E-01  8.50000000E-01  8.50000000E-01  8.50000000E-01
  8.50000000E-01  8.50000000E-01  8.50000000E-01  8.50000000E-01  8.50000000E-01
  8.50000000E-01  8.50000000E-01  8.50000000E-01  8.50000000E-01  8.50000000E-01
  8.50000000E-01  8.50000000E-01  8.50000000E-01  8.50000000E-01  8.50000000E-01
  8.50000000E-01  8.50000000E-01  8.50000000E-01  8.50000000E-01  8.50000000E-01
  8.50000000E-01  8.50000000E-01  8.50000000E-01  8.50000000E-01  8.50000000E-01
  8.50000000E-01  8.50000000E-01  8.50000000E-01  8.50000000E-01  8.50000000E-01
  8.50000000E-01  8.50000000E-01  8.50000000E-01  8.50000000E-01  8.50000000E-01
  8.50000000E-01  8.50000000E-01  8.50000000E-01  8.50000000E-01  8.50000000E-01
  8.50000000E-01  8.50000000E-01  8.50000000E-01  8.50000000E-01  8.50000000E-01
  8.50000000E-01  8.50000000E-01  8.50000000E-01  8.50000000E-01  8.50000000E-01
  8.50000000E-01  8.50000000E-01  8.50000000E-01  8.50000000E-01  8.50000000E-01
  8.50000000E-01  8.50000000E-01  8.50000000E-01  8.50000000E-01  8.50000000E-01
  8.50000000E-01  8.50000000E-01  8.50000000E-01  8.50000000E-01  8.50000000E-01
  8.50000000E-01  8.50000000E-01  8.50000000E-01  8.50000000E-01  8.50000000E-01
  8.50000000E-01  8.50000000E-01  8.50000000E-01  8.50000000E-01  8.50000000E-01
  8.50000000E-01  8.50000000E-01  8.50000000E-01  8.50000000E-01  8.50000000E-01
  8.50000000E-01  8.50000000E-01  8.50000000E-01  8.50000000E-01  8.50000000E-01
  8.50000000E-01  8.50000000E-01  8.50000000E-01  8.50000000E-01  8.50000000E-01
  8.50000000E-01  8.50000000E-01  8.50000000E-01  8.50000000E-01  8.50000000E-01
  8.50000000E-01  8.50000000E-01  8.50000000E-01  8.50000000E-01  8.50000000E-01
  8.50000000E-01  8.50000000E-01  8.50000000E-01  8.50000000E-01  8.50000000E-01
  8.50000000E-01  8.50000000E-01  8.50000000E-01  8.50000000E-01  8.50000000E-01
  8.50000000E-01  8.50000000E-01  8.50000000E-01  8.50000000E-01  8.50000000E-01
  8.50000000E-01  8.50000000E-01  8.50000000E-01  8.50000000E-01  8.50000000E-01
  8.50000000E-01  8.50000000E-01  8.50000000E-01  8.50000000E-01  8.50000000E-01
  8.50000000E-01  8.50000000E-01  8.50000000E-01  8.50000000E-01  8.50000000E-01
  8.50000000E-01  8.50000000E-01  8.50000000E-01  8.50000000E-01  8.50000000E-01
  8.50000000E-01  8.50000000E-01  8.50000000E-01  8.50000000E-01  8.50000000E-01
  8.50000000E-01  8.50000000E-01  8.50000000E-01  8.50000000E-01  8.50000000E-01
  8.50000000E-01  8.50000000E-01  8.50000000E-01  8.50000000E-01  8.50000000E-01
  8.50000000E-01  8.50000000E-01  8.50000000E-01  8.50000000E-01  8.50000000E-01
  8.50000000E-01  8.50000000E-01  8.50000000E-01  8.50000000E-01  8.50000000E-01
  8.50000000E-01  8.50000000E-01  8.50000000E-01  8.50000000E-01  8.50000000E-01
  8.50000000E-01  8.50000000E-01  8.50000000E-01  8.50000000E-01  8.50000000E-01
  8.50000000E-01  8.50000000E-01  8.50000000E-01  8.50000000E-01  8.50000000E-01
  8.50000000E-01  8.50000000E-01  8.50000000E-01  8.50000000E-01  8.50000000E-01
  8.50000000E-01  8.50000000E-01  8.50000000E-01  8.50000000E-01  8.50000000E-01
  8.50000000E-01  8.50000000E-01  8.50000000E-01  8.50000000E-01  8.50000000E-01
  8.50000000E-01  8.50000000E-01  8.50000000E-01  8.50000000E-01  8.50000000E-01
  8.50000000E-01  8.50000000E-01  8.50000000E-01  8.50000000E-01  8.50000000E-01
  8.50000000E-01  8.50000000E-01  8.50000000E-01  8.50000000E-01  8.50000000E-01
  8.50000000E-01  8.50000000E-01  8.50000000E-01  8.50000000E-01  8.50000000E-01
  8.50000000E-01  8.50000000E-01  8.50000000E-01  8.50000000E-01  8.50000000E-01
  8.50000000E-01  8.50000000E-01  8.50000000E-01  8.50000000E-01  8.50000000E-01
  8.50000000E-01  8.50000000E-01  8.50000000E-01  8.50000000E-01  8.50000000E-01
  8.50000000E-01  8.50000000E-01  8.50000000E-01  8.50000000E-01  8.50000000E-01
  8.50000000E-01  8.50000000E-01  8.50000000E-01  8.50000000E-01  8.50000000E-01
  8.50000000E-01  8.50000000E-01  8.50000000E-01  8.50000000E-01  8.50000000E-01
  8.50000000E-01  8.50000000E-01  8.50000000E-01  8.50000000E-01  8.50000000E-01
  8.50000000E-01  8.50000000E-01  8.50000000E-01  8.50000000E-01  8.50000000E-01
  8.50000000E-01  8.50000000E-01  8.50000000E-01  8.50000000E-01  8.50000000E-01
  8.50000000E-01  8.50000000E-01  8.50000000E-01  8.50000000E-01  8.50000000E-01
  8.50000000E-01  8.50000000E-01  8.50000000E-01  8.50000000E-01  8.50000000E-01
  8.50000000E-01  8.50000000E-01  8.50000000E-01  8.50000000E-01  8.50000000E-01
  8.50000000E-01  8.50000000E-01  8.50000000E-01  8.50000000E-01  8.50000000E-01
  8.50000000E-01  8.50000000E-01  8.50000000E-01  8.50000000E-01  8.50000000E-01
  8.50000000E-01  8.50000000E-01  8.50000000E-01  8.50000000E-01  8.50000000E-01
  8.50000000E-01  8.50000000E-01  8.50000000E-01  8.50000000E-01  8.50000000E-01
  8.50000000E-01  8.50000000E-01  8.50000000E-01  8.50000000E-01  8.50000000E-01
  8.50000000E-01  8.50000000E-01  8.50000000E-01  8.50000000E-01  8.50000000E-01
  8.50000000E-01  8.50000000E-01  8.50000000E-01  8.50000000E-01  8.50000000E-01
  8.50000000E-01  8.50000000E-01  8.50000000E-01  8.50000000E-01  8.50000000E-01
  8.50000000E-01  8.50000000E-01  8.50000000E-01  8.50000000E-01  8.50000000E-01
  8.50000000E-01  8.50000000E-01  8.50000000E-01  8.50000000E-01  8.50000000E-01
  8.50000000E-01  8.50000000E-01  8.50000000E-01  8.50000000E-01  8.50000000E-01
  8.50000000E-01  8.50000000E-01  8.50000000E-01  8.50000000E-01  8.50000000E-01
  8.50000000E-01  8.50000000E-01  8.50000000E-01  8.50000000E-01  8.50000000E-01
  8.50000000E-01  8.50000000E-01  8.50000000E-01  8.50000000E-01  8.50000000E-01
  8.50000000E-01  8.50000000E-01  8.50000000E-01  8.50000000E-01  8.50000000E-01
  8.50000000E-01  8.50000000E-01  8.50000000E-01  8.50000000E-01  8.50000000E-01
  8.50000000E-01  8.50000000E-01  8.50000000E-01  8.50000000E-01  8.50000000E-01
  8.50000000E-01  8.50000000E-01  8.50000000E-01  8.50000000E-01  8.50000000E-01
  8.50000000E-01  8.50000000E-01  8.50000000E-01  8.50000000E-01  8.50000000E-01
  8.50000000E-01  8.50000000E-01  8.50000000E-01  8.50000000E-01  8.50000000E-01
  8.50000000E-01  8.50000000E-01  8.50000000E-01  8.50000000E-01  8.50000000E-01
  8.50000000E-01  8.50000000E-01  8.50000000E-01  8.50000000E-01  8.50000000E-01
  8.50000000E-01  8.50000000E-01  8.50000000E-01  8.50000000E-01  8.50000000E-01
  8.50000000E-01  8.50000000E-01  8.50000000E-01  8.50000000E-01  8.50000000E-01
  8.50000000E-01  8.50000000E-01  8.50000000E-01  8.50000000E-01  8.50000000E-01
  8.50000000E-01  8.50000000E-01  8.50000000E-01  8.50000000E-01  8.50000000E-01
  8.50000000E-01  8.50000000E-01  8.50000000E-01  8.50000000E-01  8.50000000E-01
  8.50000000E-01  8.50000000E-01  8.50000000E-01  8.50000000E-01  8.50000000E-01
  8.50000000E-01  8.50000000E-01  8.50000000E-01  8.50000000E-01  8.50000000E-01
  8.50000000E-01  8.50000000E-01  8.50000000E-01  8.50000000E-01  8.50000000E-01
  8.50000000E-01  8.50000000E-01  8.50000000E-01  8.50000000E-01  8.50000000E-01
  8.50000000E-01  8.50000000E-01  8.50000000E-01  8.50000000E-01  8.50000000E-01
  8.50000000E-01  8.50000000E-01  8.50000000E-01  8.50000000E-01  8.50000000E-01
  8.50000000E-01  8.50000000E-01  8.50000000E-01  8.50000000E-01  8.50000000E-01
  8.50000000E-01  8.50000000E-01  8.50000000E-01  8.50000000E-01  8.50000000E-01
  8.50000000E-01  8.50000000E-01  8.50000000E-01  8.50000000E-01  8.50000000E-01
  8.50000000E-01  8.50000000E-01  8.50000000E-01  8.50000000E-01  8.50000000E-01
  8.50000000E-01  8.50000000E-01  8.50000000E-01  8.50000000E-01  8.50000000E-01
  8.50000000E-01  8.50000000E-01  8.50000000E-01  8.50000000E-01  8.50000000E-01
  8.50000000E-01  8.50000000E-01  8.50000000E-01  8.50000000E-01  8.50000000E-01
  8.50000000E-01  8.50000000E-01  8.50000000E-01  8.50000000E-01  8.50000000E-01
  8.50000000E-01  8.50000000E-01  8.50000000E-01  8.50000000E-01  8.50000000E-01
  8.50000000E-01  8.50000000E-01  8.50000000E-01  8.50000000E-01  8.50000000E-01
  8.50000000E-01  8.50000000E-01  8.50000000E-01  8.50000000E-01  8.50000000E-01
  8.50000000E-01  8.50000000E-01  8.50000000E-01  8.50000000E-01  8.50000000E-01
  8.50000000E-01  8.50000000E-01  8.50000000E-01  8.50000000E-01  8.50000000E-01
  8.50000000E-01  8.50000000E-01  8.50000000E-01  8.50000000E-01  8.50000000E-01
  8.50000000E-01  8.50000000E-01  8.50000000E-01  8.50000000E-01  8.50000000E-01
  8.50000000E-01  8.50000000E-01  8.50000000E-01  8.50000000E-01  8.50000000E-01
  8.50000000E-01  8.50000000E-01  8.50000000E-01  8.50000000E-01  8.50000000E-01
  8.50000000E-01  8.50000000E-01  8.50000000E-01  8.50000000E-01  8.50000000E-01
  8.50000000E-01  8.50000000E-01  8.50000000E-01  8.50000000E-01  8.50000000E-01
  8.50000000E-01  8.50000000E-01  8.50000000E-01  8.50000000E-01  8.50000000E-01
  8.50000000E-01  8.50000000E-01  8.50000000E-01  8.50000000E-01  8.50000000E-01
  8.50000000E-01  8.50000000E-01  8.50000000E-01  8.50000000E-01  8.50000000E-01
  8.50000000E-01  8.50000000E-01  8.50000000E-01  8.50000000E-01  8.50000000E-01
  8.50000000E-01  8.50000000E-01  8.50000000E-01  8.50000000E-01  8.50000000E-01
  8.50000000E-01  8.50000000E-01  8.50000000E-01  8.50000000E-01  8.50000000E-01
  8.50000000E-01  8.50000000E-01  8.50000000E-01  8.50000000E-01  8.50000000E-01
  8.50000000E-01  8.50000000E-01  8.50000000E-01  8.50000000E-01  8.50000000E-01
  8.50000000E-01  8.50000000E-01  8.50000000E-01  8.50000000E-01  8.50000000E-01
  8.50000000E-01  8.50000000E-01  8.50000000E-01  8.50000000E-01  8.50000000E-01
  8.50000000E-01  8.50000000E-01  8.50000000E-01  8.50000000E-01  8.50000000E-01
  8.50000000E-01  8.50000000E-01  8.50000000E-01  8.50000000E-01  8.50000000E-01
  8.50000000E-01  8.50000000E-01  8.50000000E-01  8.50000000E-01  8.50000000E-01
  8.50000000E-01  8.50000000E-01  8.50000000E-01  8.50000000E-01  8.50000000E-01
  8.50000000E-01  8.50000000E-01  8.50000000E-01  8.50000000E-01  8.50000000E-01
  8.50000000E-01  8.50000000E-01  8.50000000E-01  8.50000000E-01  8.50000000E-01
  8.50000000E-01  8.50000000E-01  8.50000000E-01  8.50000000E-01  8.50000000E-01
  8.50000000E-01  8.50000000E-01  8.50000000E-01  8.50000000E-01  8.50000000E-01
  8.50000000E-01  8.50000000E-01  8.50000000E-01  8.50000000E-01  8.50000000E-01
  8.50000000E-01  8.50000000E-01  8.50000000E-01  8.50000000E-01  8.50000000E-01
  8.50000000E-01  8.50000000E-01  8.50000000E-01  8.50000000E-01  8.50000000E-01
  8.50000000E-01  8.50000000E-01  8.50000000E-01  8.50000000E-01  8.50000000E-01
  8.50000000E-01  8.50000000E-01  8.50000000E-01  8.50000000E-01  8.50000000E-01
  8.50000000E-01  8.50000000E-01  8.50000000E-01  8.50000000E-01  8.50000000E-01
  8.50000000E-01  8.50000000E-01  8.50000000E-01  8.50000000E-01  8.50000000E-01
  8.50000000E-01  8.50000000E-01  8.50000000E-01  8.50000000E-01  8.50000000E-01
  8.50000000E-01  8.50000000E-01  8.50000000E-01  8.50000000E-01  8.50000000E-01
  8.50000000E-01  8.50000000E-01  8.50000000E-01  8.50000000E-01  8.50000000E-01
  8.50000000E-01  8.50000000E-01  8.50000000E-01  8.50000000E-01  8.50000000E-01
  8.50000000E-01  8.50000000E-01  8.50000000E-01  8.50000000E-01  8.50000000E-01
  8.50000000E-01  8.50000000E-01  8.50000000E-01  8.50000000E-01  8.50000000E-01
  8.50000000E-01  8.50000000E-01  8.50000000E-01  8.50000000E-01  8.50000000E-01
  8.50000000E-01  8.50000000E-01  8.50000000E-01  8.50000000E-01  8.50000000E-01
  8.50000000E-01  8.50000000E-01  8.50000000E-01  8.50000000E-01  8.50000000E-01
  8.50000000E-01  8.50000000E-01  8.50000000E-01  8.50000000E-01  8.50000000E-01
  8.50000000E-01  8.50000000E-01  8.50000000E-01  8.50000000E-01  8.50000000E-01
  8.50000000E-01  8.50000000E-01  8.50000000E-01  8.50000000E-01  8.50000000E-01
  8.50000000E-01  8.50000000E-01  8.50000000E-01  8.50000000E-01  8.50000000E-01
  8.50000000E-01  8.50000000E-01  8.50000000E-01  8.50000000E-01  8.50000000E-01
  8.50000000E-01  8.50000000E-01  8.50000000E-01  8.50000000E-01  8.50000000E-01
  8.50000000E-01  8.50000000E-01  8.50000000E-01  8.50000000E-01  8.50000000E-01
  8.50000000E-01  8.50000000E-01  8.50000000E-01  8.50000000E-01  8.50000000E-01
  8.50000000E-01  8.50000000E-01  8.50000000E-01  8.50000000E-01  8.50000000E-01
  8.50000000E-01  8.50000000E-01  8.50000000E-01  8.50000000E-01  8.50000000E-01
  8.50000000E-01  8.50000000E-01  8.50000000E-01  8.50000000E-01  8.50000000E-01
  8.50000000E-01  8.50000000E-01  8.50000000E-01  8.50000000E-01  8.50000000E-01
  8.50000000E-01  8.50000000E-01  8.50000000E-01  8.50000000E-01  8.50000000E-01
  8.50000000E-01  8.50000000E-01  8.50000000E-01  8.50000000E-01  8.50000000E-01
  8.50000000E-01  8.50000000E-01  8.50000000E-01  8.50000000E-01  8.50000000E-01
  8.50000000E-01  8.50000000E-01  8.50000000E-01  8.50000000E-01  8.50000000E-01
  8.50000000E-01  8.50000000E-01  8.50000000E-01  8.50000000E-01  8.50000000E-01
  8.50000000E-01  8.50000000E-01  8.50000000E-01  8.50000000E-01  8.50000000E-01
  8.50000000E-01  8.50000000E-01  8.50000000E-01  8.50000000E-01  8.50000000E-01
  8.50000000E-01  8.50000000E-01  8.50000000E-01  8.50000000E-01  8.50000000E-01
  8.50000000E-01  8.50000000E-01  8.50000000E-01  8.50000000E-01  8.50000000E-01
  8.50000000E-01  8.50000000E-01  8.50000000E-01  8.50000000E-01  8.50000000E-01
  8.50000000E-01  8.50000000E-01  8.50000000E-01  8.50000000E-01  8.50000000E-01
  8.50000000E-01  8.50000000E-01  8.50000000E-01  8.50000000E-01  8.50000000E-01
  8.50000000E-01  8.50000000E-01  8.50000000E-01  8.50000000E-01  8.50000000E-01
  8.50000000E-01  8.50000000E-01  8.50000000E-01  8.50000000E-01  8.50000000E-01
  8.50000000E-01  8.50000000E-01  8.50000000E-01  8.50000000E-01  8.50000000E-01
  8.50000000E-01  8.50000000E-01  8.50000000E-01  8.50000000E-01  8.50000000E-01
  8.50000000E-01  8.50000000E-01  8.50000000E-01  8.50000000E-01  8.50000000E-01
  8.50000000E-01  8.50000000E-01  8.50000000E-01  8.50000000E-01  8.50000000E-01
  8.50000000E-01  8.50000000E-01  8.50000000E-01  8.50000000E-01  8.50000000E-01
  8.50000000E-01  8.50000000E-01  8.50000000E-01  8.50000000E-01  8.50000000E-01
  8.50000000E-01  8.50000000E-01  8.50000000E-01  8.50000000E-01  8.50000000E-01
  8.50000000E-01  8.50000000E-01  8.50000000E-01  8.50000000E-01  8.50000000E-01
  8.50000000E-01  8.50000000E-01  8.50000000E-01  8.50000000E-01  8.50000000E-01
  8.50000000E-01  8.50000000E-01  8.50000000E-01  8.50000000E-01  8.50000000E-01
  8.50000000E-01  8.50000000E-01  8.50000000E-01  8.50000000E-01  8.50000000E-01
  8.50000000E-01  8.50000000E-01  8.50000000E-01  8.50000000E-01  8.50000000E-01
  8.50000000E-01  8.50000000E-01  8.50000000E-01  8.50000000E-01  8.50000000E-01
  8.50000000E-01  8.50000000E-01  8.50000000E-01  8.50000000E-01  8.50000000E-01
  8.50000000E-01  8.50000000E-01  8.50000000E-01  8.50000000E-01  8.50000000E-01
  8.50000000E-01  8.50000000E-01  8.50000000E-01  8.50000000E-01  8.50000000E-01
  8.50000000E-01  8.50000000E-01  8.50000000E-01  8.50000000E-01  8.50000000E-01
  8.50000000E-01  8.50000000E-01  8.50000000E-01  8.50000000E-01  8.50000000E-01
  8.50000000E-01  8.50000000E-01  8.50000000E-01  8.50000000E-01  8.50000000E-01
  8.50000000E-01  8.50000000E-01  8.50000000E-01  8.50000000E-01  8.50000000E-01
  8.50000000E-01  8.50000000E-01  8.50000000E-01  8.50000000E-01  8.50000000E-01
  8.50000000E-01  8.50000000E-01  8.50000000E-01  8.50000000E-01  8.50000000E-01
  8.50000000E-01  8.50000000E-01  8.50000000E-01  8.50000000E-01  8.50000000E-01
  8.50000000E-01  8.50000000E-01  8.50000000E-01  8.50000000E-01  8.50000000E-01
  8.50000000E-01  8.50000000E-01  8.50000000E-01  8.50000000E-01  8.50000000E-01
  8.50000000E-01  8.50000000E-01  8.50000000E-01  8.50000000E-01  8.50000000E-01
  8.50000000E-01  8.50000000E-01  8.50000000E-01  8.50000000E-01  8.50000000E-01
  8.50000000E-01  8.50000000E-01  8.50000000E-01  8.50000000E-01  8.50000000E-01
  8.50000000E-01  8.50000000E-01  8.50000000E-01  8.50000000E-01  8.50000000E-01
  8.50000000E-01  8.50000000E-01  8.50000000E-01  8.50000000E-01  8.50000000E-01
  8.50000000E-01  8.50000000E-01  8.50000000E-01  8.50000000E-01  8.50000000E-01
  8.50000000E-01  8.50000000E-01  8.50000000E-01  8.50000000E-01  8.50000000E-01
  8.50000000E-01  8.50000000E-01  8.50000000E-01  8.50000000E-01  8.50000000E-01
  8.50000000E-01  8.50000000E-01  8.50000000E-01  8.50000000E-01  8.50000000E-01
  8.50000000E-01  8.50000000E-01  8.50000000E-01  8.50000000E-01  8.50000000E-01
  8.50000000E-01  8.50000000E-01  8.50000000E-01  8.50000000E-01  8.50000000E-01
  8.50000000E-01  8.50000000E-01  8.50000000E-01  8.50000000E-01  8.50000000E-01
  8.50000000E-01  8.50000000E-01  8.50000000E-01  8.50000000E-01  8.50000000E-01
  8.50000000E-01  8.50000000E-01  8.50000000E-01  8.50000000E-01  8.50000000E-01
  8.50000000E-01  8.50000000E-01  8.50000000E-01  8.50000000E-01  8.50000000E-01
  8.50000000E-01  8.50000000E-01  8.50000000E-01  8.50000000E-01  8.50000000E-01
  8.50000000E-01  8.50000000E-01  8.50000000E-01  8.50000000E-01  8.50000000E-01
  8.50000000E-01  8.50000000E-01  8.50000000E-01  8.50000000E-01  8.50000000E-01
  8.50000000E-01  8.50000000E-01  8.50000000E-01  8.50000000E-01  8.50000000E-01
  8.50000000E-01  8.50000000E-01  8.50000000E-01  8.50000000E-01  8.50000000E-01
  8.50000000E-01  8.50000000E-01  8.50000000E-01  8.50000000E-01  8.50000000E-01
  8.50000000E-01  8.50000000E-01  8.50000000E-01  8.50000000E-01  8.50000000E-01
  8.50000000E-01  8.50000000E-01  8.50000000E-01  8.50000000E-01  8.50000000E-01
  8.50000000E-01  8.50000000E-01  8.50000000E-01  8.50000000E-01  8.50000000E-01
  8.50000000E-01  8.50000000E-01  8.50000000E-01  8.50000000E-01  8.50000000E-01
  8.50000000E-01  8.50000000E-01  8.50000000E-01  8.50000000E-01  8.50000000E-01
  8.50000000E-01  8.50000000E-01  8.50000000E-01  8.50000000E-01  8.50000000E-01
  8.50000000E-01  8.50000000E-01  8.50000000E-01  8.50000000E-01  8.50000000E-01
  8.50000000E-01  8.50000000E-01  8.50000000E-01  8.50000000E-01  8.50000000E-01
  8.50000000E-01  8.50000000E-01  8.50000000E-01  8.50000000E-01  8.50000000E-01
  8.50000000E-01  8.50000000E-01  8.50000000E-01  8.50000000E-01  8.50000000E-01
  8.50000000E-01  8.50000000E-01  8.50000000E-01  8.50000000E-01  8.50000000E-01
  8.50000000E-01  8.50000000E-01  8.50000000E-01  8.50000000E-01  8.50000000E-01
  8.50000000E-01  8.50000000E-01  8.50000000E-01  8.50000000E-01  8.50000000E-01
  8.50000000E-01  8.50000000E-01  8.50000000E-01  8.50000000E-01  8.50000000E-01
  8.50000000E-01  8.50000000E-01  8.50000000E-01  8.50000000E-01  8.50000000E-01
  8.50000000E-01  8.50000000E-01  8.50000000E-01  8.50000000E-01  8.50000000E-01
  8.50000000E-01  8.50000000E-01  8.50000000E-01  8.50000000E-01  8.50000000E-01
  8.50000000E-01  8.50000000E-01  8.50000000E-01  8.50000000E-01  8.50000000E-01
  8.50000000E-01  8.50000000E-01  8.50000000E-01  8.50000000E-01  8.50000000E-01
  8.50000000E-01  8.50000000E-01  8.50000000E-01  8.50000000E-01  8.50000000E-01
  8.50000000E-01  8.50000000E-01  8.50000000E-01  8.50000000E-01  8.50000000E-01
  8.50000000E-01  8.50000000E-01  8.50000000E-01  8.50000000E-01  8.50000000E-01
  8.50000000E-01  8.50000000E-01  8.50000000E-01  8.50000000E-01  8.50000000E-01
  8.50000000E-01  8.50000000E-01  8.50000000E-01  8.50000000E-01  8.50000000E-01
  8.50000000E-01  8.50000000E-01  8.50000000E-01  8.50000000E-01  8.50000000E-01
  8.50000000E-01  8.50000000E-01  8.50000000E-01  8.50000000E-01  8.50000000E-01
  8.50000000E-01  8.50000000E-01  8.50000000E-01  8.50000000E-01  8.50000000E-01
  8.50000000E-01  8.50000000E-01  8.50000000E-01  8.50000000E-01  8.50000000E-01
  8.50000000E-01  8.50000000E-01  8.50000000E-01  8.50000000E-01  8.50000000E-01
  8.50000000E-01  8.50000000E-01  8.50000000E-01  8.50000000E-01  8.50000000E-01
  8.50000000E-01  8.50000000E-01  8.50000000E-01  8.50000000E-01  8.50000000E-01
  8.50000000E-01  8.50000000E-01  8.50000000E-01  8.50000000E-01  8.50000000E-01
  8.50000000E-01  8.50000000E-01  8.50000000E-01  8.50000000E-01  8.50000000E-01
  8.50000000E-01  8.50000000E-01  8.50000000E-01  8.50000000E-01  8.50000000E-01
  8.50000000E-01  8.50000000E-01  8.50000000E-01  8.50000000E-01  8.50000000E-01
  8.50000000E-01  8.50000000E-01  8.50000000E-01  8.50000000E-01  8.50000000E-01
  8.50000000E-01  8.50000000E-01  8.50000000E-01  8.50000000E-01  8.50000000E-01
  8.50000000E-01  8.50000000E-01  8.50000000E-01  8.50000000E-01  8.50000000E-01
  8.50000000E-01  8.50000000E-01  8.50000000E-01  8.50000000E-01  8.50000000E-01
  8.50000000E-01  8.50000000E-01  8.50000000E-01  8.50000000E-01  8.50000000E-01
  8.50000000E-01  8.50000000E-01  8.50000000E-01  8.50000000E-01  8.50000000E-01
  8.50000000E-01  8.50000000E-01  8.50000000E-01  8.50000000E-01  8.50000000E-01
  8.50000000E-01  8.50000000E-01  8.50000000E-01  8.50000000E-01  8.50000000E-01
  8.50000000E-01  8.50000000E-01  8.50000000E-01  8.50000000E-01  8.50000000E-01
  8.50000000E-01  8.50000000E-01  8.50000000E-01  8.50000000E-01  8.50000000E-01
  8.50000000E-01  8.50000000E-01  8.50000000E-01  8.50000000E-01  8.50000000E-01
  8.50000000E-01  8.50000000E-01  8.50000000E-01  8.50000000E-01  8.50000000E-01
  8.50000000E-01  8.50000000E-01  8.50000000E-01  8.50000000E-01  8.50000000E-01
  8.50000000E-01  8.50000000E-01  8.50000000E-01  8.50000000E-01  8.50000000E-01
  8.50000000E-01  8.50000000E-01  8.50000000E-01  8.50000000E-01  8.50000000E-01
  8.50000000E-01  8.50000000E-01  8.50000000E-01  8.50000000E-01  8.50000000E-01
  8.50000000E-01  8.50000000E-01  8.50000000E-01  8.50000000E-01  8.50000000E-01
  8.50000000E-01  8.50000000E-01  8.50000000E-01  8.50000000E-01  8.50000000E-01
  8.50000000E-01  8.50000000E-01  8.50000000E-01  8.50000000E-01  8.50000000E-01
  8.50000000E-01  8.50000000E-01  8.50000000E-01  8.50000000E-01  8.50000000E-01
  8.50000000E-01  8.50000000E-01  8.50000000E-01  8.50000000E-01  8.50000000E-01
  8.50000000E-01  8.50000000E-01  8.50000000E-01  8.50000000E-01  8.50000000E-01
  8.50000000E-01  8.50000000E-01  8.50000000E-01  8.50000000E-01  8.50000000E-01
  8.50000000E-01  8.50000000E-01  8.50000000E-01  8.50000000E-01  8.50000000E-01
  8.50000000E-01  8.50000000E-01  8.50000000E-01  8.50000000E-01  8.50000000E-01
  8.50000000E-01  8.50000000E-01  8.50000000E-01  8.50000000E-01  8.50000000E-01
  8.50000000E-01  8.50000000E-01  8.50000000E-01  8.50000000E-01  8.50000000E-01
  8.50000000E-01  8.50000000E-01  8.50000000E-01  8.50000000E-01  8.50000000E-01
  8.50000000E-01  8.50000000E-01  8.50000000E-01  8.50000000E-01  8.50000000E-01
  8.50000000E-01  8.50000000E-01  8.50000000E-01  8.50000000E-01  8.50000000E-01
  8.50000000E-01  8.50000000E-01  8.50000000E-01  8.50000000E-01  8.50000000E-01
  8.50000000E-01  8.50000000E-01  8.50000000E-01  8.50000000E-01  8.50000000E-01
  8.50000000E-01  8.50000000E-01  8.50000000E-01  8.50000000E-01  8.50000000E-01
  8.50000000E-01  8.50000000E-01  8.50000000E-01  8.50000000E-01  8.50000000E-01
  8.50000000E-01  8.50000000E-01  8.50000000E-01  8.50000000E-01  8.50000000E-01
  8.50000000E-01  8.50000000E-01  8.50000000E-01  8.50000000E-01  8.50000000E-01
  8.50000000E-01  8.50000000E-01  8.50000000E-01  8.50000000E-01  8.50000000E-01
  8.50000000E-01  8.50000000E-01  8.50000000E-01  8.50000000E-01  8.50000000E-01
  8.50000000E-01  8.50000000E-01  8.50000000E-01  8.50000000E-01  8.50000000E-01
  8.50000000E-01  8.50000000E-01  8.50000000E-01  8.50000000E-01  8.50000000E-01
  8.50000000E-01  8.50000000E-01  8.50000000E-01  8.50000000E-01  8.50000000E-01
  8.50000000E-01  8.50000000E-01  8.50000000E-01  8.50000000E-01  8.50000000E-01
  8.50000000E-01  8.50000000E-01  8.50000000E-01  8.50000000E-01  8.50000000E-01
  8.50000000E-01  8.50000000E-01  8.50000000E-01  8.50000000E-01  8.50000000E-01
  8.50000000E-01  8.50000000E-01  8.50000000E-01  8.50000000E-01  8.50000000E-01
  8.50000000E-01  8.50000000E-01  8.50000000E-01  8.50000000E-01  8.50000000E-01
  8.50000000E-01  8.50000000E-01  8.50000000E-01  8.50000000E-01  8.50000000E-01
  8.50000000E-01  8.50000000E-01  8.50000000E-01  8.50000000E-01  8.50000000E-01
  8.50000000E-01  8.50000000E-01  8.50000000E-01  8.50000000E-01  8.50000000E-01
  8.50000000E-01  8.50000000E-01  8.50000000E-01  8.50000000E-01  8.50000000E-01
  8.50000000E-01  8.50000000E-01  8.50000000E-01  8.50000000E-01  8.50000000E-01
  8.50000000E-01  8.50000000E-01  8.50000000E-01  8.50000000E-01  8.50000000E-01
  8.50000000E-01  8.50000000E-01  8.50000000E-01  8.50000000E-01  8.50000000E-01
  8.50000000E-01  8.50000000E-01  8.50000000E-01  8.50000000E-01  8.50000000E-01
  8.50000000E-01  8.50000000E-01  8.50000000E-01  8.50000000E-01  8.50000000E-01
  8.50000000E-01  8.50000000E-01  8.50000000E-01  8.50000000E-01  8.50000000E-01
  8.50000000E-01  8.50000000E-01  8.50000000E-01  8.50000000E-01  8.50000000E-01
  8.50000000E-01  8.50000000E-01  8.50000000E-01  8.50000000E-01  8.50000000E-01
  8.50000000E-01  8.50000000E-01  8.50000000E-01  8.50000000E-01  8.50000000E-01
  8.50000000E-01  8.50000000E-01  8.50000000E-01  8.50000000E-01  8.50000000E-01
  8.50000000E-01  8.50000000E-01  8.50000000E-01  8.50000000E-01  8.50000000E-01
  8.50000000E-01  8.50000000E-01  8.50000000E-01  8.50000000E-01  8.50000000E-01
  8.50000000E-01  8.50000000E-01  8.50000000E-01  8.50000000E-01  8.50000000E-01
  8.50000000E-01  8.50000000E-01  8.50000000E-01  8.50000000E-01  8.50000000E-01
  8.50000000E-01  8.50000000E-01  8.50000000E-01  8.50000000E-01  8.50000000E-01
  8.50000000E-01  8.50000000E-01  8.50000000E-01  8.50000000E-01  8.50000000E-01
  8.50000000E-01  8.50000000E-01  8.50000000E-01  8.50000000E-01  8.50000000E-01
  8.50000000E-01  8.50000000E-01  8.50000000E-01  8.50000000E-01  8.50000000E-01
  8.50000000E-01  8.50000000E-01  8.50000000E-01  8.50000000E-01  8.50000000E-01
  8.50000000E-01  8.50000000E-01  8.50000000E-01  8.50000000E-01  8.50000000E-01
  8.50000000E-01  8.50000000E-01  8.50000000E-01  8.50000000E-01  8.50000000E-01
  8.50000000E-01  8.50000000E-01  8.50000000E-01  8.50000000E-01  8.50000000E-01
  8.50000000E-01  8.50000000E-01  8.50000000E-01  8.50000000E-01  8.50000000E-01
  8.50000000E-01  8.50000000E-01  8.50000000E-01  8.50000000E-01  8.50000000E-01
  8.50000000E-01  8.50000000E-01  8.50000000E-01  8.50000000E-01  8.50000000E-01
  8.50000000E-01  8.50000000E-01  8.50000000E-01  8.50000000E-01  8.50000000E-01
  8.50000000E-01  8.50000000E-01  8.50000000E-01  8.50000000E-01  8.50000000E-01
  8.50000000E-01  8.50000000E-01  8.50000000E-01  8.50000000E-01  8.50000000E-01
  8.50000000E-01  8.50000000E-01  8.50000000E-01  8.50000000E-01  8.50000000E-01
  8.50000000E-01  8.50000000E-01  8.50000000E-01  8.50000000E-01  8.50000000E-01
  8.50000000E-01  8.50000000E-01  8.50000000E-01  8.50000000E-01  8.50000000E-01
  8.50000000E-01  8.50000000E-01  8.50000000E-01  8.50000000E-01  8.50000000E-01
  8.50000000E-01  8.50000000E-01  8.50000000E-01  8.50000000E-01  8.50000000E-01
  8.50000000E-01  8.50000000E-01  8.50000000E-01  8.50000000E-01  8.50000000E-01
  8.50000000E-01  8.50000000E-01  8.50000000E-01  8.50000000E-01  8.50000000E-01
  8.50000000E-01  8.50000000E-01  8.50000000E-01  8.50000000E-01  8.50000000E-01
  8.50000000E-01  8.50000000E-01  8.50000000E-01  8.50000000E-01  8.50000000E-01
  8.50000000E-01  8.50000000E-01  8.50000000E-01  8.50000000E-01  8.50000000E-01
  8.50000000E-01  8.50000000E-01  8.50000000E-01  8.50000000E-01  8.50000000E-01
  8.50000000E-01  8.50000000E-01  8.50000000E-01  8.50000000E-01  8.50000000E-01
  8.50000000E-01  8.50000000E-01  8.50000000E-01  8.50000000E-01  8.50000000E-01
  8.50000000E-01  8.50000000E-01  8.50000000E-01  8.50000000E-01  8.50000000E-01
  8.50000000E-01  8.50000000E-01  8.50000000E-01  8.50000000E-01  8.50000000E-01
  8.50000000E-01  8.50000000E-01  8.50000000E-01  8.50000000E-01  8.50000000E-01
  8.50000000E-01  8.50000000E-01  8.50000000E-01  8.50000000E-01  8.50000000E-01
  8.50000000E-01  8.50000000E-01  8.50000000E-01  8.50000000E-01  8.50000000E-01
  8.50000000E-01  8.50000000E-01  8.50000000E-01  8.50000000E-01  8.50000000E-01
  8.50000000E-01  8.50000000E-01  8.50000000E-01  8.50000000E-01  8.50000000E-01
  8.50000000E-01  8.50000000E-01  8.50000000E-01  8.50000000E-01  8.50000000E-01
  8.50000000E-01  8.50000000E-01  8.50000000E-01  8.50000000E-01  8.50000000E-01
  8.50000000E-01  8.50000000E-01  8.50000000E-01  8.50000000E-01  8.50000000E-01
  8.50000000E-01  8.50000000E-01  8.50000000E-01  8.50000000E-01  8.50000000E-01
  8.50000000E-01  8.50000000E-01  8.50000000E-01  8.50000000E-01  8.50000000E-01
  8.50000000E-01  8.50000000E-01  8.50000000E-01  8.50000000E-01  8.50000000E-01
  8.50000000E-01  8.50000000E-01  8.50000000E-01  8.50000000E-01  8.50000000E-01
  8.50000000E-01  8.50000000E-01  8.50000000E-01  8.50000000E-01  8.50000000E-01
  8.50000000E-01  8.50000000E-01  8.50000000E-01  8.50000000E-01  8.50000000E-01
  8.50000000E-01  8.50000000E-01  8.50000000E-01  8.50000000E-01  8.50000000E-01
  8.50000000E-01  8.50000000E-01  8.50000000E-01  8.50000000E-01  8.50000000E-01
  8.50000000E-01  8.50000000E-01  8.50000000E-01  8.50000000E-01  8.50000000E-01
  8.50000000E-01  8.50000000E-01  8.50000000E-01  8.50000000E-01  8.50000000E-01
  8.50000000E-01  8.50000000E-01  8.50000000E-01  8.50000000E-01  8.50000000E-01
  8.50000000E-01  8.50000000E-01  8.50000000E-01  8.50000000E-01  8.50000000E-01
  8.50000000E-01  8.50000000E-01  8.50000000E-01  8.50000000E-01  8.50000000E-01
  8.50000000E-01  8.50000000E-01  8.50000000E-01  8.50000000E-01  8.50000000E-01
  8.50000000E-01  8.50000000E-01  8.50000000E-01  8.50000000E-01  8.50000000E-01
  8.50000000E-01  8.50000000E-01  8.50000000E-01  8.50000000E-01  8.50000000E-01
  8.50000000E-01  8.50000000E-01  8.50000000E-01  8.50000000E-01  8.50000000E-01
  8.50000000E-01  8.50000000E-01  8.50000000E-01  8.50000000E-01  8.50000000E-01
  8.50000000E-01  8.50000000E-01  8.50000000E-01  8.50000000E-01  8.50000000E-01
  8.50000000E-01  8.50000000E-01  8.50000000E-01  8.50000000E-01  8.50000000E-01
  8.50000000E-01  8.50000000E-01  8.50000000E-01  8.50000000E-01  8.50000000E-01
  8.50000000E-01  8.50000000E-01  8.50000000E-01  8.50000000E-01  8.50000000E-01
  8.50000000E-01  8.50000000E-01  8.50000000E-01  8.50000000E-01  8.50000000E-01
  8.50000000E-01  8.50000000E-01  8.50000000E-01  8.50000000E-01  8.50000000E-01
  8.50000000E-01  8.50000000E-01  8.50000000E-01  8.50000000E-01  8.50000000E-01
  8.50000000E-01  8.50000000E-01  8.50000000E-01  8.50000000E-01  8.50000000E-01
  8.50000000E-01  8.50000000E-01  8.50000000E-01  8.50000000E-01  8.50000000E-01
  8.50000000E-01  8.50000000E-01  8.50000000E-01  8.50000000E-01  8.50000000E-01
  8.50000000E-01  8.50000000E-01  8.50000000E-01  8.50000000E-01  8.50000000E-01
  8.50000000E-01  8.50000000E-01  8.50000000E-01  8.50000000E-01  8.50000000E-01
  8.50000000E-01  8.50000000E-01  8.50000000E-01  8.50000000E-01  8.50000000E-01
  8.50000000E-01  8.50000000E-01  8.50000000E-01  8.50000000E-01  8.50000000E-01
  8.50000000E-01  8.50000000E-01  8.50000000E-01  8.50000000E-01  8.50000000E-01
  8.50000000E-01  8.50000000E-01  8.50000000E-01  8.50000000E-01  8.50000000E-01
  8.50000000E-01  8.50000000E-01  8.50000000E-01  8.50000000E-01  8.50000000E-01
  8.50000000E-01  8.50000000E-01  8.50000000E-01  8.50000000E-01  8.50000000E-01
  8.50000000E-01  8.50000000E-01  8.50000000E-01  8.50000000E-01  8.50000000E-01
  8.50000000E-01  8.50000000E-01  8.50000000E-01  8.50000000E-01  8.50000000E-01
  8.50000000E-01  8.50000000E-01  8.50000000E-01  8.50000000E-01  8.50000000E-01
  8.50000000E-01  8.50000000E-01  8.50000000E-01  8.50000000E-01  8.50000000E-01
  8.50000000E-01  8.50000000E-01  8.50000000E-01  8.50000000E-01  8.50000000E-01
  8.50000000E-01  8.50000000E-01  8.50000000E-01  8.50000000E-01  8.50000000E-01
  8.50000000E-01  8.50000000E-01  8.50000000E-01  8.50000000E-01  8.50000000E-01
  8.50000000E-01  8.50000000E-01  8.50000000E-01  8.50000000E-01  8.50000000E-01
  8.50000000E-01  8.50000000E-01  8.50000000E-01  8.50000000E-01  8.50000000E-01
  8.50000000E-01  8.50000000E-01  8.50000000E-01  8.50000000E-01  8.50000000E-01
  8.50000000E-01  8.50000000E-01  8.50000000E-01  8.50000000E-01  8.50000000E-01
  8.50000000E-01  8.50000000E-01  8.50000000E-01  8.50000000E-01  8.50000000E-01
  8.50000000E-01  8.50000000E-01  8.50000000E-01  8.50000000E-01  8.50000000E-01
  8.50000000E-01  8.50000000E-01  8.50000000E-01  8.50000000E-01  8.50000000E-01
  8.50000000E-01  8.50000000E-01  8.50000000E-01  8.50000000E-01  8.50000000E-01
  8.50000000E-01  8.50000000E-01  8.50000000E-01  8.50000000E-01  8.50000000E-01
  8.50000000E-01  8.50000000E-01  8.50000000E-01  8.50000000E-01  8.50000000E-01
  8.50000000E-01  8.50000000E-01  8.50000000E-01  8.50000000E-01  8.50000000E-01
  8.50000000E-01  8.50000000E-01  8.50000000E-01  8.50000000E-01  8.50000000E-01
  8.50000000E-01  8.50000000E-01  8.50000000E-01  8.50000000E-01  8.50000000E-01
  8.50000000E-01  8.50000000E-01  8.50000000E-01  8.50000000E-01  8.50000000E-01
  8.50000000E-01  8.50000000E-01  8.50000000E-01  8.50000000E-01  8.50000000E-01
  8.50000000E-01  8.50000000E-01  8.50000000E-01  8.50000000E-01  8.50000000E-01
  8.50000000E-01  8.50000000E-01  8.50000000E-01  8.50000000E-01  8.50000000E-01
  8.50000000E-01  8.50000000E-01  8.50000000E-01  8.50000000E-01  8.50000000E-01
  8.50000000E-01  8.50000000E-01  8.50000000E-01  8.50000000E-01  8.50000000E-01
  8.50000000E-01  8.50000000E-01  8.50000000E-01  8.50000000E-01  8.50000000E-01
  8.50000000E-01  8.50000000E-01  8.50000000E-01  8.50000000E-01  8.50000000E-01
  8.50000000E-01  8.50000000E-01  8.50000000E-01  8.50000000E-01  8.50000000E-01
  8.50000000E-01  8.50000000E-01  8.50000000E-01  8.50000000E-01  8.50000000E-01
  8.50000000E-01  8.50000000E-01  8.50000000E-01  8.50000000E-01  8.50000000E-01
  8.50000000E-01  8.50000000E-01  8.50000000E-01  8.50000000E-01  8.50000000E-01
  8.50000000E-01  8.50000000E-01  8.50000000E-01  8.50000000E-01  8.50000000E-01
  8.50000000E-01  8.50000000E-01  8.50000000E-01  8.50000000E-01  8.50000000E-01
  8.50000000E-01  8.50000000E-01  8.50000000E-01  8.50000000E-01  8.50000000E-01
  8.50000000E-01  8.50000000E-01  8.50000000E-01  8.50000000E-01  8.50000000E-01
  8.50000000E-01  8.50000000E-01  8.50000000E-01  8.50000000E-01  8.50000000E-01
  8.50000000E-01  8.50000000E-01  8.50000000E-01  8.50000000E-01  8.50000000E-01
  8.50000000E-01  8.50000000E-01  8.50000000E-01  8.50000000E-01  8.50000000E-01
  8.50000000E-01  8.50000000E-01  8.50000000E-01  8.50000000E-01  8.50000000E-01
  8.50000000E-01  8.50000000E-01  8.50000000E-01  8.50000000E-01  8.50000000E-01
  8.50000000E-01  8.50000000E-01  8.50000000E-01  8.50000000E-01  8.50000000E-01
  8.50000000E-01  8.50000000E-01  8.50000000E-01  8.50000000E-01  8.50000000E-01
  8.50000000E-01  8.50000000E-01  8.50000000E-01  8.50000000E-01  8.50000000E-01
  8.50000000E-01  8.50000000E-01  8.50000000E-01  8.50000000E-01  8.50000000E-01
  8.50000000E-01  8.50000000E-01  8.50000000E-01  8.50000000E-01  8.50000000E-01
  8.50000000E-01  8.50000000E-01  8.50000000E-01  8.50000000E-01  8.50000000E-01
  8.50000000E-01  8.50000000E-01  8.50000000E-01  8.50000000E-01  8.50000000E-01
  8.50000000E-01  8.50000000E-01  8.50000000E-01  8.50000000E-01  8.50000000E-01
  8.50000000E-01  8.50000000E-01  8.50000000E-01  8.50000000E-01  8.50000000E-01
  8.50000000E-01  8.50000000E-01  8.50000000E-01  8.50000000E-01  8.50000000E-01
  8.50000000E-01  8.50000000E-01  8.50000000E-01  8.50000000E-01  8.50000000E-01
  8.50000000E-01  8.50000000E-01  8.50000000E-01  8.50000000E-01  8.50000000E-01
  8.50000000E-01  8.50000000E-01  8.50000000E-01  8.50000000E-01  8.50000000E-01
  8.50000000E-01  8.50000000E-01  8.50000000E-01  8.50000000E-01  8.50000000E-01
  8.50000000E-01  8.50000000E-01  8.50000000E-01  8.50000000E-01  8.50000000E-01
  8.50000000E-01  8.50000000E-01  8.50000000E-01  8.50000000E-01  8.50000000E-01
  8.50000000E-01  8.50000000E-01  8.50000000E-01  8.50000000E-01  8.50000000E-01
  8.50000000E-01  8.50000000E-01  8.50000000E-01  8.50000000E-01  8.50000000E-01
  8.50000000E-01  8.50000000E-01  8.50000000E-01  8.50000000E-01  8.50000000E-01
  8.50000000E-01  8.50000000E-01  8.50000000E-01  8.50000000E-01  8.50000000E-01
  8.50000000E-01  8.50000000E-01  8.50000000E-01  8.50000000E-01  8.50000000E-01
  8.50000000E-01  8.50000000E-01  8.50000000E-01  8.50000000E-01  8.50000000E-01
  8.50000000E-01  8.50000000E-01  8.50000000E-01  8.50000000E-01  8.50000000E-01
  8.50000000E-01  8.50000000E-01  8.50000000E-01  8.50000000E-01  8.50000000E-01
  8.50000000E-01  8.50000000E-01  8.50000000E-01  8.50000000E-01  8.50000000E-01
  8.50000000E-01  8.50000000E-01  8.50000000E-01  8.50000000E-01  8.50000000E-01
  8.50000000E-01  8.50000000E-01  8.50000000E-01  8.50000000E-01  8.50000000E-01
  8.50000000E-01  8.50000000E-01  8.50000000E-01  8.50000000E-01  8.50000000E-01
  8.50000000E-01  8.50000000E-01  8.50000000E-01  8.50000000E-01  8.50000000E-01
  8.50000000E-01  8.50000000E-01  8.50000000E-01  8.50000000E-01  8.50000000E-01
  8.50000000E-01  8.50000000E-01  8.50000000E-01  8.50000000E-01  8.50000000E-01
  8.50000000E-01  8.50000000E-01  8.50000000E-01  8.50000000E-01  8.50000000E-01
  8.50000000E-01  8.50000000E-01  8.50000000E-01  8.50000000E-01  8.50000000E-01
  8.50000000E-01  8.50000000E-01  8.50000000E-01  8.50000000E-01  8.50000000E-01
  8.50000000E-01  8.50000000E-01  8.50000000E-01  8.50000000E-01  8.50000000E-01
  8.50000000E-01  8.50000000E-01  8.50000000E-01  8.50000000E-01  8.50000000E-01
  8.50000000E-01  8.50000000E-01  8.50000000E-01  8.50000000E-01  8.50000000E-01
  8.50000000E-01  8.50000000E-01  8.50000000E-01  8.50000000E-01  8.50000000E-01
  8.50000000E-01  8.50000000E-01  8.50000000E-01  8.50000000E-01  8.50000000E-01
  8.50000000E-01  8.50000000E-01  8.50000000E-01  8.50000000E-01  8.50000000E-01
  8.50000000E-01  8.50000000E-01  8.50000000E-01  8.50000000E-01  8.50000000E-01
  8.50000000E-01  8.50000000E-01  8.50000000E-01  8.50000000E-01  8.50000000E-01
  8.50000000E-01  8.50000000E-01  8.50000000E-01  8.50000000E-01  8.50000000E-01
  8.50000000E-01  8.50000000E-01  8.50000000E-01  8.50000000E-01  8.50000000E-01
  8.50000000E-01  8.50000000E-01  8.50000000E-01  8.50000000E-01  8.50000000E-01
  8.50000000E-01  8.50000000E-01  8.50000000E-01  8.50000000E-01  8.50000000E-01
  8.50000000E-01  8.50000000E-01  8.50000000E-01  8.50000000E-01  8.50000000E-01
  8.50000000E-01  8.50000000E-01  8.50000000E-01  8.50000000E-01  8.50000000E-01
  8.50000000E-01  8.50000000E-01  8.50000000E-01  8.50000000E-01  8.50000000E-01
  8.50000000E-01  8.50000000E-01  8.50000000E-01  8.50000000E-01  8.50000000E-01
  8.50000000E-01  8.50000000E-01  8.50000000E-01  8.50000000E-01  8.50000000E-01
  8.50000000E-01  8.50000000E-01  8.50000000E-01  8.50000000E-01  8.50000000E-01
  8.50000000E-01  8.50000000E-01  8.50000000E-01  8.50000000E-01  8.50000000E-01
  8.50000000E-01  8.50000000E-01  8.50000000E-01  8.50000000E-01  8.50000000E-01
  8.50000000E-01  8.50000000E-01  8.50000000E-01  8.50000000E-01  8.50000000E-01
  8.50000000E-01  8.50000000E-01  8.50000000E-01  8.50000000E-01  8.50000000E-01
  8.50000000E-01  8.50000000E-01  8.50000000E-01  8.50000000E-01  8.50000000E-01
  8.50000000E-01  8.50000000E-01  8.50000000E-01  8.50000000E-01  8.50000000E-01
  8.50000000E-01  8.50000000E-01  8.50000000E-01  8.50000000E-01  8.50000000E-01
  8.50000000E-01  8.50000000E-01  8.50000000E-01  8.50000000E-01  8.50000000E-01
  8.50000000E-01  8.50000000E-01  8.50000000E-01  8.50000000E-01  8.50000000E-01
  8.50000000E-01  8.50000000E-01  8.50000000E-01  8.50000000E-01  8.50000000E-01
  8.50000000E-01  8.50000000E-01  8.50000000E-01  8.50000000E-01  8.50000000E-01
  8.50000000E-01  8.50000000E-01  8.50000000E-01  8.50000000E-01  8.50000000E-01
  8.50000000E-01  8.50000000E-01  8.50000000E-01  8.50000000E-01  8.50000000E-01
  8.50000000E-01  8.50000000E-01  8.50000000E-01  8.50000000E-01  8.50000000E-01
  8.50000000E-01  8.50000000E-01  8.50000000E-01  8.50000000E-01  8.50000000E-01
  8.50000000E-01  8.50000000E-01  8.50000000E-01  8.50000000E-01  8.50000000E-01
  8.50000000E-01  8.50000000E-01  8.50000000E-01  8.50000000E-01  8.50000000E-01
  8.50000000E-01  8.50000000E-01  8.50000000E-01  8.50000000E-01  8.50000000E-01
  8.50000000E-01  8.50000000E-01  8.50000000E-01  8.50000000E-01  8.50000000E-01
  8.50000000E-01  8.50000000E-01  8.50000000E-01  8.50000000E-01  8.50000000E-01
  8.50000000E-01  8.50000000E-01  8.50000000E-01  8.50000000E-01  8.50000000E-01
  8.50000000E-01  8.50000000E-01  8.50000000E-01  8.50000000E-01  8.50000000E-01
  8.50000000E-01  8.50000000E-01  8.50000000E-01  8.50000000E-01  8.50000000E-01
  8.50000000E-01  8.50000000E-01  8.50000000E-01  8.50000000E-01  8.50000000E-01
  8.50000000E-01  8.50000000E-01  8.50000000E-01  8.50000000E-01  8.50000000E-01
  8.50000000E-01  8.50000000E-01  8.50000000E-01  8.50000000E-01  8.50000000E-01
  8.50000000E-01  8.50000000E-01  8.50000000E-01  8.50000000E-01  8.50000000E-01
  8.50000000E-01  8.50000000E-01  8.50000000E-01  8.50000000E-01  8.50000000E-01
  8.50000000E-01  8.50000000E-01  8.50000000E-01  8.50000000E-01  8.50000000E-01
  8.50000000E-01  8.50000000E-01  8.50000000E-01  8.50000000E-01  8.50000000E-01
  8.50000000E-01  8.50000000E-01  8.50000000E-01  8.50000000E-01  8.50000000E-01
  8.50000000E-01  8.50000000E-01  8.50000000E-01  8.50000000E-01  8.50000000E-01
  8.50000000E-01  8.50000000E-01  8.50000000E-01  8.50000000E-01  8.50000000E-01
  8.50000000E-01  8.50000000E-01  8.50000000E-01  8.50000000E-01  8.50000000E-01
  8.50000000E-01  8.50000000E-01  8.50000000E-01  8.50000000E-01  8.50000000E-01
  8.50000000E-01  8.50000000E-01  8.50000000E-01  8.50000000E-01  8.50000000E-01
  8.50000000E-01  8.50000000E-01  8.50000000E-01  8.50000000E-01  8.50000000E-01
  8.50000000E-01  8.50000000E-01  8.50000000E-01  8.50000000E-01  8.50000000E-01
  8.50000000E-01  8.50000000E-01  8.50000000E-01  8.50000000E-01  8.50000000E-01
  8.50000000E-01  8.50000000E-01  8.50000000E-01  8.50000000E-01  8.50000000E-01
  8.50000000E-01  8.50000000E-01  8.50000000E-01  8.50000000E-01  8.50000000E-01
  8.50000000E-01  8.50000000E-01  8.50000000E-01  8.50000000E-01  8.50000000E-01
  8.50000000E-01  8.50000000E-01  8.50000000E-01  8.50000000E-01  8.50000000E-01
  8.50000000E-01  8.50000000E-01  8.50000000E-01  8.50000000E-01  8.50000000E-01
  8.50000000E-01  8.50000000E-01  8.50000000E-01  8.50000000E-01  8.50000000E-01
  8.50000000E-01  8.50000000E-01  8.50000000E-01  8.50000000E-01  8.50000000E-01
  8.50000000E-01  8.50000000E-01  8.50000000E-01  8.50000000E-01  8.50000000E-01
  8.50000000E-01  8.50000000E-01  8.50000000E-01  8.50000000E-01  8.50000000E-01
  8.50000000E-01  8.50000000E-01  8.50000000E-01  8.50000000E-01  8.50000000E-01
  8.50000000E-01  8.50000000E-01  8.50000000E-01  8.50000000E-01  8.50000000E-01
  8.50000000E-01  8.50000000E-01  8.50000000E-01  8.50000000E-01  8.50000000E-01
  8.50000000E-01  8.50000000E-01  8.50000000E-01  8.50000000E-01  8.50000000E-01
  8.50000000E-01  8.50000000E-01  8.50000000E-01  8.50000000E-01  8.50000000E-01
  8.50000000E-01  8.50000000E-01  8.50000000E-01  8.50000000E-01  8.50000000E-01
  8.50000000E-01  8.50000000E-01  8.50000000E-01  8.50000000E-01  8.50000000E-01
  8.50000000E-01  8.50000000E-01  8.50000000E-01  8.50000000E-01  8.50000000E-01
  8.50000000E-01  8.50000000E-01  8.50000000E-01  8.50000000E-01  8.50000000E-01
  8.50000000E-01  8.50000000E-01  8.50000000E-01  8.50000000E-01  8.50000000E-01
  8.50000000E-01  8.50000000E-01  8.50000000E-01  8.50000000E-01  8.50000000E-01
  8.50000000E-01  8.50000000E-01  8.50000000E-01  8.50000000E-01  8.50000000E-01
  8.50000000E-01  8.50000000E-01  8.50000000E-01  8.50000000E-01  8.50000000E-01
  8.50000000E-01  8.50000000E-01  8.50000000E-01  8.50000000E-01  8.50000000E-01
  8.50000000E-01  8.50000000E-01  8.50000000E-01  8.50000000E-01  8.50000000E-01
  8.50000000E-01  8.50000000E-01  8.50000000E-01  8.50000000E-01  8.50000000E-01
  8.50000000E-01  8.50000000E-01  8.50000000E-01  8.50000000E-01  8.50000000E-01
  8.50000000E-01  8.50000000E-01  8.50000000E-01  8.50000000E-01  8.50000000E-01
  8.50000000E-01  8.50000000E-01  8.50000000E-01  8.50000000E-01  8.50000000E-01
  8.50000000E-01  8.50000000E-01  8.50000000E-01  8.50000000E-01  8.50000000E-01
  8.50000000E-01  8.50000000E-01  8.50000000E-01  8.50000000E-01  8.50000000E-01
  8.50000000E-01  8.50000000E-01  8.50000000E-01  8.50000000E-01  8.50000000E-01
  8.50000000E-01  8.50000000E-01  8.50000000E-01  8.50000000E-01  8.50000000E-01
  8.50000000E-01  8.50000000E-01  8.50000000E-01  8.50000000E-01  8.50000000E-01
  8.50000000E-01  8.50000000E-01  8.50000000E-01  8.50000000E-01  8.50000000E-01
  8.50000000E-01  8.50000000E-01  8.50000000E-01  8.50000000E-01  8.50000000E-01
  8.50000000E-01  8.50000000E-01  8.50000000E-01  8.50000000E-01  8.50000000E-01
  8.50000000E-01  8.50000000E-01  8.50000000E-01  8.50000000E-01  8.50000000E-01
  8.50000000E-01  8.50000000E-01  8.50000000E-01  8.50000000E-01  8.50000000E-01
  8.50000000E-01  8.50000000E-01  8.50000000E-01  8.50000000E-01  8.50000000E-01
  8.50000000E-01  8.50000000E-01  8.50000000E-01  8.50000000E-01  8.50000000E-01
  8.50000000E-01  8.50000000E-01  8.50000000E-01  8.50000000E-01  8.50000000E-01
  8.50000000E-01  8.50000000E-01  8.50000000E-01  8.50000000E-01  8.50000000E-01
  8.50000000E-01  8.50000000E-01  8.50000000E-01  8.50000000E-01  8.50000000E-01
  8.50000000E-01  8.50000000E-01  8.50000000E-01  8.50000000E-01  8.50000000E-01
  8.50000000E-01  8.50000000E-01  8.50000000E-01  8.50000000E-01  8.50000000E-01
  8.50000000E-01  8.50000000E-01  8.50000000E-01  8.50000000E-01  8.50000000E-01
  8.50000000E-01  8.50000000E-01  8.50000000E-01  8.50000000E-01  8.50000000E-01
  8.50000000E-01  8.50000000E-01  8.50000000E-01  8.50000000E-01  8.50000000E-01
  8.50000000E-01  8.50000000E-01  8.50000000E-01  8.50000000E-01  8.50000000E-01
  8.50000000E-01  8.50000000E-01  8.50000000E-01  8.50000000E-01  8.50000000E-01
  8.50000000E-01  8.50000000E-01  8.50000000E-01  8.50000000E-01  8.50000000E-01
  8.50000000E-01  8.50000000E-01  8.50000000E-01  8.50000000E-01  8.50000000E-01
  8.50000000E-01  8.50000000E-01  8.50000000E-01  8.50000000E-01  8.50000000E-01
  8.50000000E-01  8.50000000E-01  8.50000000E-01  8.50000000E-01  8.50000000E-01
  8.50000000E-01  8.50000000E-01  8.50000000E-01  8.50000000E-01  8.50000000E-01
  8.50000000E-01  8.50000000E-01  8.50000000E-01  8.50000000E-01  8.50000000E-01
  8.50000000E-01  8.50000000E-01  8.50000000E-01  8.50000000E-01  8.50000000E-01
  8.50000000E-01  8.50000000E-01  8.50000000E-01  8.50000000E-01  8.50000000E-01
  8.50000000E-01  8.50000000E-01  8.50000000E-01  8.50000000E-01  8.50000000E-01
  8.50000000E-01  8.50000000E-01  8.50000000E-01  8.50000000E-01  8.50000000E-01
  8.50000000E-01  8.50000000E-01  8.50000000E-01  8.50000000E-01  8.50000000E-01
  8.50000000E-01  8.50000000E-01  8.50000000E-01  8.50000000E-01  8.50000000E-01
  8.50000000E-01  8.50000000E-01  8.50000000E-01  8.50000000E-01  8.50000000E-01
  8.50000000E-01  8.50000000E-01  8.50000000E-01  8.50000000E-01  8.50000000E-01
  8.50000000E-01  8.50000000E-01  8.50000000E-01  8.50000000E-01  8.50000000E-01
  8.50000000E-01  8.50000000E-01  8.50000000E-01  8.50000000E-01  8.50000000E-01
  8.50000000E-01  8.50000000E-01  8.50000000E-01  8.50000000E-01  8.50000000E-01
  8.50000000E-01  8.50000000E-01  8.50000000E-01  8.50000000E-01  8.50000000E-01
  8.50000000E-01  8.50000000E-01  8.50000000E-01  8.50000000E-01  8.50000000E-01
  8.50000000E-01  8.50000000E-01  8.50000000E-01  8.50000000E-01  8.50000000E-01
  8.50000000E-01  8.50000000E-01  8.50000000E-01  8.50000000E-01  8.50000000E-01
  8.50000000E-01  8.50000000E-01  8.50000000E-01  8.50000000E-01  8.50000000E-01
  8.50000000E-01  8.50000000E-01  8.50000000E-01  8.50000000E-01  8.50000000E-01
  8.50000000E-01  8.50000000E-01  8.50000000E-01  8.50000000E-01  8.50000000E-01
  8.50000000E-01  8.50000000E-01  8.50000000E-01  8.50000000E-01  8.50000000E-01
  8.50000000E-01  8.50000000E-01  8.50000000E-01  8.50000000E-01  8.50000000E-01
  8.50000000E-01  8.50000000E-01  8.50000000E-01  8.50000000E-01  8.50000000E-01
  8.50000000E-01  8.50000000E-01  8.50000000E-01  8.50000000E-01  8.50000000E-01
  8.50000000E-01  8.50000000E-01  8.50000000E-01  8.50000000E-01  8.50000000E-01
  8.50000000E-01  8.50000000E-01  8.50000000E-01  8.50000000E-01  8.50000000E-01
  8.50000000E-01  8.50000000E-01  8.50000000E-01  8.50000000E-01  8.50000000E-01
  8.50000000E-01  8.50000000E-01  8.50000000E-01  8.50000000E-01  8.50000000E-01
  8.50000000E-01  8.50000000E-01  8.50000000E-01  8.50000000E-01  8.50000000E-01
  8.50000000E-01  8.50000000E-01  8.50000000E-01  8.50000000E-01  8.50000000E-01
  8.50000000E-01  8.50000000E-01  8.50000000E-01  8.50000000E-01  8.50000000E-01
  8.50000000E-01  8.50000000E-01  8.50000000E-01  8.50000000E-01  8.50000000E-01
  8.50000000E-01  8.50000000E-01  8.50000000E-01  8.50000000E-01  8.50000000E-01
  8.50000000E-01  8.50000000E-01  8.50000000E-01  8.50000000E-01  8.50000000E-01
  8.50000000E-01  8.50000000E-01  8.50000000E-01  8.50000000E-01  8.50000000E-01
  8.50000000E-01  8.50000000E-01  8.50000000E-01  8.50000000E-01  8.50000000E-01
  8.50000000E-01  8.50000000E-01  8.50000000E-01  8.50000000E-01  8.50000000E-01
  8.50000000E-01  8.50000000E-01  8.50000000E-01  8.50000000E-01  8.50000000E-01
  8.50000000E-01  8.50000000E-01  8.50000000E-01  8.50000000E-01  8.50000000E-01
  8.50000000E-01  8.50000000E-01  8.50000000E-01  8.50000000E-01  8.50000000E-01
  8.50000000E-01  8.50000000E-01  8.50000000E-01  8.50000000E-01  8.50000000E-01
  8.50000000E-01  8.50000000E-01  8.50000000E-01  8.50000000E-01  8.50000000E-01
  8.50000000E-01  8.50000000E-01  8.50000000E-01  8.50000000E-01  8.50000000E-01
  8.50000000E-01  8.50000000E-01  8.50000000E-01  8.50000000E-01  8.50000000E-01
  8.50000000E-01  8.50000000E-01  8.50000000E-01  8.50000000E-01  8.50000000E-01
  8.50000000E-01  8.50000000E-01  8.50000000E-01  8.50000000E-01  8.50000000E-01
  8.50000000E-01  8.50000000E-01  8.50000000E-01  8.50000000E-01  8.50000000E-01
  8.50000000E-01  8.50000000E-01  8.50000000E-01  8.50000000E-01  8.50000000E-01
  8.50000000E-01  8.50000000E-01  8.50000000E-01  8.50000000E-01  8.50000000E-01
  8.50000000E-01  8.50000000E-01  8.50000000E-01  8.50000000E-01  8.50000000E-01
  8.50000000E-01  8.50000000E-01  8.50000000E-01  8.50000000E-01  8.50000000E-01
  8.50000000E-01  8.50000000E-01  8.50000000E-01  8.50000000E-01  8.50000000E-01
  8.50000000E-01  8.50000000E-01  8.50000000E-01  8.50000000E-01  8.50000000E-01
  8.50000000E-01  8.50000000E-01  8.50000000E-01  8.50000000E-01  8.50000000E-01
  8.50000000E-01  8.50000000E-01  8.50000000E-01  8.50000000E-01  8.50000000E-01
  8.50000000E-01  8.50000000E-01  8.50000000E-01  8.50000000E-01  8.50000000E-01
  8.50000000E-01  8.50000000E-01  8.50000000E-01  8.50000000E-01  8.50000000E-01
  8.50000000E-01  8.50000000E-01  8.50000000E-01  8.50000000E-01  8.50000000E-01
  8.50000000E-01  8.50000000E-01  8.50000000E-01  8.50000000E-01  8.50000000E-01
  8.50000000E-01  8.50000000E-01  8.50000000E-01  8.50000000E-01  8.50000000E-01
  8.50000000E-01  8.50000000E-01  8.50000000E-01  8.50000000E-01  8.50000000E-01
  8.50000000E-01  8.50000000E-01  8.50000000E-01  8.50000000E-01  8.50000000E-01
  8.50000000E-01  8.50000000E-01  8.50000000E-01  8.50000000E-01  8.50000000E-01
  8.50000000E-01  8.50000000E-01  8.50000000E-01  8.50000000E-01  8.50000000E-01
  8.50000000E-01  8.50000000E-01  8.50000000E-01  8.50000000E-01  8.50000000E-01
  8.50000000E-01  8.50000000E-01  8.50000000E-01  8.50000000E-01  8.50000000E-01
  8.50000000E-01  8.50000000E-01  8.50000000E-01  8.50000000E-01  8.50000000E-01
  8.50000000E-01  8.50000000E-01  8.50000000E-01  8.50000000E-01  8.50000000E-01
  8.50000000E-01  8.50000000E-01  8.50000000E-01  8.50000000E-01  8.50000000E-01
  8.50000000E-01  8.50000000E-01  8.50000000E-01  8.50000000E-01  8.50000000E-01
  8.50000000E-01  8.50000000E-01  8.50000000E-01  8.50000000E-01  8.50000000E-01
  8.50000000E-01  8.50000000E-01  8.50000000E-01  8.50000000E-01  8.50000000E-01
  8.50000000E-01  8.50000000E-01  8.50000000E-01  8.50000000E-01  8.50000000E-01
  8.50000000E-01  8.50000000E-01  8.50000000E-01  8.50000000E-01  8.50000000E-01
  8.50000000E-01  8.50000000E-01  8.50000000E-01  8.50000000E-01  8.50000000E-01
  8.50000000E-01  8.50000000E-01  8.50000000E-01  8.50000000E-01  8.50000000E-01
  8.50000000E-01  8.50000000E-01  8.50000000E-01  8.50000000E-01  8.50000000E-01
  8.50000000E-01  8.50000000E-01  8.50000000E-01  8.50000000E-01  8.50000000E-01
  8.50000000E-01  8.50000000E-01  8.50000000E-01  8.50000000E-01  8.50000000E-01
  8.50000000E-01  8.50000000E-01  8.50000000E-01  8.50000000E-01  8.50000000E-01
  8.50000000E-01  8.50000000E-01  8.50000000E-01  8.50000000E-01  8.50000000E-01
  8.50000000E-01  8.50000000E-01  8.50000000E-01  8.50000000E-01  8.50000000E-01
  8.50000000E-01  8.50000000E-01  8.50000000E-01  8.50000000E-01  8.50000000E-01
  8.50000000E-01  8.50000000E-01  8.50000000E-01  8.50000000E-01  8.50000000E-01
  8.50000000E-01  8.50000000E-01  8.50000000E-01  8.50000000E-01  8.50000000E-01
  8.50000000E-01  8.50000000E-01  8.50000000E-01  8.50000000E-01  8.50000000E-01
  8.50000000E-01  8.50000000E-01  8.50000000E-01  8.50000000E-01  8.50000000E-01
  8.50000000E-01  8.50000000E-01  8.50000000E-01  8.50000000E-01  8.50000000E-01
  8.50000000E-01  8.50000000E-01  8.50000000E-01  8.50000000E-01  8.50000000E-01
  8.50000000E-01  8.50000000E-01  8.50000000E-01  8.50000000E-01  8.50000000E-01
  8.50000000E-01  8.50000000E-01  8.50000000E-01  8.50000000E-01  8.50000000E-01
  8.50000000E-01  8.50000000E-01  8.50000000E-01  8.50000000E-01  8.50000000E-01
  8.50000000E-01  8.50000000E-01  8.50000000E-01  8.50000000E-01  8.50000000E-01
  8.50000000E-01  8.50000000E-01  8.50000000E-01  8.50000000E-01  8.50000000E-01
  8.50000000E-01  8.50000000E-01  8.50000000E-01  8.50000000E-01  8.50000000E-01
  8.50000000E-01  8.50000000E-01  8.50000000E-01  8.50000000E-01  8.50000000E-01
  8.50000000E-01  8.50000000E-01  8.50000000E-01  8.50000000E-01  8.50000000E-01
  8.50000000E-01  8.50000000E-01  8.50000000E-01  8.50000000E-01  8.50000000E-01
  8.50000000E-01  8.50000000E-01  8.50000000E-01  8.50000000E-01  8.50000000E-01
  8.50000000E-01  8.50000000E-01  8.50000000E-01  8.50000000E-01  8.50000000E-01
  8.50000000E-01  8.50000000E-01  8.50000000E-01  8.50000000E-01  8.50000000E-01
  8.50000000E-01  8.50000000E-01  8.50000000E-01  8.50000000E-01  8.50000000E-01
  8.50000000E-01  8.50000000E-01  8.50000000E-01  8.50000000E-01  8.50000000E-01
  8.50000000E-01  8.50000000E-01  8.50000000E-01  8.50000000E-01  8.50000000E-01
  8.50000000E-01  8.50000000E-01  8.50000000E-01  8.50000000E-01  8.50000000E-01
  8.50000000E-01  8.50000000E-01  8.50000000E-01  8.50000000E-01  8.50000000E-01
  8.50000000E-01  8.50000000E-01  8.50000000E-01  8.50000000E-01  8.50000000E-01
  8.50000000E-01  8.50000000E-01  8.50000000E-01  8.50000000E-01  8.50000000E-01
  8.50000000E-01  8.50000000E-01  8.50000000E-01  8.50000000E-01  8.50000000E-01
  8.50000000E-01  8.50000000E-01  8.50000000E-01  8.50000000E-01  8.50000000E-01
  8.50000000E-01  8.50000000E-01  8.50000000E-01  8.50000000E-01  8.50000000E-01
  8.50000000E-01  8.50000000E-01  8.50000000E-01  8.50000000E-01  8.50000000E-01
  8.50000000E-01  8.50000000E-01  8.50000000E-01  8.50000000E-01  8.50000000E-01
  8.50000000E-01  8.50000000E-01  8.50000000E-01  8.50000000E-01  8.50000000E-01
  8.50000000E-01  8.50000000E-01  8.50000000E-01  8.50000000E-01  8.50000000E-01
  8.50000000E-01  8.50000000E-01  8.50000000E-01  8.50000000E-01  8.50000000E-01
  8.50000000E-01  8.50000000E-01  8.50000000E-01  8.50000000E-01  8.50000000E-01
  8.50000000E-01  8.50000000E-01  8.50000000E-01  8.50000000E-01  8.50000000E-01
  8.50000000E-01  8.50000000E-01  8.50000000E-01  8.50000000E-01  8.50000000E-01
  8.50000000E-01  8.50000000E-01  8.50000000E-01  8.50000000E-01  8.50000000E-01
  8.50000000E-01  8.50000000E-01  8.50000000E-01  8.50000000E-01  8.50000000E-01
  8.50000000E-01  8.50000000E-01  8.50000000E-01  8.50000000E-01  8.50000000E-01
  8.50000000E-01  8.50000000E-01  8.50000000E-01  8.50000000E-01  8.50000000E-01
  8.50000000E-01  8.50000000E-01  8.50000000E-01  8.50000000E-01  8.50000000E-01
  8.50000000E-01  8.50000000E-01  8.50000000E-01  8.50000000E-01  8.50000000E-01
  8.50000000E-01  8.50000000E-01  8.50000000E-01  8.50000000E-01  8.50000000E-01
  8.50000000E-01  8.50000000E-01  8.50000000E-01  8.50000000E-01  8.50000000E-01
  8.50000000E-01  8.50000000E-01  8.50000000E-01  8.50000000E-01  8.50000000E-01
  8.50000000E-01  8.50000000E-01  8.50000000E-01  8.50000000E-01  8.50000000E-01
  8.50000000E-01  8.50000000E-01  8.50000000E-01  8.50000000E-01  8.50000000E-01
  8.50000000E-01  8.50000000E-01  8.50000000E-01  8.50000000E-01  8.50000000E-01
  8.50000000E-01  8.50000000E-01  8.50000000E-01  8.50000000E-01  8.50000000E-01
  8.50000000E-01  8.50000000E-01  8.50000000E-01  8.50000000E-01  8.50000000E-01
  8.50000000E-01  8.50000000E-01  8.50000000E-01  8.50000000E-01  8.50000000E-01
  8.50000000E-01  8.50000000E-01  8.50000000E-01  8.50000000E-01  8.50000000E-01
  8.50000000E-01  8.50000000E-01  8.50000000E-01  8.50000000E-01  8.50000000E-01
  8.50000000E-01  8.50000000E-01  8.50000000E-01  8.50000000E-01  8.50000000E-01
  8.50000000E-01  8.50000000E-01  8.50000000E-01  8.50000000E-01  8.50000000E-01
  8.50000000E-01  8.50000000E-01  8.50000000E-01  8.50000000E-01  8.50000000E-01
  8.50000000E-01  8.50000000E-01  8.50000000E-01  8.50000000E-01  8.50000000E-01
  8.50000000E-01  8.50000000E-01  8.50000000E-01  8.50000000E-01  8.50000000E-01
  8.50000000E-01  8.50000000E-01  8.50000000E-01  8.50000000E-01  8.50000000E-01
  8.50000000E-01  8.50000000E-01  8.50000000E-01  8.50000000E-01  8.50000000E-01
  8.50000000E-01  8.50000000E-01  8.50000000E-01  8.50000000E-01  8.50000000E-01
  8.50000000E-01  8.50000000E-01  8.50000000E-01  8.50000000E-01  8.50000000E-01
  8.50000000E-01  8.50000000E-01  8.50000000E-01  8.50000000E-01  8.50000000E-01
  8.50000000E-01  8.50000000E-01  8.50000000E-01  8.50000000E-01  8.50000000E-01
  8.50000000E-01  8.50000000E-01  8.50000000E-01  8.50000000E-01  8.50000000E-01
  8.50000000E-01  8.50000000E-01  8.50000000E-01  8.50000000E-01  8.50000000E-01
  8.50000000E-01  8.50000000E-01  8.50000000E-01  8.50000000E-01  8.50000000E-01
  8.50000000E-01  8.50000000E-01  8.50000000E-01  8.50000000E-01  8.50000000E-01
  8.50000000E-01  8.50000000E-01  8.50000000E-01  8.50000000E-01  8.50000000E-01
  8.50000000E-01  8.50000000E-01  8.50000000E-01  8.50000000E-01  8.50000000E-01
  8.50000000E-01  8.50000000E-01  8.50000000E-01  8.50000000E-01  8.50000000E-01
  8.50000000E-01  8.50000000E-01  8.50000000E-01  8.50000000E-01  8.50000000E-01
  8.50000000E-01  8.50000000E-01  8.50000000E-01  8.50000000E-01  8.50000000E-01
  8.50000000E-01  8.50000000E-01  8.50000000E-01  8.50000000E-01  8.50000000E-01
  8.50000000E-01  8.50000000E-01  8.50000000E-01  8.50000000E-01  8.50000000E-01
  8.50000000E-01  8.50000000E-01  8.50000000E-01  8.50000000E-01  8.50000000E-01
  8.50000000E-01  8.50000000E-01  8.50000000E-01  8.50000000E-01  8.50000000E-01
  8.50000000E-01  8.50000000E-01  8.50000000E-01  8.50000000E-01  8.50000000E-01
  8.50000000E-01  8.50000000E-01  8.50000000E-01  8.50000000E-01  8.50000000E-01
  8.50000000E-01  8.50000000E-01  8.50000000E-01  8.50000000E-01  8.50000000E-01
  8.50000000E-01  8.50000000E-01  8.50000000E-01  8.50000000E-01  8.50000000E-01
  8.50000000E-01  8.50000000E-01  8.50000000E-01  8.50000000E-01  8.50000000E-01
  8.50000000E-01  8.50000000E-01  8.50000000E-01  8.50000000E-01  8.50000000E-01
  8.50000000E-01  8.50000000E-01  8.50000000E-01  8.50000000E-01  8.50000000E-01
  8.50000000E-01  8.50000000E-01  8.50000000E-01  8.50000000E-01  8.50000000E-01
  8.50000000E-01  8.50000000E-01  8.50000000E-01  8.50000000E-01  8.50000000E-01
  8.50000000E-01  8.50000000E-01  8.50000000E-01  8.50000000E-01  8.50000000E-01
  8.50000000E-01  8.50000000E-01  8.50000000E-01  8.50000000E-01  8.50000000E-01
  8.50000000E-01  8.50000000E-01  8.50000000E-01  8.50000000E-01  8.50000000E-01
  8.50000000E-01  8.50000000E-01  8.50000000E-01  8.50000000E-01  8.50000000E-01
  8.50000000E-01  8.50000000E-01  8.50000000E-01  8.50000000E-01  8.50000000E-01
  8.50000000E-01  8.50000000E-01  8.50000000E-01  8.50000000E-01  8.50000000E-01
  8.50000000E-01  8.50000000E-01  8.50000000E-01  8.50000000E-01  8.50000000E-01
  8.50000000E-01  8.50000000E-01  8.50000000E-01  8.50000000E-01  8.50000000E-01
  8.50000000E-01  8.50000000E-01  8.50000000E-01  8.50000000E-01  8.50000000E-01
  8.50000000E-01  8.50000000E-01  8.50000000E-01  8.50000000E-01  8.50000000E-01
  8.50000000E-01  8.50000000E-01  8.50000000E-01  8.50000000E-01  8.50000000E-01
  8.50000000E-01  8.50000000E-01  8.50000000E-01  8.50000000E-01  8.50000000E-01
  8.50000000E-01  8.50000000E-01  8.50000000E-01  8.50000000E-01  8.50000000E-01
  8.50000000E-01  8.50000000E-01  8.50000000E-01  8.50000000E-01  8.50000000E-01
  8.50000000E-01  8.50000000E-01  8.50000000E-01  8.50000000E-01  8.50000000E-01
  8.50000000E-01  8.50000000E-01  8.50000000E-01  8.50000000E-01  8.50000000E-01
  8.50000000E-01  8.50000000E-01  8.50000000E-01  8.50000000E-01  8.50000000E-01
  8.50000000E-01  8.50000000E-01  8.50000000E-01  8.50000000E-01  8.50000000E-01
  8.50000000E-01  8.50000000E-01  8.50000000E-01  8.50000000E-01  8.50000000E-01
  8.50000000E-01  8.50000000E-01  8.50000000E-01  8.50000000E-01  8.50000000E-01
  8.50000000E-01  8.50000000E-01  8.50000000E-01  8.50000000E-01  8.50000000E-01
  8.50000000E-01  8.50000000E-01  8.50000000E-01  8.50000000E-01  8.50000000E-01
  8.50000000E-01  8.50000000E-01  8.50000000E-01  8.50000000E-01  8.50000000E-01
  8.50000000E-01  8.50000000E-01  8.50000000E-01  8.50000000E-01  8.50000000E-01
  8.50000000E-01  8.50000000E-01  8.50000000E-01  8.50000000E-01  8.50000000E-01
  8.50000000E-01  8.50000000E-01  8.50000000E-01  8.50000000E-01  8.50000000E-01
  8.50000000E-01  8.50000000E-01  8.50000000E-01  8.50000000E-01  8.50000000E-01
  8.50000000E-01  8.50000000E-01  8.50000000E-01  8.50000000E-01  8.50000000E-01
  8.50000000E-01  8.50000000E-01  8.50000000E-01  8.50000000E-01  8.50000000E-01
  8.50000000E-01  8.50000000E-01  8.50000000E-01  8.50000000E-01  8.50000000E-01
  8.50000000E-01  8.50000000E-01  8.50000000E-01  8.50000000E-01  8.50000000E-01
  8.50000000E-01  8.50000000E-01  8.50000000E-01  8.50000000E-01  8.50000000E-01
  8.50000000E-01  8.50000000E-01  8.50000000E-01  8.50000000E-01  8.50000000E-01
  8.50000000E-01  8.50000000E-01  8.50000000E-01  8.50000000E-01  8.50000000E-01
  8.50000000E-01  8.50000000E-01  8.50000000E-01  8.50000000E-01  8.50000000E-01
  8.50000000E-01  8.50000000E-01  8.50000000E-01  8.50000000E-01  8.50000000E-01
  8.50000000E-01  8.50000000E-01  8.50000000E-01  8.50000000E-01  8.50000000E-01
  8.50000000E-01  8.50000000E-01  8.50000000E-01  8.50000000E-01  8.50000000E-01
  8.50000000E-01  8.50000000E-01  8.50000000E-01  8.50000000E-01  8.50000000E-01
  8.50000000E-01  8.50000000E-01  8.50000000E-01  8.50000000E-01  8.50000000E-01
  8.50000000E-01  8.50000000E-01  8.50000000E-01  8.50000000E-01  8.50000000E-01
  8.50000000E-01  8.50000000E-01  8.50000000E-01  8.50000000E-01  8.50000000E-01
  8.50000000E-01  8.50000000E-01  8.50000000E-01  8.50000000E-01  8.50000000E-01
  8.50000000E-01  8.50000000E-01  8.50000000E-01  8.50000000E-01  8.50000000E-01
  8.50000000E-01  8.50000000E-01  8.50000000E-01  8.50000000E-01  8.50000000E-01
  8.50000000E-01  8.50000000E-01  8.50000000E-01  8.50000000E-01  8.50000000E-01
  8.50000000E-01  8.50000000E-01  8.50000000E-01  8.50000000E-01  8.50000000E-01
  8.50000000E-01  8.50000000E-01  8.50000000E-01  8.50000000E-01  8.50000000E-01
  8.50000000E-01  8.50000000E-01  8.50000000E-01  8.50000000E-01  8.50000000E-01
  8.50000000E-01  8.50000000E-01  8.50000000E-01  8.50000000E-01  8.50000000E-01
  8.50000000E-01  8.50000000E-01  8.50000000E-01  8.50000000E-01  8.50000000E-01
  8.50000000E-01  8.50000000E-01  8.50000000E-01  8.50000000E-01  8.50000000E-01
  8.50000000E-01  8.50000000E-01  8.50000000E-01  8.50000000E-01  8.50000000E-01
  8.50000000E-01  8.50000000E-01  8.50000000E-01  8.50000000E-01  8.50000000E-01
  8.50000000E-01  8.50000000E-01  8.50000000E-01  8.50000000E-01  8.50000000E-01
  8.50000000E-01  8.50000000E-01  8.50000000E-01  8.50000000E-01  8.50000000E-01
  8.50000000E-01  8.50000000E-01  8.50000000E-01  8.50000000E-01  8.50000000E-01
  8.50000000E-01  8.50000000E-01  8.50000000E-01  8.50000000E-01  8.50000000E-01
  8.50000000E-01  8.50000000E-01  8.50000000E-01  8.50000000E-01  8.50000000E-01
  8.50000000E-01  8.50000000E-01  8.50000000E-01  8.50000000E-01  8.50000000E-01
  8.50000000E-01  8.50000000E-01  8.50000000E-01  8.50000000E-01  8.50000000E-01
  8.50000000E-01  8.50000000E-01  8.50000000E-01  8.50000000E-01  8.50000000E-01
  8.50000000E-01  8.50000000E-01  8.50000000E-01  8.50000000E-01  8.50000000E-01
  8.50000000E-01  8.50000000E-01  8.50000000E-01  8.50000000E-01  8.50000000E-01
  8.50000000E-01  8.50000000E-01  8.50000000E-01  8.50000000E-01  8.50000000E-01
  8.50000000E-01  8.50000000E-01  8.50000000E-01  8.50000000E-01  8.50000000E-01
  8.50000000E-01  8.50000000E-01  8.50000000E-01  8.50000000E-01  8.50000000E-01
  8.50000000E-01  8.50000000E-01  8.50000000E-01  8.50000000E-01  8.50000000E-01
  8.50000000E-01  8.50000000E-01  8.50000000E-01  8.50000000E-01  8.50000000E-01
  8.50000000E-01  8.50000000E-01  8.50000000E-01  8.50000000E-01  8.50000000E-01
  8.50000000E-01  8.50000000E-01  8.50000000E-01  8.50000000E-01  8.50000000E-01
  8.50000000E-01  8.50000000E-01  8.50000000E-01  8.50000000E-01  8.50000000E-01
  8.50000000E-01  8.50000000E-01  8.50000000E-01  8.50000000E-01  8.50000000E-01
  8.50000000E-01  8.50000000E-01  8.50000000E-01  8.50000000E-01  8.50000000E-01
  8.50000000E-01  8.50000000E-01  8.50000000E-01  8.50000000E-01  8.50000000E-01
  8.50000000E-01  8.50000000E-01  8.50000000E-01  8.50000000E-01  8.50000000E-01
  8.50000000E-01  8.50000000E-01  8.50000000E-01  8.50000000E-01  8.50000000E-01
  8.50000000E-01  8.50000000E-01  8.50000000E-01  8.50000000E-01  8.50000000E-01
  8.50000000E-01  8.50000000E-01  8.50000000E-01  8.50000000E-01  8.50000000E-01
  8.50000000E-01  8.50000000E-01  8.50000000E-01  8.50000000E-01  8.50000000E-01
  8.50000000E-01  8.50000000E-01  8.50000000E-01  8.50000000E-01  8.50000000E-01
  8.50000000E-01  8.50000000E-01  8.50000000E-01  8.50000000E-01  8.50000000E-01
  8.50000000E-01  8.50000000E-01  8.50000000E-01  8.50000000E-01  8.50000000E-01
  8.50000000E-01  8.50000000E-01  8.50000000E-01  8.50000000E-01  8.50000000E-01
  8.50000000E-01  8.50000000E-01  8.50000000E-01  8.50000000E-01  8.50000000E-01
  8.50000000E-01  8.50000000E-01  8.50000000E-01  8.50000000E-01  8.50000000E-01
  8.50000000E-01  8.50000000E-01  8.50000000E-01  8.50000000E-01  8.50000000E-01
  8.50000000E-01  8.50000000E-01  8.50000000E-01  8.50000000E-01  8.50000000E-01
  8.50000000E-01  8.50000000E-01  8.50000000E-01  8.50000000E-01  8.50000000E-01
  8.50000000E-01  8.50000000E-01  8.50000000E-01  8.50000000E-01  8.50000000E-01
  8.50000000E-01  8.50000000E-01  8.50000000E-01  8.50000000E-01  8.50000000E-01
  8.50000000E-01  8.50000000E-01  8.50000000E-01  8.50000000E-01  8.50000000E-01
  8.50000000E-01  8.50000000E-01  8.50000000E-01  8.50000000E-01  8.50000000E-01
  8.50000000E-01  8.50000000E-01  8.50000000E-01  8.50000000E-01  8.50000000E-01
  8.50000000E-01  8.50000000E-01  8.50000000E-01  8.50000000E-01  8.50000000E-01
  8.50000000E-01  8.50000000E-01  8.50000000E-01  8.50000000E-01  8.50000000E-01
  8.50000000E-01  8.50000000E-01  8.50000000E-01  8.50000000E-01  8.50000000E-01
  8.50000000E-01  8.50000000E-01  8.50000000E-01  8.50000000E-01  8.50000000E-01
  8.50000000E-01  8.50000000E-01  8.50000000E-01  8.50000000E-01  8.50000000E-01
  8.50000000E-01  8.50000000E-01  8.50000000E-01  8.50000000E-01  8.50000000E-01
  8.50000000E-01  8.50000000E-01  8.50000000E-01  8.50000000E-01  8.50000000E-01
  8.50000000E-01  8.50000000E-01  8.50000000E-01  8.50000000E-01  8.50000000E-01
  8.50000000E-01  8.50000000E-01  8.50000000E-01  8.50000000E-01  8.50000000E-01
  8.50000000E-01  8.50000000E-01  8.50000000E-01  8.50000000E-01  8.50000000E-01
  8.50000000E-01  8.50000000E-01  8.50000000E-01  8.50000000E-01  8.50000000E-01
  8.50000000E-01  8.50000000E-01  8.50000000E-01  8.50000000E-01  8.50000000E-01
  8.50000000E-01  8.50000000E-01  8.50000000E-01  8.50000000E-01  8.50000000E-01
  8.50000000E-01  8.50000000E-01  8.50000000E-01  8.50000000E-01  8.50000000E-01
  8.50000000E-01  8.50000000E-01  8.50000000E-01  8.50000000E-01  8.50000000E-01
  8.50000000E-01  8.50000000E-01  8.50000000E-01  8.50000000E-01  8.50000000E-01
  8.50000000E-01  8.50000000E-01  8.50000000E-01  8.50000000E-01  8.50000000E-01
  8.50000000E-01  8.50000000E-01  8.50000000E-01  8.50000000E-01  8.50000000E-01
  8.50000000E-01  8.50000000E-01  8.50000000E-01  8.50000000E-01  8.50000000E-01
  8.50000000E-01  8.50000000E-01  8.50000000E-01  8.50000000E-01  8.50000000E-01
  8.50000000E-01  8.50000000E-01  8.50000000E-01  8.50000000E-01  8.50000000E-01
  8.50000000E-01  8.50000000E-01  8.50000000E-01  8.50000000E-01  8.50000000E-01
  8.50000000E-01  8.50000000E-01  8.50000000E-01  8.50000000E-01  8.50000000E-01
  8.50000000E-01  8.50000000E-01  8.50000000E-01  8.50000000E-01  8.50000000E-01
  8.50000000E-01  8.50000000E-01  8.50000000E-01  8.50000000E-01  8.50000000E-01
  8.50000000E-01  8.50000000E-01  8.50000000E-01  8.50000000E-01  8.50000000E-01
  8.50000000E-01  8.50000000E-01  8.50000000E-01  8.50000000E-01  8.50000000E-01
  8.50000000E-01  8.50000000E-01  8.50000000E-01  8.50000000E-01  8.50000000E-01
  8.50000000E-01  8.50000000E-01  8.50000000E-01  8.50000000E-01  8.50000000E-01
  8.50000000E-01  8.50000000E-01  8.50000000E-01  8.50000000E-01  8.50000000E-01
  8.50000000E-01  8.50000000E-01  8.50000000E-01  8.50000000E-01  8.50000000E-01
  8.50000000E-01  8.50000000E-01  8.50000000E-01  8.50000000E-01  8.50000000E-01
  8.50000000E-01  8.50000000E-01  8.50000000E-01  8.50000000E-01  8.50000000E-01
  8.50000000E-01  8.50000000E-01  8.50000000E-01  8.50000000E-01  8.50000000E-01
  8.50000000E-01  8.50000000E-01  8.50000000E-01  8.50000000E-01  8.50000000E-01
  8.50000000E-01  8.50000000E-01  8.50000000E-01  8.50000000E-01  8.50000000E-01
  8.50000000E-01  8.50000000E-01  8.50000000E-01  8.50000000E-01  8.50000000E-01
  8.50000000E-01  8.50000000E-01  8.50000000E-01  8.50000000E-01  8.50000000E-01
  8.50000000E-01  8.50000000E-01  8.50000000E-01  8.50000000E-01  8.50000000E-01
  8.50000000E-01  8.50000000E-01  8.50000000E-01  8.50000000E-01  8.50000000E-01
  8.50000000E-01  8.50000000E-01  8.50000000E-01  8.50000000E-01  8.50000000E-01
  8.50000000E-01  8.50000000E-01  8.50000000E-01  8.50000000E-01  8.50000000E-01
  8.50000000E-01  8.50000000E-01  8.50000000E-01  8.50000000E-01  8.50000000E-01
  8.50000000E-01  8.50000000E-01  8.50000000E-01  8.50000000E-01  8.50000000E-01
  8.50000000E-01  8.50000000E-01  8.50000000E-01  8.50000000E-01  8.50000000E-01
  8.50000000E-01  8.50000000E-01  8.50000000E-01  8.50000000E-01  8.50000000E-01
  8.50000000E-01  8.50000000E-01  8.50000000E-01  8.50000000E-01  8.50000000E-01
  8.50000000E-01  8.50000000E-01  8.50000000E-01  8.50000000E-01  8.50000000E-01
  8.50000000E-01  8.50000000E-01  8.50000000E-01  8.50000000E-01  8.50000000E-01
  8.50000000E-01  8.50000000E-01  8.50000000E-01  8.50000000E-01  8.50000000E-01
  8.50000000E-01  8.50000000E-01  8.50000000E-01  8.50000000E-01  8.50000000E-01
  8.50000000E-01  8.50000000E-01  8.50000000E-01  8.50000000E-01  8.50000000E-01
  8.50000000E-01  8.50000000E-01  8.50000000E-01  8.50000000E-01  8.50000000E-01
  8.50000000E-01  8.50000000E-01  8.50000000E-01  8.50000000E-01  8.50000000E-01
  8.50000000E-01  8.50000000E-01  8.50000000E-01  8.50000000E-01  8.50000000E-01
  8.50000000E-01  8.50000000E-01  8.50000000E-01  8.50000000E-01  8.50000000E-01
  8.50000000E-01  8.50000000E-01  8.50000000E-01  8.50000000E-01  8.50000000E-01
  8.50000000E-01  8.50000000E-01  8.50000000E-01  8.50000000E-01  8.50000000E-01
  8.50000000E-01  8.50000000E-01  8.50000000E-01  8.50000000E-01  8.50000000E-01
  8.50000000E-01  8.50000000E-01  8.50000000E-01  8.50000000E-01  8.50000000E-01
  8.50000000E-01  8.50000000E-01  8.50000000E-01  8.50000000E-01  8.50000000E-01
  8.50000000E-01  8.50000000E-01  8.50000000E-01  8.50000000E-01  8.50000000E-01
  8.50000000E-01  8.50000000E-01  8.50000000E-01  8.50000000E-01  8.50000000E-01
  8.50000000E-01  8.50000000E-01  8.50000000E-01  8.50000000E-01  8.50000000E-01
  8.50000000E-01  8.50000000E-01  8.50000000E-01  8.50000000E-01  8.50000000E-01
  8.50000000E-01  8.50000000E-01  8.50000000E-01  8.50000000E-01  8.50000000E-01
  8.50000000E-01  8.50000000E-01  8.50000000E-01  8.50000000E-01  8.50000000E-01
  8.50000000E-01  8.50000000E-01  8.50000000E-01  8.50000000E-01  8.50000000E-01
  8.50000000E-01  8.50000000E-01  8.50000000E-01  8.50000000E-01  8.50000000E-01
  8.50000000E-01  8.50000000E-01  8.50000000E-01  8.50000000E-01  8.50000000E-01
  8.50000000E-01  8.50000000E-01  8.50000000E-01  8.50000000E-01  8.50000000E-01
  8.50000000E-01  8.50000000E-01  8.50000000E-01  8.50000000E-01  8.50000000E-01
  8.50000000E-01  8.50000000E-01  8.50000000E-01  8.50000000E-01  8.50000000E-01
  8.50000000E-01  8.50000000E-01  8.50000000E-01  8.50000000E-01  8.50000000E-01
  8.50000000E-01  8.50000000E-01  8.50000000E-01  8.50000000E-01  8.50000000E-01
  8.50000000E-01  8.50000000E-01  8.50000000E-01  8.50000000E-01  8.50000000E-01
  8.50000000E-01  8.50000000E-01  8.50000000E-01  8.50000000E-01  8.50000000E-01
  8.50000000E-01  8.50000000E-01  8.50000000E-01  8.50000000E-01  8.50000000E-01
  8.50000000E-01  8.50000000E-01  8.50000000E-01  8.50000000E-01  8.50000000E-01
  8.50000000E-01  8.50000000E-01  8.50000000E-01  8.50000000E-01  8.50000000E-01
  8.50000000E-01  8.50000000E-01  8.50000000E-01  8.50000000E-01  8.50000000E-01
  8.50000000E-01  8.50000000E-01  8.50000000E-01  8.50000000E-01  8.50000000E-01
  8.50000000E-01  8.50000000E-01  8.50000000E-01  8.50000000E-01  8.50000000E-01
  8.50000000E-01  8.50000000E-01  8.50000000E-01  8.50000000E-01  8.50000000E-01
  8.50000000E-01  8.50000000E-01  8.50000000E-01  8.50000000E-01  8.50000000E-01
  8.50000000E-01  8.50000000E-01  8.50000000E-01  8.50000000E-01  8.50000000E-01
  8.50000000E-01  8.50000000E-01  8.50000000E-01  8.50000000E-01  8.50000000E-01
  8.50000000E-01  8.50000000E-01  8.50000000E-01  8.50000000E-01  8.50000000E-01
  8.50000000E-01  8.50000000E-01  8.50000000E-01  8.50000000E-01  8.50000000E-01
  8.50000000E-01  8.50000000E-01  8.50000000E-01  8.50000000E-01  8.50000000E-01
  8.50000000E-01  8.50000000E-01  8.50000000E-01  8.50000000E-01  8.50000000E-01
  8.50000000E-01  8.50000000E-01  8.50000000E-01  8.50000000E-01  8.50000000E-01
  8.50000000E-01  8.50000000E-01  8.50000000E-01  8.50000000E-01  8.50000000E-01
  8.50000000E-01  8.50000000E-01  8.50000000E-01  8.50000000E-01  8.50000000E-01
  8.50000000E-01  8.50000000E-01  8.50000000E-01  8.50000000E-01  8.50000000E-01
  8.50000000E-01  8.50000000E-01  8.50000000E-01  8.50000000E-01  8.50000000E-01
  8.50000000E-01  8.50000000E-01  8.50000000E-01  8.50000000E-01  8.50000000E-01
  8.50000000E-01  8.50000000E-01  8.50000000E-01  8.50000000E-01  8.50000000E-01
  8.50000000E-01  8.50000000E-01  8.50000000E-01  8.50000000E-01  8.50000000E-01
  8.50000000E-01  8.50000000E-01  8.50000000E-01  8.50000000E-01  8.50000000E-01
  8.50000000E-01  8.50000000E-01  8.50000000E-01  8.50000000E-01  8.50000000E-01
  8.50000000E-01  8.50000000E-01  8.50000000E-01  8.50000000E-01  8.50000000E-01
  8.50000000E-01  8.50000000E-01  8.50000000E-01  8.50000000E-01  8.50000000E-01
  8.50000000E-01  8.50000000E-01  8.50000000E-01  8.50000000E-01  8.50000000E-01
  8.50000000E-01  8.50000000E-01  8.50000000E-01  8.50000000E-01  8.50000000E-01
  8.50000000E-01  8.50000000E-01  8.50000000E-01  8.50000000E-01  8.50000000E-01
  8.50000000E-01  8.50000000E-01  8.50000000E-01  8.50000000E-01  8.50000000E-01
  8.50000000E-01  8.50000000E-01  8.50000000E-01  8.50000000E-01  8.50000000E-01
  8.50000000E-01  8.50000000E-01  8.50000000E-01  8.50000000E-01  8.50000000E-01
  8.50000000E-01  8.50000000E-01  8.50000000E-01  8.50000000E-01  8.50000000E-01
  8.50000000E-01  8.50000000E-01  8.50000000E-01  8.50000000E-01  8.50000000E-01
  8.50000000E-01  8.50000000E-01  8.50000000E-01  8.50000000E-01  8.50000000E-01
  8.50000000E-01  8.50000000E-01  8.50000000E-01  8.50000000E-01  8.50000000E-01
  8.50000000E-01  8.50000000E-01  8.50000000E-01  8.50000000E-01  8.50000000E-01
  8.50000000E-01  8.50000000E-01  8.50000000E-01  8.50000000E-01  8.50000000E-01
  8.50000000E-01  8.50000000E-01  8.50000000E-01  8.50000000E-01  8.50000000E-01
  8.50000000E-01  8.50000000E-01  8.50000000E-01  8.50000000E-01  8.50000000E-01
  8.50000000E-01  8.50000000E-01  8.50000000E-01  8.50000000E-01  8.50000000E-01
  8.50000000E-01  8.50000000E-01  8.50000000E-01  8.50000000E-01  8.50000000E-01
  8.50000000E-01  8.50000000E-01  8.50000000E-01  8.50000000E-01  8.50000000E-01
  8.50000000E-01  8.50000000E-01  8.50000000E-01  8.50000000E-01  8.50000000E-01
  8.50000000E-01  8.50000000E-01  8.50000000E-01  8.50000000E-01  8.50000000E-01
  8.50000000E-01  8.50000000E-01  8.50000000E-01  8.50000000E-01  8.50000000E-01
  8.50000000E-01  8.50000000E-01  8.50000000E-01  8.50000000E-01  8.50000000E-01
  8.50000000E-01  8.50000000E-01  8.50000000E-01  8.50000000E-01  8.50000000E-01
  8.50000000E-01  8.50000000E-01  8.50000000E-01  8.50000000E-01  8.50000000E-01
  8.50000000E-01  8.50000000E-01  8.50000000E-01  8.50000000E-01  8.50000000E-01
  8.50000000E-01  8.50000000E-01  8.50000000E-01  8.50000000E-01  8.50000000E-01
  8.50000000E-01  8.50000000E-01  8.50000000E-01  8.50000000E-01  8.50000000E-01
  8.50000000E-01  8.50000000E-01  8.50000000E-01  8.50000000E-01  8.50000000E-01
  8.50000000E-01  8.50000000E-01  8.50000000E-01  8.50000000E-01  8.50000000E-01
  8.50000000E-01  8.50000000E-01  8.50000000E-01  8.50000000E-01  8.50000000E-01
  8.50000000E-01  8.50000000E-01  8.50000000E-01  8.50000000E-01  8.50000000E-01
  8.50000000E-01  8.50000000E-01  8.50000000E-01  8.50000000E-01  8.50000000E-01
  8.50000000E-01  8.50000000E-01  8.50000000E-01  8.50000000E-01  8.50000000E-01
  8.50000000E-01  8.50000000E-01  8.50000000E-01  8.50000000E-01  8.50000000E-01
  8.50000000E-01  8.50000000E-01  8.50000000E-01  8.50000000E-01  8.50000000E-01
  8.50000000E-01  8.50000000E-01  8.50000000E-01  8.50000000E-01  8.50000000E-01
  8.50000000E-01  8.50000000E-01  8.50000000E-01  8.50000000E-01  8.50000000E-01
  8.50000000E-01  8.50000000E-01  8.50000000E-01  8.50000000E-01  8.50000000E-01
  8.50000000E-01  8.50000000E-01  8.50000000E-01  8.50000000E-01  8.50000000E-01
  8.50000000E-01  8.50000000E-01  8.50000000E-01  8.50000000E-01  8.50000000E-01
  8.50000000E-01  8.50000000E-01  8.50000000E-01  8.50000000E-01  8.50000000E-01
  8.50000000E-01  8.50000000E-01  8.50000000E-01  8.50000000E-01  8.50000000E-01
  8.50000000E-01  8.50000000E-01  8.50000000E-01  8.50000000E-01  8.50000000E-01
  8.50000000E-01  8.50000000E-01  8.50000000E-01  8.50000000E-01  8.50000000E-01
  8.50000000E-01  8.50000000E-01  8.50000000E-01  8.50000000E-01  8.50000000E-01
  8.50000000E-01  8.50000000E-01  8.50000000E-01  8.50000000E-01  8.50000000E-01
  8.50000000E-01  8.50000000E-01  8.50000000E-01  8.50000000E-01  8.50000000E-01
  8.50000000E-01  8.50000000E-01  8.50000000E-01  8.50000000E-01  8.50000000E-01
  8.50000000E-01  8.50000000E-01  8.50000000E-01  8.50000000E-01  8.50000000E-01
  8.50000000E-01  8.50000000E-01  8.50000000E-01  8.50000000E-01  8.50000000E-01
  8.50000000E-01  8.50000000E-01  8.50000000E-01  8.50000000E-01  8.50000000E-01
  8.50000000E-01  8.50000000E-01  8.50000000E-01  8.50000000E-01  8.50000000E-01
  8.50000000E-01  8.50000000E-01  8.50000000E-01  8.50000000E-01  8.50000000E-01
  8.50000000E-01  8.50000000E-01  8.50000000E-01  8.50000000E-01  8.50000000E-01
  8.50000000E-01  8.50000000E-01  8.50000000E-01  8.50000000E-01  8.50000000E-01
  8.50000000E-01  8.50000000E-01  8.50000000E-01  8.50000000E-01  8.50000000E-01
  8.50000000E-01  8.50000000E-01  8.50000000E-01  8.50000000E-01  8.50000000E-01
  8.50000000E-01  8.50000000E-01  8.50000000E-01  8.50000000E-01  8.50000000E-01
  8.50000000E-01  8.50000000E-01  8.50000000E-01  8.50000000E-01  8.50000000E-01
  8.50000000E-01  8.50000000E-01  8.50000000E-01  8.50000000E-01  8.50000000E-01
  8.50000000E-01  8.50000000E-01  8.50000000E-01  8.50000000E-01  8.50000000E-01
  8.50000000E-01  8.50000000E-01  8.50000000E-01  8.50000000E-01  8.50000000E-01
  8.50000000E-01  8.50000000E-01  8.50000000E-01  8.50000000E-01  8.50000000E-01
  8.50000000E-01  8.50000000E-01  8.50000000E-01  8.50000000E-01  8.50000000E-01
  8.50000000E-01  8.50000000E-01  8.50000000E-01  8.50000000E-01  8.50000000E-01
  8.50000000E-01  8.50000000E-01  8.50000000E-01  8.50000000E-01  8.50000000E-01
  8.50000000E-01  8.50000000E-01  8.50000000E-01  8.50000000E-01  8.50000000E-01
  8.50000000E-01  8.50000000E-01  8.50000000E-01  8.50000000E-01  8.50000000E-01
  8.50000000E-01  8.50000000E-01  8.50000000E-01  8.50000000E-01  8.50000000E-01
  8.50000000E-01  8.50000000E-01  8.50000000E-01  8.50000000E-01  8.50000000E-01
  8.50000000E-01  8.50000000E-01  8.50000000E-01  8.50000000E-01  8.50000000E-01
  8.50000000E-01  8.50000000E-01  8.50000000E-01  8.50000000E-01  8.50000000E-01
  8.50000000E-01  8.50000000E-01  8.50000000E-01  8.50000000E-01  8.50000000E-01
  8.50000000E-01  8.50000000E-01  8.50000000E-01  8.50000000E-01  8.50000000E-01
  8.50000000E-01  8.50000000E-01  8.50000000E-01  8.50000000E-01  8.50000000E-01
  8.50000000E-01  8.50000000E-01  8.50000000E-01  8.50000000E-01  8.50000000E-01
  8.50000000E-01  8.50000000E-01  8.50000000E-01  8.50000000E-01  8.50000000E-01
  8.50000000E-01  8.50000000E-01  8.50000000E-01  8.50000000E-01  8.50000000E-01
  8.50000000E-01  8.50000000E-01  8.50000000E-01  8.50000000E-01  8.50000000E-01
  8.50000000E-01  8.50000000E-01  8.50000000E-01  8.50000000E-01  8.50000000E-01
  8.50000000E-01  8.50000000E-01  8.50000000E-01  8.50000000E-01  8.50000000E-01
  8.50000000E-01  8.50000000E-01  8.50000000E-01  8.50000000E-01  8.50000000E-01
  8.50000000E-01  8.50000000E-01  8.50000000E-01  8.50000000E-01  8.50000000E-01
  8.50000000E-01  8.50000000E-01  8.50000000E-01  8.50000000E-01  8.50000000E-01
  8.50000000E-01  8.50000000E-01  8.50000000E-01  8.50000000E-01  8.50000000E-01
  8.50000000E-01  8.50000000E-01  8.50000000E-01  8.50000000E-01  8.50000000E-01
  8.50000000E-01  8.50000000E-01  8.50000000E-01  8.50000000E-01  8.50000000E-01
  8.50000000E-01  8.50000000E-01  8.50000000E-01  8.50000000E-01  8.50000000E-01
  8.50000000E-01  8.50000000E-01  8.50000000E-01  8.50000000E-01  8.50000000E-01
  8.50000000E-01  8.50000000E-01  8.50000000E-01  8.50000000E-01  8.50000000E-01
  8.50000000E-01  8.50000000E-01  8.50000000E-01  8.50000000E-01  8.50000000E-01
  8.50000000E-01  8.50000000E-01  8.50000000E-01  8.50000000E-01  8.50000000E-01
  8.50000000E-01  8.50000000E-01  8.50000000E-01  8.50000000E-01  8.50000000E-01
  8.50000000E-01  8.50000000E-01  8.50000000E-01  8.50000000E-01  8.50000000E-01
  8.50000000E-01  8.50000000E-01  8.50000000E-01  8.50000000E-01  8.50000000E-01
  8.50000000E-01  8.50000000E-01  8.50000000E-01  8.50000000E-01  8.50000000E-01
  8.50000000E-01  8.50000000E-01  8.50000000E-01  8.50000000E-01  8.50000000E-01
  8.50000000E-01  8.50000000E-01  8.50000000E-01  8.50000000E-01  8.50000000E-01
  8.50000000E-01  8.50000000E-01  8.50000000E-01  8.50000000E-01  8.50000000E-01
  8.50000000E-01  8.50000000E-01  8.50000000E-01  8.50000000E-01  8.50000000E-01
  8.50000000E-01  8.50000000E-01  8.50000000E-01  8.50000000E-01  8.50000000E-01
  8.50000000E-01  8.50000000E-01  8.50000000E-01  8.50000000E-01  8.50000000E-01
  8.50000000E-01  8.50000000E-01  8.50000000E-01  8.50000000E-01  8.50000000E-01
  8.50000000E-01  8.50000000E-01  8.50000000E-01  8.50000000E-01  8.50000000E-01
  8.50000000E-01  8.50000000E-01  8.50000000E-01  8.50000000E-01  8.50000000E-01
  8.50000000E-01  8.50000000E-01  8.50000000E-01  8.50000000E-01  8.50000000E-01
  8.50000000E-01  8.50000000E-01  8.50000000E-01  8.50000000E-01  8.50000000E-01
  8.50000000E-01  8.50000000E-01  8.50000000E-01  8.50000000E-01  8.50000000E-01
  8.50000000E-01  8.50000000E-01  8.50000000E-01  8.50000000E-01  8.50000000E-01
  8.50000000E-01  8.50000000E-01  8.50000000E-01  8.50000000E-01  8.50000000E-01
  8.50000000E-01  8.50000000E-01  8.50000000E-01  8.50000000E-01  8.50000000E-01
  8.50000000E-01  8.50000000E-01  8.50000000E-01  8.50000000E-01  8.50000000E-01
  8.50000000E-01  8.50000000E-01  8.50000000E-01  8.50000000E-01  8.50000000E-01
  8.50000000E-01  8.50000000E-01  8.50000000E-01  8.50000000E-01  8.50000000E-01
  8.50000000E-01  8.50000000E-01  8.50000000E-01  8.50000000E-01  8.50000000E-01
  8.50000000E-01  8.50000000E-01  8.50000000E-01  8.50000000E-01  8.50000000E-01
  8.50000000E-01  8.50000000E-01  8.50000000E-01  8.50000000E-01  8.50000000E-01
  8.50000000E-01  8.50000000E-01  8.50000000E-01  8.50000000E-01  8.50000000E-01
  8.50000000E-01  8.50000000E-01  8.50000000E-01  8.50000000E-01  8.50000000E-01
  8.50000000E-01  8.50000000E-01  8.50000000E-01  8.50000000E-01  8.50000000E-01
  8.50000000E-01  8.50000000E-01  8.50000000E-01  8.50000000E-01  8.50000000E-01
  8.50000000E-01  8.50000000E-01  8.50000000E-01  8.50000000E-01  8.50000000E-01
  8.50000000E-01  8.50000000E-01  8.50000000E-01  8.50000000E-01  8.50000000E-01
  8.50000000E-01  8.50000000E-01  8.50000000E-01  8.50000000E-01  8.50000000E-01
  8.50000000E-01  8.50000000E-01  8.50000000E-01  8.50000000E-01  8.50000000E-01
  8.50000000E-01  8.50000000E-01  8.50000000E-01  8.50000000E-01  8.50000000E-01
  8.50000000E-01  8.50000000E-01  8.50000000E-01  8.50000000E-01  8.50000000E-01
  8.50000000E-01  8.50000000E-01  8.50000000E-01  8.50000000E-01  8.50000000E-01
  8.50000000E-01  8.50000000E-01  8.50000000E-01  8.50000000E-01  8.50000000E-01
  8.50000000E-01  8.50000000E-01  8.50000000E-01  8.50000000E-01  8.50000000E-01
  8.50000000E-01  8.50000000E-01  8.50000000E-01  8.50000000E-01  8.50000000E-01
  8.50000000E-01  8.50000000E-01  8.50000000E-01  8.50000000E-01  8.50000000E-01
  8.50000000E-01  8.50000000E-01  8.50000000E-01  8.50000000E-01  8.50000000E-01
  8.50000000E-01  8.50000000E-01  8.50000000E-01  8.50000000E-01  8.50000000E-01
  8.50000000E-01  8.50000000E-01  8.50000000E-01  8.50000000E-01  8.50000000E-01
  8.50000000E-01  8.50000000E-01  8.50000000E-01  8.50000000E-01  8.50000000E-01
  8.50000000E-01  8.50000000E-01  8.50000000E-01  8.50000000E-01  8.50000000E-01
  8.50000000E-01  8.50000000E-01  8.50000000E-01  8.50000000E-01  8.50000000E-01
  8.50000000E-01  8.50000000E-01  8.50000000E-01  8.50000000E-01  8.50000000E-01
  8.50000000E-01  8.50000000E-01  8.50000000E-01  8.50000000E-01  8.50000000E-01
  8.50000000E-01  8.50000000E-01  8.50000000E-01  8.50000000E-01  8.50000000E-01
  8.50000000E-01  8.50000000E-01  8.50000000E-01  8.50000000E-01  8.50000000E-01
  8.50000000E-01  8.50000000E-01  8.50000000E-01  8.50000000E-01  8.50000000E-01
  8.50000000E-01  8.50000000E-01  8.50000000E-01  8.50000000E-01  8.50000000E-01
  8.50000000E-01  8.50000000E-01  8.50000000E-01  8.50000000E-01  8.50000000E-01
  8.50000000E-01  8.50000000E-01  8.50000000E-01  8.50000000E-01  8.50000000E-01
  8.50000000E-01  8.50000000E-01  8.50000000E-01  8.50000000E-01  8.50000000E-01
  8.50000000E-01  8.50000000E-01  8.50000000E-01  8.50000000E-01  8.50000000E-01
  8.50000000E-01  8.50000000E-01  8.50000000E-01  8.50000000E-01  8.50000000E-01
  8.50000000E-01  8.50000000E-01  8.50000000E-01  8.50000000E-01  8.50000000E-01
  8.50000000E-01  8.50000000E-01  8.50000000E-01  8.50000000E-01  8.50000000E-01
  8.50000000E-01  8.50000000E-01  8.50000000E-01  8.50000000E-01  8.50000000E-01
  8.50000000E-01  8.50000000E-01  8.50000000E-01  8.50000000E-01  8.50000000E-01
  8.50000000E-01  8.50000000E-01  8.50000000E-01  8.50000000E-01  8.50000000E-01
  8.50000000E-01  8.50000000E-01  8.50000000E-01  8.50000000E-01  8.50000000E-01
  8.50000000E-01  8.50000000E-01  8.50000000E-01  8.50000000E-01  8.50000000E-01
  8.50000000E-01  8.50000000E-01  8.50000000E-01  8.50000000E-01  8.50000000E-01
  8.50000000E-01  8.50000000E-01  8.50000000E-01  8.50000000E-01  8.50000000E-01
  8.50000000E-01  8.50000000E-01  8.50000000E-01  8.50000000E-01  8.50000000E-01
  8.50000000E-01  8.50000000E-01  8.50000000E-01  8.50000000E-01  8.50000000E-01
  8.50000000E-01  8.50000000E-01  8.50000000E-01  8.50000000E-01  8.50000000E-01
  8.50000000E-01  8.50000000E-01  8.50000000E-01  8.50000000E-01  8.50000000E-01
  8.50000000E-01  8.50000000E-01  8.50000000E-01  8.50000000E-01  8.50000000E-01
  8.50000000E-01  8.50000000E-01  8.50000000E-01  8.50000000E-01  8.50000000E-01
  8.50000000E-01  8.50000000E-01  8.50000000E-01  8.50000000E-01  8.50000000E-01
  8.50000000E-01  8.50000000E-01  8.50000000E-01  8.50000000E-01  8.50000000E-01
  8.50000000E-01  8.50000000E-01  8.50000000E-01  8.50000000E-01  8.50000000E-01
  8.50000000E-01  8.50000000E-01  8.50000000E-01  8.50000000E-01  8.50000000E-01
  8.50000000E-01  8.50000000E-01  8.50000000E-01  8.50000000E-01  8.50000000E-01
  8.50000000E-01  8.50000000E-01  8.50000000E-01  8.50000000E-01  8.50000000E-01
  8.50000000E-01  8.50000000E-01  8.50000000E-01  8.50000000E-01  8.50000000E-01
  8.50000000E-01  8.50000000E-01  8.50000000E-01  8.50000000E-01  8.50000000E-01
  8.50000000E-01  8.50000000E-01  8.50000000E-01  8.50000000E-01  8.50000000E-01
  8.50000000E-01  8.50000000E-01  8.50000000E-01  8.50000000E-01  8.50000000E-01
  8.50000000E-01  8.50000000E-01  8.50000000E-01  8.50000000E-01  8.50000000E-01
  8.50000000E-01  8.50000000E-01  8.50000000E-01  8.50000000E-01  8.50000000E-01
  8.50000000E-01  8.50000000E-01  8.50000000E-01  8.50000000E-01  8.50000000E-01
  8.50000000E-01  8.50000000E-01  8.50000000E-01  8.50000000E-01  8.50000000E-01
  8.50000000E-01  8.50000000E-01  8.50000000E-01  8.50000000E-01  8.50000000E-01
  8.50000000E-01  8.50000000E-01  8.50000000E-01  8.50000000E-01  8.50000000E-01
  8.50000000E-01  8.50000000E-01  8.50000000E-01  8.50000000E-01  8.50000000E-01
  8.50000000E-01  8.50000000E-01  8.50000000E-01  8.50000000E-01  8.50000000E-01
  8.50000000E-01  8.50000000E-01  8.50000000E-01  8.50000000E-01  8.50000000E-01
  8.50000000E-01  8.50000000E-01  8.50000000E-01  8.50000000E-01  8.50000000E-01
  8.50000000E-01  8.50000000E-01  8.50000000E-01  8.50000000E-01  8.50000000E-01
  8.50000000E-01  8.50000000E-01  8.50000000E-01  8.50000000E-01  8.50000000E-01
  8.50000000E-01  8.50000000E-01  8.50000000E-01  8.50000000E-01  8.50000000E-01
  8.50000000E-01  8.50000000E-01  8.50000000E-01  8.50000000E-01  8.50000000E-01
  8.50000000E-01  8.50000000E-01  8.50000000E-01  8.50000000E-01  8.50000000E-01
  8.50000000E-01  8.50000000E-01  8.50000000E-01  8.50000000E-01  8.50000000E-01
  8.50000000E-01  8.50000000E-01  8.50000000E-01  8.50000000E-01  8.50000000E-01
  8.50000000E-01  8.50000000E-01  8.50000000E-01  8.50000000E-01  8.50000000E-01
  8.50000000E-01  8.50000000E-01  8.50000000E-01  8.50000000E-01  8.50000000E-01
  8.50000000E-01  8.50000000E-01  8.50000000E-01  8.50000000E-01  8.50000000E-01
  8.50000000E-01  8.50000000E-01  8.50000000E-01  8.50000000E-01  8.50000000E-01
  8.50000000E-01  8.50000000E-01  8.50000000E-01  8.50000000E-01  8.50000000E-01
  8.50000000E-01  8.50000000E-01  8.50000000E-01  8.50000000E-01  8.50000000E-01
  8.50000000E-01  8.50000000E-01  8.50000000E-01  8.50000000E-01  8.50000000E-01
  8.50000000E-01  8.50000000E-01  8.50000000E-01  8.50000000E-01  8.50000000E-01
  8.50000000E-01  8.50000000E-01  8.50000000E-01  8.50000000E-01  8.50000000E-01
  8.50000000E-01  8.50000000E-01  8.50000000E-01  8.50000000E-01  8.50000000E-01
  8.50000000E-01  8.50000000E-01  8.50000000E-01  8.50000000E-01  8.50000000E-01
  8.50000000E-01  8.50000000E-01  8.50000000E-01  8.50000000E-01  8.50000000E-01
  8.50000000E-01  8.50000000E-01  8.50000000E-01  8.50000000E-01  8.50000000E-01
  8.50000000E-01  8.50000000E-01  8.50000000E-01  8.50000000E-01  8.50000000E-01
  8.50000000E-01  8.50000000E-01  8.50000000E-01  8.50000000E-01  8.50000000E-01
  8.50000000E-01  8.50000000E-01  8.50000000E-01  8.50000000E-01  8.50000000E-01
  8.50000000E-01  8.50000000E-01  8.50000000E-01  8.50000000E-01  8.50000000E-01
  8.50000000E-01  8.50000000E-01  8.50000000E-01  8.50000000E-01  8.50000000E-01
  8.50000000E-01  8.50000000E-01  8.50000000E-01  8.50000000E-01  8.50000000E-01
  8.50000000E-01  8.50000000E-01  8.50000000E-01  8.50000000E-01  8.50000000E-01
  8.50000000E-01  8.50000000E-01  8.50000000E-01  8.50000000E-01  8.50000000E-01
  8.50000000E-01  8.50000000E-01  8.50000000E-01  8.50000000E-01  8.50000000E-01
  8.50000000E-01  8.50000000E-01  8.50000000E-01  8.50000000E-01  8.50000000E-01
  8.50000000E-01  8.50000000E-01  8.50000000E-01  8.50000000E-01  8.50000000E-01
  8.50000000E-01  8.50000000E-01  8.50000000E-01  8.50000000E-01  8.50000000E-01
  8.50000000E-01  8.50000000E-01  8.50000000E-01  8.50000000E-01  8.50000000E-01
  8.50000000E-01  8.50000000E-01  8.50000000E-01  8.50000000E-01  8.50000000E-01
  8.50000000E-01  8.50000000E-01  8.50000000E-01  8.50000000E-01  8.50000000E-01
  8.50000000E-01  8.50000000E-01  8.50000000E-01  8.50000000E-01  8.50000000E-01
  8.50000000E-01  8.50000000E-01  8.50000000E-01  8.50000000E-01  8.50000000E-01
  8.50000000E-01  8.50000000E-01  8.50000000E-01  8.50000000E-01  8.50000000E-01
  8.50000000E-01  8.50000000E-01  8.50000000E-01  8.50000000E-01  8.50000000E-01
  8.50000000E-01  8.50000000E-01  8.50000000E-01  8.50000000E-01  8.50000000E-01
  8.50000000E-01  8.50000000E-01  8.50000000E-01  8.50000000E-01  8.50000000E-01
  8.50000000E-01  8.50000000E-01  8.50000000E-01  8.50000000E-01  8.50000000E-01
  8.50000000E-01  8.50000000E-01  8.50000000E-01  8.50000000E-01  8.50000000E-01
  8.50000000E-01  8.50000000E-01  8.50000000E-01  8.50000000E-01  8.50000000E-01
  8.50000000E-01  8.50000000E-01  8.50000000E-01  8.50000000E-01  8.50000000E-01
  8.50000000E-01  8.50000000E-01  8.50000000E-01  8.50000000E-01  8.50000000E-01
  8.50000000E-01  8.50000000E-01  8.50000000E-01  8.50000000E-01  8.50000000E-01
  8.50000000E-01  8.50000000E-01  8.50000000E-01  8.50000000E-01  8.50000000E-01
  8.50000000E-01  8.50000000E-01  8.50000000E-01  8.50000000E-01  8.50000000E-01
  8.50000000E-01  8.50000000E-01  8.50000000E-01  8.50000000E-01  8.50000000E-01
  8.50000000E-01  8.50000000E-01  8.50000000E-01  8.50000000E-01  8.50000000E-01
  8.50000000E-01  8.50000000E-01  8.50000000E-01  8.50000000E-01  8.50000000E-01
  8.50000000E-01  8.50000000E-01  8.50000000E-01  8.50000000E-01  8.50000000E-01
  8.50000000E-01  8.50000000E-01  8.50000000E-01  8.50000000E-01  8.50000000E-01
  8.50000000E-01  8.50000000E-01  8.50000000E-01  8.50000000E-01  8.50000000E-01
  8.50000000E-01  8.50000000E-01  8.50000000E-01  8.50000000E-01  8.50000000E-01
  8.50000000E-01  8.50000000E-01  8.50000000E-01  8.50000000E-01  8.50000000E-01
  8.50000000E-01  8.50000000E-01  8.50000000E-01  8.50000000E-01  8.50000000E-01
  8.50000000E-01  8.50000000E-01  8.50000000E-01  8.50000000E-01  8.50000000E-01
  8.50000000E-01  8.50000000E-01  8.50000000E-01  8.50000000E-01  8.50000000E-01
  8.50000000E-01  8.50000000E-01  8.50000000E-01  8.50000000E-01  8.50000000E-01
  8.50000000E-01  8.50000000E-01  8.50000000E-01  8.50000000E-01  8.50000000E-01
  8.50000000E-01  8.50000000E-01  8.50000000E-01  8.50000000E-01  8.50000000E-01
  8.50000000E-01  8.50000000E-01  8.50000000E-01  8.50000000E-01  8.50000000E-01
  8.50000000E-01  8.50000000E-01  8.50000000E-01  8.50000000E-01  8.50000000E-01
  8.50000000E-01  8.50000000E-01  8.50000000E-01  8.50000000E-01  8.50000000E-01
  8.50000000E-01  8.50000000E-01  8.50000000E-01  8.50000000E-01  8.50000000E-01
  8.50000000E-01  8.50000000E-01  8.50000000E-01  8.50000000E-01  8.50000000E-01
  8.50000000E-01  8.50000000E-01  8.50000000E-01  8.50000000E-01  8.50000000E-01
  8.50000000E-01  8.50000000E-01  8.50000000E-01  8.50000000E-01  8.50000000E-01
  8.50000000E-01  8.50000000E-01  8.50000000E-01  8.50000000E-01  8.50000000E-01
  8.50000000E-01  8.50000000E-01  8.50000000E-01  8.50000000E-01  8.50000000E-01
  8.50000000E-01  8.50000000E-01  8.50000000E-01  8.50000000E-01  8.50000000E-01
  8.50000000E-01  8.50000000E-01  8.50000000E-01  8.50000000E-01  8.50000000E-01
  8.50000000E-01  8.50000000E-01  8.50000000E-01  8.50000000E-01  8.50000000E-01
  8.50000000E-01  8.50000000E-01  8.50000000E-01  8.50000000E-01  8.50000000E-01
  8.50000000E-01  8.50000000E-01  8.50000000E-01  8.50000000E-01  8.50000000E-01
  8.50000000E-01  8.50000000E-01  8.50000000E-01  8.50000000E-01  8.50000000E-01
  8.50000000E-01  8.50000000E-01  8.50000000E-01  8.50000000E-01  8.50000000E-01
  8.50000000E-01  8.50000000E-01  8.50000000E-01  8.50000000E-01  8.50000000E-01
  8.50000000E-01  8.50000000E-01  8.50000000E-01  8.50000000E-01  8.50000000E-01
  8.50000000E-01  8.50000000E-01  8.50000000E-01  8.50000000E-01  8.50000000E-01
  8.50000000E-01  8.50000000E-01  8.50000000E-01  8.50000000E-01  8.50000000E-01
  8.50000000E-01  8.50000000E-01  8.50000000E-01  8.50000000E-01  8.50000000E-01
  8.50000000E-01  8.50000000E-01  8.50000000E-01  8.50000000E-01  8.50000000E-01
  8.50000000E-01  8.50000000E-01  8.50000000E-01  8.50000000E-01  8.50000000E-01
  8.50000000E-01  8.50000000E-01  8.50000000E-01  8.50000000E-01  8.50000000E-01
  8.50000000E-01  8.50000000E-01  8.50000000E-01  8.50000000E-01  8.50000000E-01
  8.50000000E-01  8.50000000E-01  8.50000000E-01  8.50000000E-01  8.50000000E-01
  8.50000000E-01  8.50000000E-01  8.50000000E-01  8.50000000E-01  8.50000000E-01
  8.50000000E-01  8.50000000E-01  8.50000000E-01  8.50000000E-01  8.50000000E-01
  8.50000000E-01  8.50000000E-01  8.50000000E-01  8.50000000E-01  8.50000000E-01
  8.50000000E-01  8.50000000E-01  8.50000000E-01  8.50000000E-01  8.50000000E-01
  8.50000000E-01  8.50000000E-01  8.50000000E-01  8.50000000E-01  8.50000000E-01
  8.50000000E-01  8.50000000E-01  8.50000000E-01  8.50000000E-01  8.50000000E-01
  8.50000000E-01  8.50000000E-01  8.50000000E-01  8.50000000E-01  8.50000000E-01
  8.50000000E-01  8.50000000E-01  8.50000000E-01  8.50000000E-01  8.50000000E-01
  8.50000000E-01  8.50000000E-01  8.50000000E-01  8.50000000E-01  8.50000000E-01
  8.50000000E-01  8.50000000E-01  8.50000000E-01  8.50000000E-01  8.50000000E-01
  8.50000000E-01  8.50000000E-01  8.50000000E-01  8.50000000E-01  8.50000000E-01
  8.50000000E-01  8.50000000E-01  8.50000000E-01  8.50000000E-01  8.50000000E-01
  8.50000000E-01  8.50000000E-01  8.50000000E-01  8.50000000E-01  8.50000000E-01
  8.50000000E-01  8.50000000E-01  8.50000000E-01  8.50000000E-01  8.50000000E-01
  8.50000000E-01  8.50000000E-01  8.50000000E-01  8.50000000E-01  8.50000000E-01
  8.50000000E-01  8.50000000E-01  8.50000000E-01  8.50000000E-01  8.50000000E-01
  8.50000000E-01  8.50000000E-01  8.50000000E-01  8.50000000E-01  8.50000000E-01
  8.50000000E-01  8.50000000E-01  8.50000000E-01  8.50000000E-01  8.50000000E-01
  8.50000000E-01  8.50000000E-01  8.50000000E-01  8.50000000E-01  8.50000000E-01
  8.50000000E-01  8.50000000E-01  8.50000000E-01  8.50000000E-01  8.50000000E-01
  8.50000000E-01  8.50000000E-01  8.50000000E-01  8.50000000E-01  8.50000000E-01
  8.50000000E-01  8.50000000E-01  8.50000000E-01  8.50000000E-01  8.50000000E-01
  8.50000000E-01  8.50000000E-01  8.50000000E-01  8.50000000E-01  8.50000000E-01
  8.50000000E-01  8.50000000E-01  8.50000000E-01  8.50000000E-01  8.50000000E-01
  8.50000000E-01  8.50000000E-01  8.50000000E-01  8.50000000E-01  8.50000000E-01
  8.50000000E-01  8.50000000E-01  8.50000000E-01  8.50000000E-01  8.50000000E-01
  8.50000000E-01  8.50000000E-01  8.50000000E-01  8.50000000E-01  8.50000000E-01
  8.50000000E-01  8.50000000E-01  8.50000000E-01  8.50000000E-01  8.50000000E-01
  8.50000000E-01  8.50000000E-01  8.50000000E-01  8.50000000E-01  8.50000000E-01
  8.50000000E-01  8.50000000E-01  8.50000000E-01  8.50000000E-01  8.50000000E-01
  8.50000000E-01  8.50000000E-01  8.50000000E-01  8.50000000E-01  8.50000000E-01
  8.50000000E-01  8.50000000E-01  8.50000000E-01  8.50000000E-01  8.50000000E-01
  8.50000000E-01  8.50000000E-01  8.50000000E-01  8.50000000E-01  8.50000000E-01
  8.50000000E-01  8.50000000E-01  8.50000000E-01  8.50000000E-01  8.50000000E-01
  8.50000000E-01  8.50000000E-01  8.50000000E-01  8.50000000E-01  8.50000000E-01
  8.50000000E-01  8.50000000E-01  8.50000000E-01  8.50000000E-01  8.50000000E-01
  8.50000000E-01  8.50000000E-01  8.50000000E-01  8.50000000E-01  8.50000000E-01
  8.50000000E-01  8.50000000E-01  8.50000000E-01  8.50000000E-01  8.50000000E-01
  8.50000000E-01  8.50000000E-01  8.50000000E-01  8.50000000E-01  8.50000000E-01
  8.50000000E-01  8.50000000E-01  8.50000000E-01  8.50000000E-01  8.50000000E-01
  8.50000000E-01  8.50000000E-01  8.50000000E-01  8.50000000E-01  8.50000000E-01
  8.50000000E-01  8.50000000E-01  8.50000000E-01  8.50000000E-01  8.50000000E-01
  8.50000000E-01  8.50000000E-01  8.50000000E-01  8.50000000E-01  8.50000000E-01
  8.50000000E-01  8.50000000E-01  8.50000000E-01  8.50000000E-01  8.50000000E-01
  8.50000000E-01  8.50000000E-01  8.50000000E-01  8.50000000E-01  8.50000000E-01
  8.50000000E-01  8.50000000E-01  8.50000000E-01  8.50000000E-01  8.50000000E-01
  8.50000000E-01  8.50000000E-01  8.50000000E-01  8.50000000E-01  8.50000000E-01
  8.50000000E-01  8.50000000E-01  8.50000000E-01  8.50000000E-01  8.50000000E-01
  8.50000000E-01  8.50000000E-01  8.50000000E-01  8.50000000E-01  8.50000000E-01
  8.50000000E-01  8.50000000E-01  8.50000000E-01  8.50000000E-01  8.50000000E-01
  8.50000000E-01  8.50000000E-01  8.50000000E-01  8.50000000E-01  8.50000000E-01
  8.50000000E-01  8.50000000E-01  8.50000000E-01  8.50000000E-01  8.50000000E-01
  8.50000000E-01  8.50000000E-01  8.50000000E-01  8.50000000E-01  8.50000000E-01
  8.50000000E-01  8.50000000E-01  8.50000000E-01  8.50000000E-01  8.50000000E-01
  8.50000000E-01  8.50000000E-01  8.50000000E-01  8.50000000E-01  8.50000000E-01
  8.50000000E-01  8.50000000E-01  8.50000000E-01  8.50000000E-01  8.50000000E-01
  8.50000000E-01  8.50000000E-01  8.50000000E-01  8.50000000E-01  8.50000000E-01
  8.50000000E-01  8.50000000E-01  8.50000000E-01  8.50000000E-01  8.50000000E-01
  8.50000000E-01  8.50000000E-01  8.50000000E-01  8.50000000E-01  8.50000000E-01
  8.50000000E-01  8.50000000E-01  8.50000000E-01  8.50000000E-01  8.50000000E-01
  8.50000000E-01  8.50000000E-01  8.50000000E-01  8.50000000E-01  8.50000000E-01
  8.50000000E-01  8.50000000E-01  8.50000000E-01  8.50000000E-01  8.50000000E-01
  8.50000000E-01  8.50000000E-01  8.50000000E-01  8.50000000E-01  8.50000000E-01
  8.50000000E-01  8.50000000E-01  8.50000000E-01  8.50000000E-01  8.50000000E-01
  8.50000000E-01  8.50000000E-01  8.50000000E-01  8.50000000E-01  8.50000000E-01
  8.50000000E-01  8.50000000E-01  8.50000000E-01  8.50000000E-01  8.50000000E-01
  8.50000000E-01  8.50000000E-01  8.50000000E-01  8.50000000E-01  8.50000000E-01
  8.50000000E-01  8.50000000E-01  8.50000000E-01  8.50000000E-01  8.50000000E-01
  8.50000000E-01  8.50000000E-01  8.50000000E-01  8.50000000E-01  8.50000000E-01
  8.50000000E-01  8.50000000E-01  8.50000000E-01  8.50000000E-01  8.50000000E-01
  8.50000000E-01  8.50000000E-01  8.50000000E-01  8.50000000E-01  8.50000000E-01
  8.50000000E-01  8.50000000E-01  8.50000000E-01  8.50000000E-01  8.50000000E-01
  8.50000000E-01  8.50000000E-01  8.50000000E-01  8.50000000E-01  8.50000000E-01
  8.50000000E-01  8.50000000E-01  8.50000000E-01  8.50000000E-01  8.50000000E-01
  8.50000000E-01  8.50000000E-01  8.50000000E-01  8.50000000E-01  8.50000000E-01
  8.50000000E-01  8.50000000E-01  8.50000000E-01  8.50000000E-01  8.50000000E-01
  8.50000000E-01  8.50000000E-01  8.50000000E-01  8.50000000E-01  8.50000000E-01
  8.50000000E-01  8.50000000E-01  8.50000000E-01  8.50000000E-01  8.50000000E-01
  8.50000000E-01  8.50000000E-01  8.50000000E-01  8.50000000E-01  8.50000000E-01
  8.50000000E-01  8.50000000E-01  8.50000000E-01  8.50000000E-01  8.50000000E-01
  8.50000000E-01  8.50000000E-01  8.50000000E-01  8.50000000E-01  8.50000000E-01
  8.50000000E-01  8.50000000E-01  8.50000000E-01  8.50000000E-01  8.50000000E-01
  8.50000000E-01  8.50000000E-01  8.50000000E-01  8.50000000E-01  8.50000000E-01
  8.50000000E-01  8.50000000E-01  8.50000000E-01  8.50000000E-01  8.50000000E-01
  8.50000000E-01  8.50000000E-01  8.50000000E-01  8.50000000E-01  8.50000000E-01
  8.50000000E-01  8.50000000E-01  8.50000000E-01  8.50000000E-01  8.50000000E-01
  8.50000000E-01  8.50000000E-01  8.50000000E-01  8.50000000E-01  8.50000000E-01
  8.50000000E-01  8.50000000E-01  8.50000000E-01  8.50000000E-01  8.50000000E-01
  8.50000000E-01  8.50000000E-01  8.50000000E-01  8.50000000E-01  8.50000000E-01
  8.50000000E-01  8.50000000E-01  8.50000000E-01  8.50000000E-01  8.50000000E-01
  8.50000000E-01  8.50000000E-01  8.50000000E-01  8.50000000E-01  8.50000000E-01
  8.50000000E-01  8.50000000E-01  8.50000000E-01  8.50000000E-01  8.50000000E-01
  8.50000000E-01  8.50000000E-01  8.50000000E-01  8.50000000E-01  8.50000000E-01
  8.50000000E-01  8.50000000E-01  8.50000000E-01  8.50000000E-01  8.50000000E-01
  8.50000000E-01  8.50000000E-01  8.50000000E-01  8.50000000E-01  8.50000000E-01
  8.50000000E-01  8.50000000E-01  8.50000000E-01  8.50000000E-01  8.50000000E-01
  8.50000000E-01  8.50000000E-01  8.50000000E-01  8.50000000E-01  8.50000000E-01
  8.50000000E-01  8.50000000E-01  8.50000000E-01  8.50000000E-01  8.50000000E-01
  8.50000000E-01  8.50000000E-01  8.50000000E-01  8.50000000E-01  8.50000000E-01
  8.50000000E-01  8.50000000E-01  8.50000000E-01  8.50000000E-01  8.50000000E-01
  8.50000000E-01  8.50000000E-01  8.50000000E-01  8.50000000E-01  8.50000000E-01
  8.50000000E-01  8.50000000E-01  8.50000000E-01  8.50000000E-01  8.50000000E-01
  8.50000000E-01  8.50000000E-01  8.50000000E-01  8.50000000E-01  8.50000000E-01
  8.50000000E-01  8.50000000E-01  8.50000000E-01  8.50000000E-01  8.50000000E-01
  8.50000000E-01  8.50000000E-01  8.50000000E-01  8.50000000E-01  8.50000000E-01
  8.50000000E-01  8.50000000E-01  8.50000000E-01  8.50000000E-01  8.50000000E-01
  8.50000000E-01  8.50000000E-01  8.50000000E-01  8.50000000E-01  8.50000000E-01
  8.50000000E-01  8.50000000E-01  8.50000000E-01  8.50000000E-01  8.50000000E-01
  8.50000000E-01  8.50000000E-01  8.50000000E-01  8.50000000E-01  8.50000000E-01
  8.50000000E-01  8.50000000E-01  8.50000000E-01  8.50000000E-01  8.50000000E-01
  8.50000000E-01  8.50000000E-01  8.50000000E-01  8.50000000E-01  8.50000000E-01
  8.50000000E-01  8.50000000E-01  8.50000000E-01  8.50000000E-01  8.50000000E-01
  8.50000000E-01  8.50000000E-01  8.50000000E-01  8.50000000E-01  8.50000000E-01
  8.50000000E-01  8.50000000E-01  8.50000000E-01  8.50000000E-01  8.50000000E-01
  8.50000000E-01  8.50000000E-01  8.50000000E-01  8.50000000E-01  8.50000000E-01
  8.50000000E-01  8.50000000E-01  8.50000000E-01  8.50000000E-01  8.50000000E-01
  8.50000000E-01  8.50000000E-01  8.50000000E-01  8.50000000E-01  8.50000000E-01
  8.50000000E-01  8.50000000E-01  8.50000000E-01  8.50000000E-01  8.50000000E-01
  8.50000000E-01  8.50000000E-01  8.50000000E-01  8.50000000E-01  8.50000000E-01
  8.50000000E-01  8.50000000E-01  8.50000000E-01  8.50000000E-01  8.50000000E-01
  8.50000000E-01  8.50000000E-01  8.50000000E-01  8.50000000E-01  8.50000000E-01
  8.50000000E-01  8.50000000E-01  8.50000000E-01  8.50000000E-01  8.50000000E-01
  8.50000000E-01  8.50000000E-01  8.50000000E-01  8.50000000E-01  8.50000000E-01
  8.50000000E-01  8.50000000E-01  8.50000000E-01  8.50000000E-01  8.50000000E-01
  8.50000000E-01  8.50000000E-01  8.50000000E-01  8.50000000E-01  8.50000000E-01
  8.50000000E-01  8.50000000E-01  8.50000000E-01  8.50000000E-01  8.50000000E-01
  8.50000000E-01  8.50000000E-01  8.50000000E-01  8.50000000E-01  8.50000000E-01
  8.50000000E-01  8.50000000E-01  8.50000000E-01  8.50000000E-01  8.50000000E-01
  8.50000000E-01  8.50000000E-01  8.50000000E-01  8.50000000E-01  8.50000000E-01
  8.50000000E-01  8.50000000E-01  8.50000000E-01  8.50000000E-01  8.50000000E-01
  8.50000000E-01  8.50000000E-01  8.50000000E-01  8.50000000E-01  8.50000000E-01
  8.50000000E-01  8.50000000E-01  8.50000000E-01  8.50000000E-01  8.50000000E-01
  8.50000000E-01  8.50000000E-01  8.50000000E-01  8.50000000E-01  8.50000000E-01
  8.50000000E-01  8.50000000E-01  8.50000000E-01  8.50000000E-01  8.50000000E-01
  8.50000000E-01  8.50000000E-01  8.50000000E-01  8.50000000E-01  8.50000000E-01
  8.50000000E-01  8.50000000E-01  8.50000000E-01  8.50000000E-01  8.50000000E-01
  8.50000000E-01  8.50000000E-01  8.50000000E-01  8.50000000E-01  8.50000000E-01
  8.50000000E-01  8.50000000E-01  8.50000000E-01  8.50000000E-01  8.50000000E-01
  8.50000000E-01  8.50000000E-01  8.50000000E-01  8.50000000E-01  8.50000000E-01
  8.50000000E-01  8.50000000E-01  8.50000000E-01  8.50000000E-01  8.50000000E-01
  8.50000000E-01  8.50000000E-01  8.50000000E-01  8.50000000E-01  8.50000000E-01
  8.50000000E-01  8.50000000E-01  8.50000000E-01  8.50000000E-01  8.50000000E-01
  8.50000000E-01  8.50000000E-01  8.50000000E-01  8.50000000E-01  8.50000000E-01
  8.50000000E-01  8.50000000E-01  8.50000000E-01  8.50000000E-01  8.50000000E-01
  8.50000000E-01  8.50000000E-01  8.50000000E-01  8.50000000E-01  8.50000000E-01
  8.50000000E-01  8.50000000E-01  8.50000000E-01  8.50000000E-01  8.50000000E-01
  8.50000000E-01  8.50000000E-01  8.50000000E-01  8.50000000E-01  8.50000000E-01
  8.50000000E-01  8.50000000E-01  8.50000000E-01  8.50000000E-01  8.50000000E-01
  8.50000000E-01  8.50000000E-01  8.50000000E-01  8.50000000E-01  8.50000000E-01
  8.50000000E-01  8.50000000E-01  8.50000000E-01  8.50000000E-01  8.50000000E-01
  8.50000000E-01  8.50000000E-01  8.50000000E-01  8.50000000E-01  8.50000000E-01
  8.50000000E-01  8.50000000E-01  8.50000000E-01  8.50000000E-01  8.50000000E-01
  8.50000000E-01  8.50000000E-01  8.50000000E-01  8.50000000E-01  8.50000000E-01
  8.50000000E-01  8.50000000E-01  8.50000000E-01  8.50000000E-01  8.50000000E-01
  8.50000000E-01  8.50000000E-01  8.50000000E-01  8.50000000E-01  8.50000000E-01
  8.50000000E-01  8.50000000E-01  8.50000000E-01  8.50000000E-01  8.50000000E-01
  8.50000000E-01  8.50000000E-01  8.50000000E-01  8.50000000E-01  8.50000000E-01
  8.50000000E-01  8.50000000E-01  8.50000000E-01  8.50000000E-01  8.50000000E-01
  8.50000000E-01  8.50000000E-01  8.50000000E-01  8.50000000E-01  8.50000000E-01
  8.50000000E-01  8.50000000E-01  8.50000000E-01  8.50000000E-01  8.50000000E-01
  8.50000000E-01  8.50000000E-01  8.50000000E-01  8.50000000E-01  8.50000000E-01
  8.50000000E-01  8.50000000E-01  8.50000000E-01  8.50000000E-01  8.50000000E-01
  8.50000000E-01  8.50000000E-01  8.50000000E-01  8.50000000E-01  8.50000000E-01
  8.50000000E-01  8.50000000E-01  8.50000000E-01  8.50000000E-01  8.50000000E-01
  8.50000000E-01  8.50000000E-01  8.50000000E-01  8.50000000E-01  8.50000000E-01
  8.50000000E-01  8.50000000E-01  8.50000000E-01  8.50000000E-01  8.50000000E-01
  8.50000000E-01  8.50000000E-01  8.50000000E-01  8.50000000E-01  8.50000000E-01
  8.50000000E-01  8.50000000E-01  8.50000000E-01  8.50000000E-01  8.50000000E-01
  8.50000000E-01  8.50000000E-01  8.50000000E-01  8.50000000E-01  8.50000000E-01
  8.50000000E-01  8.50000000E-01  8.50000000E-01  8.50000000E-01  8.50000000E-01
  8.50000000E-01  8.50000000E-01  8.50000000E-01  8.50000000E-01  8.50000000E-01
  8.50000000E-01  8.50000000E-01  8.50000000E-01  8.50000000E-01  8.50000000E-01
  8.50000000E-01  8.50000000E-01  8.50000000E-01  8.50000000E-01  8.50000000E-01
  8.50000000E-01  8.50000000E-01  8.50000000E-01  8.50000000E-01  8.50000000E-01
  8.50000000E-01  8.50000000E-01  8.50000000E-01  8.50000000E-01  8.50000000E-01
  8.50000000E-01  8.50000000E-01  8.50000000E-01  8.50000000E-01  8.50000000E-01
  8.50000000E-01  8.50000000E-01  8.50000000E-01  8.50000000E-01  8.50000000E-01
  8.50000000E-01  8.50000000E-01  8.50000000E-01  8.50000000E-01  8.50000000E-01
  8.50000000E-01  8.50000000E-01  8.50000000E-01  8.50000000E-01  8.50000000E-01
  8.50000000E-01  8.50000000E-01  8.50000000E-01  8.50000000E-01  8.50000000E-01
  8.50000000E-01  8.50000000E-01  8.50000000E-01  8.50000000E-01  8.50000000E-01
  8.50000000E-01  8.50000000E-01  8.50000000E-01  8.50000000E-01  8.50000000E-01
  8.50000000E-01  8.50000000E-01  8.50000000E-01  8.50000000E-01  8.50000000E-01
  8.50000000E-01  8.50000000E-01  8.50000000E-01  8.50000000E-01  8.50000000E-01
  8.50000000E-01  8.50000000E-01  8.50000000E-01  8.50000000E-01  8.50000000E-01
  8.50000000E-01  8.50000000E-01  8.50000000E-01  8.50000000E-01  8.50000000E-01
  8.50000000E-01  8.50000000E-01  8.50000000E-01  8.50000000E-01  8.50000000E-01
  8.50000000E-01  8.50000000E-01  8.50000000E-01  8.50000000E-01  8.50000000E-01
  8.50000000E-01  8.50000000E-01  8.50000000E-01  8.50000000E-01  8.50000000E-01
  8.50000000E-01  8.50000000E-01  8.50000000E-01  8.50000000E-01  8.50000000E-01
  8.50000000E-01  8.50000000E-01  8.50000000E-01  8.50000000E-01  8.50000000E-01
  8.50000000E-01  8.50000000E-01  8.50000000E-01  8.50000000E-01  8.50000000E-01
  8.50000000E-01  8.50000000E-01  8.50000000E-01  8.50000000E-01  8.50000000E-01
  8.50000000E-01  8.50000000E-01  8.50000000E-01  8.50000000E-01  8.50000000E-01
  8.50000000E-01  8.50000000E-01  8.50000000E-01  8.50000000E-01  8.50000000E-01
  8.50000000E-01  8.50000000E-01  8.50000000E-01  8.50000000E-01  8.50000000E-01
  8.50000000E-01  8.50000000E-01  8.50000000E-01  8.50000000E-01  8.50000000E-01
  8.50000000E-01  8.50000000E-01  8.50000000E-01  8.50000000E-01  8.50000000E-01
  8.50000000E-01  8.50000000E-01  8.50000000E-01  8.50000000E-01  8.50000000E-01
  8.50000000E-01  8.50000000E-01  8.50000000E-01  8.50000000E-01  8.50000000E-01
  8.50000000E-01  8.50000000E-01  8.50000000E-01  8.50000000E-01  8.50000000E-01
  8.50000000E-01  8.50000000E-01  8.50000000E-01  8.50000000E-01  8.50000000E-01
  8.50000000E-01  8.50000000E-01  8.50000000E-01  8.50000000E-01  8.50000000E-01
  8.50000000E-01  8.50000000E-01  8.50000000E-01  8.50000000E-01  8.50000000E-01
  8.50000000E-01  8.50000000E-01  8.50000000E-01  8.50000000E-01  8.50000000E-01
  8.50000000E-01  8.50000000E-01  8.50000000E-01  8.50000000E-01  8.50000000E-01
  8.50000000E-01  8.50000000E-01  8.50000000E-01  8.50000000E-01  8.50000000E-01
  8.50000000E-01  8.50000000E-01  8.50000000E-01  8.50000000E-01  8.50000000E-01
  8.50000000E-01  8.50000000E-01  8.50000000E-01  8.50000000E-01  8.50000000E-01
  8.50000000E-01  8.50000000E-01  8.50000000E-01  8.50000000E-01  8.50000000E-01
  8.50000000E-01  8.50000000E-01  8.50000000E-01  8.50000000E-01  8.50000000E-01
  8.50000000E-01  8.50000000E-01  8.50000000E-01  8.50000000E-01  8.50000000E-01
  8.50000000E-01  8.50000000E-01  8.50000000E-01  8.50000000E-01  8.50000000E-01
  8.50000000E-01  8.50000000E-01  8.50000000E-01  8.50000000E-01  8.50000000E-01
  8.50000000E-01  8.50000000E-01  8.50000000E-01  8.50000000E-01  8.50000000E-01
  8.50000000E-01  8.50000000E-01  8.50000000E-01  8.50000000E-01  8.50000000E-01
  8.50000000E-01  8.50000000E-01  8.50000000E-01  8.50000000E-01  8.50000000E-01
  8.50000000E-01  8.50000000E-01  8.50000000E-01  8.50000000E-01  8.50000000E-01
  8.50000000E-01  8.50000000E-01  8.50000000E-01  8.50000000E-01  8.50000000E-01
  8.50000000E-01  8.50000000E-01  8.50000000E-01  8.50000000E-01  8.50000000E-01
  8.50000000E-01  8.50000000E-01  8.50000000E-01  8.50000000E-01  8.50000000E-01
  8.50000000E-01  8.50000000E-01  8.50000000E-01  8.50000000E-01  8.50000000E-01
  8.50000000E-01  8.50000000E-01  8.50000000E-01  8.50000000E-01  8.50000000E-01
  8.50000000E-01  8.50000000E-01  8.50000000E-01  8.50000000E-01  8.50000000E-01
  8.50000000E-01  8.50000000E-01  8.50000000E-01  8.50000000E-01  8.50000000E-01
  8.50000000E-01  8.50000000E-01  8.50000000E-01  8.50000000E-01  8.50000000E-01
  8.50000000E-01  8.50000000E-01  8.50000000E-01  8.50000000E-01  8.50000000E-01
  8.50000000E-01  8.50000000E-01  8.50000000E-01  8.50000000E-01  8.50000000E-01
  8.50000000E-01  8.50000000E-01  8.50000000E-01  8.50000000E-01  8.50000000E-01
  8.50000000E-01  8.50000000E-01  8.50000000E-01  8.50000000E-01  8.50000000E-01
  8.50000000E-01  8.50000000E-01  8.50000000E-01  8.50000000E-01  8.50000000E-01
  8.50000000E-01  8.50000000E-01  8.50000000E-01  8.50000000E-01  8.50000000E-01
  8.50000000E-01  8.50000000E-01  8.50000000E-01  8.50000000E-01  8.50000000E-01
  8.50000000E-01  8.50000000E-01  8.50000000E-01  8.50000000E-01  8.50000000E-01
  8.50000000E-01  8.50000000E-01  8.50000000E-01  8.50000000E-01  8.50000000E-01
  8.50000000E-01  8.50000000E-01  8.50000000E-01  8.50000000E-01  8.50000000E-01
  8.50000000E-01  8.50000000E-01  8.50000000E-01  8.50000000E-01  8.50000000E-01
  8.50000000E-01  8.50000000E-01  8.50000000E-01  8.50000000E-01  8.50000000E-01
  8.50000000E-01  8.50000000E-01  8.50000000E-01  8.50000000E-01  8.50000000E-01
  8.50000000E-01  8.50000000E-01  8.50000000E-01  8.50000000E-01  8.50000000E-01
  8.50000000E-01  8.50000000E-01  8.50000000E-01  8.50000000E-01  8.50000000E-01
  8.50000000E-01  8.50000000E-01  8.50000000E-01  8.50000000E-01  8.50000000E-01
  8.50000000E-01  8.50000000E-01  8.50000000E-01  8.50000000E-01  8.50000000E-01
  8.50000000E-01  8.50000000E-01  8.50000000E-01  8.50000000E-01  8.50000000E-01
  8.50000000E-01  8.50000000E-01  8.50000000E-01  8.50000000E-01  8.50000000E-01
  8.50000000E-01  8.50000000E-01  8.50000000E-01  8.50000000E-01  8.50000000E-01
  8.50000000E-01  8.50000000E-01  8.50000000E-01  8.50000000E-01  8.50000000E-01
  8.50000000E-01  8.50000000E-01  8.50000000E-01  8.50000000E-01  8.50000000E-01
  8.50000000E-01  8.50000000E-01  8.50000000E-01  8.50000000E-01  8.50000000E-01
  8.50000000E-01  8.50000000E-01  8.50000000E-01  8.50000000E-01  8.50000000E-01
  8.50000000E-01  8.50000000E-01  8.50000000E-01  8.50000000E-01  8.50000000E-01
  8.50000000E-01  8.50000000E-01  8.50000000E-01  8.50000000E-01  8.50000000E-01
  8.50000000E-01  8.50000000E-01  8.50000000E-01  8.50000000E-01  8.50000000E-01
  8.50000000E-01  8.50000000E-01  8.50000000E-01  8.50000000E-01  8.50000000E-01
  8.50000000E-01  8.50000000E-01  8.50000000E-01  8.50000000E-01  8.50000000E-01
  8.50000000E-01  8.50000000E-01  8.50000000E-01  8.50000000E-01  8.50000000E-01
  8.50000000E-01  8.50000000E-01  8.50000000E-01  8.50000000E-01  8.50000000E-01
  8.50000000E-01  8.50000000E-01  8.50000000E-01  8.50000000E-01  8.50000000E-01
  8.50000000E-01  8.50000000E-01  8.50000000E-01  8.50000000E-01  8.50000000E-01
  8.50000000E-01  8.50000000E-01  8.50000000E-01  8.50000000E-01  8.50000000E-01
  8.50000000E-01  8.50000000E-01  8.50000000E-01  8.50000000E-01  8.50000000E-01
  8.50000000E-01  8.50000000E-01  8.50000000E-01  8.50000000E-01  8.50000000E-01
  8.50000000E-01  8.50000000E-01  8.50000000E-01  8.50000000E-01  8.50000000E-01
  8.50000000E-01  8.50000000E-01  8.50000000E-01  8.50000000E-01  8.50000000E-01
  8.50000000E-01  8.50000000E-01  8.50000000E-01  8.50000000E-01  8.50000000E-01
  8.50000000E-01  8.50000000E-01  8.50000000E-01  8.50000000E-01  8.50000000E-01
  8.50000000E-01  8.50000000E-01  8.50000000E-01  8.50000000E-01  8.50000000E-01
  8.50000000E-01  8.50000000E-01  8.50000000E-01  8.50000000E-01  8.50000000E-01
  8.50000000E-01  8.50000000E-01  8.50000000E-01  8.50000000E-01  8.50000000E-01
  8.50000000E-01  8.50000000E-01  8.50000000E-01  8.50000000E-01  8.50000000E-01
  8.50000000E-01  8.50000000E-01  8.50000000E-01  8.50000000E-01  8.50000000E-01
  8.50000000E-01  8.50000000E-01  8.50000000E-01  8.50000000E-01  8.50000000E-01
  8.50000000E-01  8.50000000E-01  8.50000000E-01  8.50000000E-01  8.50000000E-01
  8.50000000E-01  8.50000000E-01  8.50000000E-01  8.50000000E-01  8.50000000E-01
  8.50000000E-01  8.50000000E-01  8.50000000E-01  8.50000000E-01  8.50000000E-01
  8.50000000E-01  8.50000000E-01  8.50000000E-01  8.50000000E-01  8.50000000E-01
  8.50000000E-01  8.50000000E-01  8.50000000E-01  8.50000000E-01  8.50000000E-01
  8.50000000E-01  8.50000000E-01  8.50000000E-01  8.50000000E-01  8.50000000E-01
  8.50000000E-01  8.50000000E-01  8.50000000E-01  8.50000000E-01  8.50000000E-01
  8.50000000E-01  8.50000000E-01  8.50000000E-01  8.50000000E-01  8.50000000E-01
  8.50000000E-01  8.50000000E-01  8.50000000E-01  8.50000000E-01  8.50000000E-01
  8.50000000E-01  8.50000000E-01  8.50000000E-01  8.50000000E-01  8.50000000E-01
  8.50000000E-01  8.50000000E-01  8.50000000E-01  8.50000000E-01  8.50000000E-01
  8.50000000E-01  8.50000000E-01  8.50000000E-01  8.50000000E-01  8.50000000E-01
  8.50000000E-01  8.50000000E-01  8.50000000E-01  8.50000000E-01  8.50000000E-01
  8.50000000E-01  8.50000000E-01  8.50000000E-01  8.50000000E-01  8.50000000E-01
  8.50000000E-01  8.50000000E-01  8.50000000E-01  8.50000000E-01  8.50000000E-01
  8.50000000E-01  8.50000000E-01  8.50000000E-01  8.50000000E-01  8.50000000E-01
  8.50000000E-01  8.50000000E-01  8.50000000E-01  8.50000000E-01  8.50000000E-01
  8.50000000E-01  8.50000000E-01  8.50000000E-01  8.50000000E-01  8.50000000E-01
  8.50000000E-01  8.50000000E-01  8.50000000E-01  8.50000000E-01  8.50000000E-01
  8.50000000E-01  8.50000000E-01  8.50000000E-01  8.50000000E-01  8.50000000E-01
  8.50000000E-01  8.50000000E-01  8.50000000E-01  8.50000000E-01  8.50000000E-01
  8.50000000E-01  8.50000000E-01  8.50000000E-01  8.50000000E-01  8.50000000E-01
  8.50000000E-01  8.50000000E-01  8.50000000E-01  8.50000000E-01  8.50000000E-01
  8.50000000E-01  8.50000000E-01  8.50000000E-01  8.50000000E-01  8.50000000E-01
  8.50000000E-01  8.50000000E-01  8.50000000E-01  8.50000000E-01  8.50000000E-01
  8.50000000E-01  8.50000000E-01  8.50000000E-01  8.50000000E-01  8.50000000E-01
  8.50000000E-01  8.50000000E-01  8.50000000E-01  8.50000000E-01  8.50000000E-01
  8.50000000E-01  8.50000000E-01  8.50000000E-01  8.50000000E-01  8.50000000E-01
  8.50000000E-01  8.50000000E-01  8.50000000E-01  8.50000000E-01  8.50000000E-01
  8.50000000E-01  8.50000000E-01  8.50000000E-01  8.50000000E-01  8.50000000E-01
  8.50000000E-01  8.50000000E-01  8.50000000E-01  8.50000000E-01  8.50000000E-01
  8.50000000E-01  8.50000000E-01  8.50000000E-01  8.50000000E-01  8.50000000E-01
  8.50000000E-01  8.50000000E-01  8.50000000E-01  8.50000000E-01  8.50000000E-01
  8.50000000E-01  8.50000000E-01  8.50000000E-01  8.50000000E-01  8.50000000E-01
  8.50000000E-01  8.50000000E-01  8.50000000E-01  8.50000000E-01  8.50000000E-01
  8.50000000E-01  8.50000000E-01  8.50000000E-01  8.50000000E-01  8.50000000E-01
  8.50000000E-01  8.50000000E-01  8.50000000E-01  8.50000000E-01  8.50000000E-01
  8.50000000E-01  8.50000000E-01  8.50000000E-01  8.50000000E-01  8.50000000E-01
  8.50000000E-01  8.50000000E-01  8.50000000E-01  8.50000000E-01  8.50000000E-01
  8.50000000E-01  8.50000000E-01  8.50000000E-01  8.50000000E-01  8.50000000E-01
  8.50000000E-01  8.50000000E-01  8.50000000E-01  8.50000000E-01  8.50000000E-01
  8.50000000E-01  8.50000000E-01  8.50000000E-01  8.50000000E-01  8.50000000E-01
  8.50000000E-01  8.50000000E-01  8.50000000E-01  8.50000000E-01  8.50000000E-01
  8.50000000E-01  8.50000000E-01  8.50000000E-01  8.50000000E-01  8.50000000E-01
  8.50000000E-01  8.50000000E-01  8.50000000E-01  8.50000000E-01  8.50000000E-01
  8.50000000E-01  8.50000000E-01  8.50000000E-01  8.50000000E-01  8.50000000E-01
  8.50000000E-01  8.50000000E-01  8.50000000E-01  8.50000000E-01  8.50000000E-01
  8.50000000E-01  8.50000000E-01  8.50000000E-01  8.50000000E-01  8.50000000E-01
  8.50000000E-01  8.50000000E-01  8.50000000E-01  8.50000000E-01  8.50000000E-01
  8.50000000E-01  8.50000000E-01  8.50000000E-01  8.50000000E-01  8.50000000E-01
  8.50000000E-01  8.50000000E-01  8.50000000E-01  8.50000000E-01  8.50000000E-01
  8.50000000E-01  8.50000000E-01  8.50000000E-01  8.50000000E-01  8.50000000E-01
  8.50000000E-01  8.50000000E-01  8.50000000E-01  8.50000000E-01  8.50000000E-01
  8.50000000E-01  8.50000000E-01  8.50000000E-01  8.50000000E-01  8.50000000E-01
  8.50000000E-01  8.50000000E-01  8.50000000E-01  8.50000000E-01  8.50000000E-01
  8.50000000E-01  8.50000000E-01  8.50000000E-01  8.50000000E-01  8.50000000E-01
  8.50000000E-01  8.50000000E-01  8.50000000E-01  8.50000000E-01  8.50000000E-01
  8.50000000E-01  8.50000000E-01  8.50000000E-01  8.50000000E-01  8.50000000E-01
  8.50000000E-01  8.50000000E-01  8.50000000E-01  8.50000000E-01  8.50000000E-01
  8.50000000E-01  8.50000000E-01  8.50000000E-01  8.50000000E-01  8.50000000E-01
  8.50000000E-01  8.50000000E-01  8.50000000E-01  8.50000000E-01  8.50000000E-01
  8.50000000E-01  8.50000000E-01  8.50000000E-01  8.50000000E-01  8.50000000E-01
  8.50000000E-01  8.50000000E-01  8.50000000E-01  8.50000000E-01  8.50000000E-01
  8.50000000E-01  8.50000000E-01  8.50000000E-01  8.50000000E-01  8.50000000E-01
  8.50000000E-01  8.50000000E-01  8.50000000E-01  8.50000000E-01  8.50000000E-01
  8.50000000E-01  8.50000000E-01  8.50000000E-01  8.50000000E-01  8.50000000E-01
  8.50000000E-01  8.50000000E-01  8.50000000E-01  8.50000000E-01  8.50000000E-01
  8.50000000E-01  8.50000000E-01  8.50000000E-01  8.50000000E-01  8.50000000E-01
  8.50000000E-01  8.50000000E-01  8.50000000E-01  8.50000000E-01  8.50000000E-01
  8.50000000E-01  8.50000000E-01  8.50000000E-01  8.50000000E-01  8.50000000E-01
  8.50000000E-01  8.50000000E-01  8.50000000E-01  8.50000000E-01  8.50000000E-01
  8.50000000E-01  8.50000000E-01  8.50000000E-01  8.50000000E-01  8.50000000E-01
  8.50000000E-01  8.50000000E-01  8.50000000E-01  8.50000000E-01  8.50000000E-01
  8.50000000E-01  8.50000000E-01  8.50000000E-01  8.50000000E-01  8.50000000E-01
  8.50000000E-01  8.50000000E-01  8.50000000E-01  8.50000000E-01  8.50000000E-01
  8.50000000E-01  8.50000000E-01  8.50000000E-01  8.50000000E-01  8.50000000E-01
  8.50000000E-01  8.50000000E-01  8.50000000E-01  8.50000000E-01  8.50000000E-01
  8.50000000E-01  8.50000000E-01  8.50000000E-01  8.50000000E-01  8.50000000E-01
  8.50000000E-01  8.50000000E-01  8.50000000E-01  8.50000000E-01  8.50000000E-01
  8.50000000E-01  8.50000000E-01  8.50000000E-01  8.50000000E-01  8.50000000E-01
  8.50000000E-01  8.50000000E-01  8.50000000E-01  8.50000000E-01  8.50000000E-01
  8.50000000E-01  8.50000000E-01  8.50000000E-01  8.50000000E-01  8.50000000E-01
  8.50000000E-01  8.50000000E-01  8.50000000E-01  8.50000000E-01  8.50000000E-01
  8.50000000E-01  8.50000000E-01  8.50000000E-01  8.50000000E-01  8.50000000E-01
  8.50000000E-01  8.50000000E-01  8.50000000E-01  8.50000000E-01  8.50000000E-01
  8.50000000E-01  8.50000000E-01  8.50000000E-01  8.50000000E-01  8.50000000E-01
  8.50000000E-01  8.50000000E-01  8.50000000E-01  8.50000000E-01  8.50000000E-01
  8.50000000E-01  8.50000000E-01  8.50000000E-01  8.50000000E-01  8.50000000E-01
  8.50000000E-01  8.50000000E-01  8.50000000E-01  8.50000000E-01  8.50000000E-01
  8.50000000E-01  8.50000000E-01  8.50000000E-01  8.50000000E-01  8.50000000E-01
  8.50000000E-01  8.50000000E-01  8.50000000E-01  8.50000000E-01  8.50000000E-01
  8.50000000E-01  8.50000000E-01  8.50000000E-01  8.50000000E-01  8.50000000E-01
  8.50000000E-01  8.50000000E-01  8.50000000E-01  8.50000000E-01  8.50000000E-01
  8.50000000E-01  8.50000000E-01  8.50000000E-01  8.50000000E-01  8.50000000E-01
  8.50000000E-01  8.50000000E-01  8.50000000E-01  8.50000000E-01  8.50000000E-01
  8.50000000E-01  8.50000000E-01  8.50000000E-01  8.50000000E-01  8.50000000E-01
  8.50000000E-01  8.50000000E-01  8.50000000E-01  8.50000000E-01  8.50000000E-01
  8.50000000E-01  8.50000000E-01  8.50000000E-01  8.50000000E-01  8.50000000E-01
  8.50000000E-01  8.50000000E-01  8.50000000E-01  8.50000000E-01  8.50000000E-01
  8.50000000E-01  8.50000000E-01  8.50000000E-01  8.50000000E-01  8.50000000E-01
  8.50000000E-01  8.50000000E-01  8.50000000E-01  8.50000000E-01  8.50000000E-01
  8.50000000E-01  8.50000000E-01  8.50000000E-01  8.50000000E-01  8.50000000E-01
  8.50000000E-01  8.50000000E-01  8.50000000E-01  8.50000000E-01  8.50000000E-01
  8.50000000E-01  8.50000000E-01  8.50000000E-01  8.50000000E-01  8.50000000E-01
  8.50000000E-01  8.50000000E-01  8.50000000E-01  8.50000000E-01  8.50000000E-01
  8.50000000E-01  8.50000000E-01  8.50000000E-01  8.50000000E-01  8.50000000E-01
  8.50000000E-01  8.50000000E-01  8.50000000E-01  8.50000000E-01  8.50000000E-01
  8.50000000E-01  8.50000000E-01  8.50000000E-01  8.50000000E-01  8.50000000E-01
  8.50000000E-01  8.50000000E-01  8.50000000E-01  8.50000000E-01  8.50000000E-01
  8.50000000E-01  8.50000000E-01  8.50000000E-01  8.50000000E-01  8.50000000E-01
  8.50000000E-01  8.50000000E-01  8.50000000E-01  8.50000000E-01  8.50000000E-01
  8.50000000E-01  8.50000000E-01  8.50000000E-01  8.50000000E-01  8.50000000E-01
  8.50000000E-01  8.50000000E-01  8.50000000E-01  8.50000000E-01  8.50000000E-01
  8.50000000E-01  8.50000000E-01  8.50000000E-01  8.50000000E-01  8.50000000E-01
  8.50000000E-01  8.50000000E-01  8.50000000E-01  8.50000000E-01  8.50000000E-01
  8.50000000E-01  8.50000000E-01  8.50000000E-01  8.50000000E-01  8.50000000E-01
  8.50000000E-01  8.50000000E-01  8.50000000E-01  8.50000000E-01  8.50000000E-01
  8.50000000E-01  8.50000000E-01  8.50000000E-01  8.50000000E-01  8.50000000E-01
  8.50000000E-01  8.50000000E-01  8.50000000E-01  8.50000000E-01  8.50000000E-01
  8.50000000E-01  8.50000000E-01  8.50000000E-01  8.50000000E-01  8.50000000E-01
  8.50000000E-01  8.50000000E-01  8.50000000E-01  8.50000000E-01  8.50000000E-01
  8.50000000E-01  8.50000000E-01  8.50000000E-01  8.50000000E-01  8.50000000E-01
  8.50000000E-01  8.50000000E-01  8.50000000E-01  8.50000000E-01  8.50000000E-01
  8.50000000E-01  8.50000000E-01  8.50000000E-01  8.50000000E-01  8.50000000E-01
  8.50000000E-01  8.50000000E-01  8.50000000E-01  8.50000000E-01  8.50000000E-01
  8.50000000E-01  8.50000000E-01  8.50000000E-01  8.50000000E-01  8.50000000E-01
  8.50000000E-01  8.50000000E-01  8.50000000E-01  8.50000000E-01  8.50000000E-01
  8.50000000E-01  8.50000000E-01  8.50000000E-01  8.50000000E-01  8.50000000E-01
  8.50000000E-01  8.50000000E-01  8.50000000E-01  8.50000000E-01  8.50000000E-01
  8.50000000E-01  8.50000000E-01  8.50000000E-01  8.50000000E-01  8.50000000E-01
  8.50000000E-01  8.50000000E-01  8.50000000E-01  8.50000000E-01  8.50000000E-01
  8.50000000E-01  8.50000000E-01  8.50000000E-01  8.50000000E-01  8.50000000E-01
  8.50000000E-01  8.50000000E-01  8.50000000E-01  8.50000000E-01  8.50000000E-01
  8.50000000E-01  8.50000000E-01  8.50000000E-01  8.50000000E-01  8.50000000E-01
  8.50000000E-01  8.50000000E-01  8.50000000E-01  8.50000000E-01  8.50000000E-01
  8.50000000E-01  8.50000000E-01  8.50000000E-01  8.50000000E-01  8.50000000E-01
  8.50000000E-01  8.50000000E-01  8.50000000E-01  8.50000000E-01  8.50000000E-01
  8.50000000E-01  8.50000000E-01  8.50000000E-01  8.50000000E-01  8.50000000E-01
  8.50000000E-01  8.50000000E-01  8.50000000E-01  8.50000000E-01  8.50000000E-01
  8.50000000E-01  8.50000000E-01  8.50000000E-01  8.50000000E-01  8.50000000E-01
  8.50000000E-01  8.50000000E-01  8.50000000E-01  8.50000000E-01  8.50000000E-01
  8.50000000E-01  8.50000000E-01  8.50000000E-01  8.50000000E-01  8.50000000E-01
  8.50000000E-01  8.50000000E-01  8.50000000E-01  8.50000000E-01  8.50000000E-01
  8.50000000E-01  8.50000000E-01  8.50000000E-01  8.50000000E-01  8.50000000E-01
  8.50000000E-01  8.50000000E-01  8.50000000E-01  8.50000000E-01  8.50000000E-01
  8.50000000E-01  8.50000000E-01  8.50000000E-01  8.50000000E-01  8.50000000E-01
  8.50000000E-01  8.50000000E-01  8.50000000E-01  8.50000000E-01  8.50000000E-01
  8.50000000E-01  8.50000000E-01  8.50000000E-01  8.50000000E-01  8.50000000E-01
  8.50000000E-01  8.50000000E-01  8.50000000E-01  8.50000000E-01  8.50000000E-01
  8.50000000E-01  8.50000000E-01  8.50000000E-01  8.50000000E-01  8.50000000E-01
  8.50000000E-01  8.50000000E-01  8.50000000E-01  8.50000000E-01  8.50000000E-01
  8.50000000E-01  8.50000000E-01  8.50000000E-01  8.50000000E-01  8.50000000E-01
  8.50000000E-01  8.50000000E-01  8.50000000E-01  8.50000000E-01  8.50000000E-01
  8.50000000E-01  8.50000000E-01  8.50000000E-01  8.50000000E-01  8.50000000E-01
  8.50000000E-01  8.50000000E-01  8.50000000E-01  8.50000000E-01  8.50000000E-01
  8.50000000E-01  8.50000000E-01  8.50000000E-01  8.50000000E-01  8.50000000E-01
  8.50000000E-01  8.50000000E-01  8.50000000E-01  8.50000000E-01  8.50000000E-01
  8.50000000E-01  8.50000000E-01  8.50000000E-01  8.50000000E-01  8.50000000E-01
  8.50000000E-01  8.50000000E-01  8.50000000E-01  8.50000000E-01  8.50000000E-01
  8.50000000E-01  8.50000000E-01  8.50000000E-01  8.50000000E-01  8.50000000E-01
  8.50000000E-01  8.50000000E-01  8.50000000E-01  8.50000000E-01  8.50000000E-01
  8.50000000E-01  8.50000000E-01  8.50000000E-01  8.50000000E-01  8.50000000E-01
  8.50000000E-01  8.50000000E-01  8.50000000E-01  8.50000000E-01  8.50000000E-01
  8.50000000E-01  8.50000000E-01  8.50000000E-01  8.50000000E-01  8.50000000E-01
  8.50000000E-01  8.50000000E-01  8.50000000E-01  8.50000000E-01  8.50000000E-01
  8.50000000E-01  8.50000000E-01  8.50000000E-01  8.50000000E-01  8.50000000E-01
  8.50000000E-01  8.50000000E-01  8.50000000E-01  8.50000000E-01  8.50000000E-01
  8.50000000E-01  8.50000000E-01  8.50000000E-01  8.50000000E-01  8.50000000E-01
  8.50000000E-01  8.50000000E-01  8.50000000E-01  8.50000000E-01  8.50000000E-01
  8.50000000E-01  8.50000000E-01  8.50000000E-01  8.50000000E-01  8.50000000E-01
  8.50000000E-01  8.50000000E-01  8.50000000E-01  8.50000000E-01  8.50000000E-01
  8.50000000E-01  8.50000000E-01  8.50000000E-01  8.50000000E-01  8.50000000E-01
  8.50000000E-01  8.50000000E-01  8.50000000E-01  8.50000000E-01  8.50000000E-01
  8.50000000E-01  8.50000000E-01  8.50000000E-01  8.50000000E-01  8.50000000E-01
  8.50000000E-01  8.50000000E-01  8.50000000E-01  8.50000000E-01  8.50000000E-01
  8.50000000E-01  8.50000000E-01  8.50000000E-01  8.50000000E-01  8.50000000E-01
  8.50000000E-01  8.50000000E-01  8.50000000E-01  8.50000000E-01  8.50000000E-01
  8.50000000E-01  8.50000000E-01  8.50000000E-01  8.50000000E-01  8.50000000E-01
  8.50000000E-01  8.50000000E-01  8.50000000E-01  8.50000000E-01  8.50000000E-01
  8.50000000E-01  8.50000000E-01  8.50000000E-01  8.50000000E-01  8.50000000E-01
  8.50000000E-01  8.50000000E-01  8.50000000E-01  8.50000000E-01  8.50000000E-01
  8.50000000E-01  8.50000000E-01  8.50000000E-01  8.50000000E-01  8.50000000E-01
  8.50000000E-01  8.50000000E-01  8.50000000E-01  8.50000000E-01  8.50000000E-01
  8.50000000E-01  8.50000000E-01  8.50000000E-01  8.50000000E-01  8.50000000E-01
  8.50000000E-01  8.50000000E-01  8.50000000E-01  8.50000000E-01  8.50000000E-01
  8.50000000E-01  8.50000000E-01  8.50000000E-01  8.50000000E-01  8.50000000E-01
  8.50000000E-01  8.50000000E-01  8.50000000E-01  8.50000000E-01  8.50000000E-01
  8.50000000E-01  8.50000000E-01  8.50000000E-01  8.50000000E-01  8.50000000E-01
  8.50000000E-01  8.50000000E-01  8.50000000E-01  8.50000000E-01  8.50000000E-01
  8.50000000E-01  8.50000000E-01  8.50000000E-01  8.50000000E-01  8.50000000E-01
  8.50000000E-01  8.50000000E-01  8.50000000E-01  8.50000000E-01  8.50000000E-01
  8.50000000E-01  8.50000000E-01  8.50000000E-01  8.50000000E-01  8.50000000E-01
  8.50000000E-01  8.50000000E-01  8.50000000E-01  8.50000000E-01  8.50000000E-01
  8.50000000E-01  8.50000000E-01  8.50000000E-01  8.50000000E-01  8.50000000E-01
  8.50000000E-01  8.50000000E-01  8.50000000E-01  8.50000000E-01  8.50000000E-01
  8.50000000E-01  8.50000000E-01  8.50000000E-01  8.50000000E-01  8.50000000E-01
  8.50000000E-01  8.50000000E-01  8.50000000E-01  8.50000000E-01  8.50000000E-01
  8.50000000E-01  8.50000000E-01  8.50000000E-01  8.50000000E-01  8.50000000E-01
  8.50000000E-01  8.50000000E-01  8.50000000E-01  8.50000000E-01  8.50000000E-01
  8.50000000E-01  8.50000000E-01  8.50000000E-01  8.50000000E-01  8.50000000E-01
  8.50000000E-01  8.50000000E-01  8.50000000E-01  8.50000000E-01  8.50000000E-01
  8.50000000E-01  8.50000000E-01  8.50000000E-01  8.50000000E-01  8.50000000E-01
  8.50000000E-01  8.50000000E-01  8.50000000E-01  8.50000000E-01  8.50000000E-01
  8.50000000E-01  8.50000000E-01  8.50000000E-01  8.50000000E-01  8.50000000E-01
  8.50000000E-01  8.50000000E-01  8.50000000E-01  8.50000000E-01  8.50000000E-01
  8.50000000E-01  8.50000000E-01  8.50000000E-01  8.50000000E-01  8.50000000E-01
  8.50000000E-01  8.50000000E-01  8.50000000E-01  8.50000000E-01  8.50000000E-01
  8.50000000E-01  8.50000000E-01  8.50000000E-01  8.50000000E-01  8.50000000E-01
  8.50000000E-01  8.50000000E-01  8.50000000E-01  8.50000000E-01  8.50000000E-01
  8.50000000E-01  8.50000000E-01  8.50000000E-01  8.50000000E-01  8.50000000E-01
  8.50000000E-01  8.50000000E-01  8.50000000E-01  8.50000000E-01  8.50000000E-01
  8.50000000E-01  8.50000000E-01  8.50000000E-01  8.50000000E-01  8.50000000E-01
  8.50000000E-01  8.50000000E-01  8.50000000E-01  8.50000000E-01  8.50000000E-01
  8.50000000E-01  8.50000000E-01  8.50000000E-01  8.50000000E-01  8.50000000E-01
  8.50000000E-01  8.50000000E-01  8.50000000E-01  8.50000000E-01  8.50000000E-01
  8.50000000E-01  8.50000000E-01  8.50000000E-01  8.50000000E-01  8.50000000E-01
  8.50000000E-01  8.50000000E-01  8.50000000E-01  8.50000000E-01  8.50000000E-01
  8.50000000E-01  8.50000000E-01  8.50000000E-01  8.50000000E-01  8.50000000E-01
  8.50000000E-01  8.50000000E-01  8.50000000E-01  8.50000000E-01  8.50000000E-01
  8.50000000E-01  8.50000000E-01  8.50000000E-01  8.50000000E-01  8.50000000E-01
  8.50000000E-01  8.50000000E-01  8.50000000E-01  8.50000000E-01  8.50000000E-01
  8.50000000E-01  8.50000000E-01  8.50000000E-01  8.50000000E-01  8.50000000E-01
  8.50000000E-01  8.50000000E-01  8.50000000E-01  8.50000000E-01  8.50000000E-01
  8.50000000E-01  8.50000000E-01  8.50000000E-01  8.50000000E-01  8.50000000E-01
  8.50000000E-01  8.50000000E-01  8.50000000E-01  8.50000000E-01  8.50000000E-01
  8.50000000E-01  8.50000000E-01  8.50000000E-01  8.50000000E-01  8.50000000E-01
  8.50000000E-01  8.50000000E-01  8.50000000E-01  8.50000000E-01  8.50000000E-01
  8.50000000E-01  8.50000000E-01  8.50000000E-01  8.50000000E-01  8.50000000E-01
  8.50000000E-01  8.50000000E-01  8.50000000E-01  8.50000000E-01  8.50000000E-01
  8.50000000E-01  8.50000000E-01  8.50000000E-01  8.50000000E-01  8.50000000E-01
  8.50000000E-01  8.50000000E-01  8.50000000E-01  8.50000000E-01  8.50000000E-01
  8.50000000E-01  8.50000000E-01  8.50000000E-01  8.50000000E-01  8.50000000E-01
  8.50000000E-01  8.50000000E-01  8.50000000E-01  8.50000000E-01  8.50000000E-01
  8.50000000E-01  8.50000000E-01  8.50000000E-01  8.50000000E-01  8.50000000E-01
  8.50000000E-01  8.50000000E-01  8.50000000E-01  8.50000000E-01  8.50000000E-01
  8.50000000E-01  8.50000000E-01  8.50000000E-01  8.50000000E-01  8.50000000E-01
  8.50000000E-01  8.50000000E-01  8.50000000E-01  8.50000000E-01  8.50000000E-01
  8.50000000E-01  8.50000000E-01  8.50000000E-01  8.50000000E-01  8.50000000E-01
  8.50000000E-01  8.50000000E-01  8.50000000E-01  8.50000000E-01  8.50000000E-01
  8.50000000E-01  8.50000000E-01  8.50000000E-01  8.50000000E-01  8.50000000E-01
  8.50000000E-01  8.50000000E-01  8.50000000E-01  8.50000000E-01  8.50000000E-01
  8.50000000E-01  8.50000000E-01  8.50000000E-01  8.50000000E-01  8.50000000E-01
  8.50000000E-01  8.50000000E-01  8.50000000E-01  8.50000000E-01  8.50000000E-01
  8.50000000E-01  8.50000000E-01  8.50000000E-01  8.50000000E-01  8.50000000E-01
  8.50000000E-01  8.50000000E-01  8.50000000E-01  8.50000000E-01  8.50000000E-01
  8.50000000E-01  8.50000000E-01  8.50000000E-01  8.50000000E-01  8.50000000E-01
  8.50000000E-01  8.50000000E-01  8.50000000E-01  8.50000000E-01  8.50000000E-01
  8.50000000E-01  8.50000000E-01  8.50000000E-01  8.50000000E-01  8.50000000E-01
  8.50000000E-01  8.50000000E-01  8.50000000E-01  8.50000000E-01  8.50000000E-01
  8.50000000E-01  8.50000000E-01  8.50000000E-01  8.50000000E-01  8.50000000E-01
  8.50000000E-01  8.50000000E-01  8.50000000E-01  8.50000000E-01  8.50000000E-01
  8.50000000E-01  8.50000000E-01  8.50000000E-01  8.50000000E-01  8.50000000E-01
  8.50000000E-01  8.50000000E-01  8.50000000E-01  8.50000000E-01  8.50000000E-01
  8.50000000E-01  8.50000000E-01  8.50000000E-01  8.50000000E-01  8.50000000E-01
  8.50000000E-01  8.50000000E-01  8.50000000E-01  8.50000000E-01  8.50000000E-01
  8.50000000E-01  8.50000000E-01  8.50000000E-01  8.50000000E-01  8.50000000E-01
  8.50000000E-01  8.50000000E-01  8.50000000E-01  8.50000000E-01  8.50000000E-01
  8.50000000E-01  8.50000000E-01  8.50000000E-01  8.50000000E-01  8.50000000E-01
  8.50000000E-01  8.50000000E-01  8.50000000E-01  8.50000000E-01  8.50000000E-01
  8.50000000E-01  8.50000000E-01  8.50000000E-01  8.50000000E-01  8.50000000E-01
  8.50000000E-01  8.50000000E-01  8.50000000E-01  8.50000000E-01  8.50000000E-01
  8.50000000E-01  8.50000000E-01  8.50000000E-01  8.50000000E-01  8.50000000E-01
  8.50000000E-01  8.50000000E-01  8.50000000E-01  8.50000000E-01  8.50000000E-01
  8.50000000E-01  8.50000000E-01  8.50000000E-01  8.50000000E-01  8.50000000E-01
  8.50000000E-01  8.50000000E-01  8.50000000E-01  8.50000000E-01  8.50000000E-01
  8.50000000E-01  8.50000000E-01  8.50000000E-01  8.50000000E-01  8.50000000E-01
  8.50000000E-01  8.50000000E-01  8.50000000E-01  8.50000000E-01  8.50000000E-01
  8.50000000E-01  8.50000000E-01  8.50000000E-01  8.50000000E-01  8.50000000E-01
  8.50000000E-01  8.50000000E-01  8.50000000E-01  8.50000000E-01  8.50000000E-01
  8.50000000E-01  8.50000000E-01  8.50000000E-01  8.50000000E-01  8.50000000E-01
  8.50000000E-01  8.50000000E-01  8.50000000E-01  8.50000000E-01  8.50000000E-01
  8.50000000E-01  8.50000000E-01  8.50000000E-01  8.50000000E-01  8.50000000E-01
  8.50000000E-01  8.50000000E-01  8.50000000E-01  8.50000000E-01  8.50000000E-01
  8.50000000E-01  8.50000000E-01  8.50000000E-01  8.50000000E-01  8.50000000E-01
  8.50000000E-01  8.50000000E-01  8.50000000E-01  8.50000000E-01  8.50000000E-01
  8.50000000E-01  8.50000000E-01  8.50000000E-01  8.50000000E-01  8.50000000E-01
  8.50000000E-01  8.50000000E-01  8.50000000E-01  8.50000000E-01  8.50000000E-01
  8.50000000E-01  8.50000000E-01  8.50000000E-01  8.50000000E-01  8.50000000E-01
  8.50000000E-01  8.50000000E-01  8.50000000E-01  8.50000000E-01  8.50000000E-01
  8.50000000E-01  8.50000000E-01  8.50000000E-01  8.50000000E-01  8.50000000E-01
  8.50000000E-01  8.50000000E-01  8.50000000E-01  8.50000000E-01  8.50000000E-01
  8.50000000E-01  8.50000000E-01  8.50000000E-01  8.50000000E-01  8.50000000E-01
  8.50000000E-01  8.50000000E-01  8.50000000E-01  8.50000000E-01  8.50000000E-01
  8.50000000E-01  8.50000000E-01  8.50000000E-01  8.50000000E-01  8.50000000E-01
  8.50000000E-01  8.50000000E-01  8.50000000E-01  8.50000000E-01  8.50000000E-01
  8.50000000E-01  8.50000000E-01  8.50000000E-01  8.50000000E-01  8.50000000E-01
  8.50000000E-01  8.50000000E-01  8.50000000E-01  8.50000000E-01  8.50000000E-01
  8.50000000E-01  8.50000000E-01  8.50000000E-01  8.50000000E-01  8.50000000E-01
  8.50000000E-01  8.50000000E-01  8.50000000E-01  8.50000000E-01  8.50000000E-01
  8.50000000E-01  8.50000000E-01  8.50000000E-01  8.50000000E-01  8.50000000E-01
  8.50000000E-01  8.50000000E-01  8.50000000E-01  8.50000000E-01  8.50000000E-01
  8.50000000E-01  8.50000000E-01  8.50000000E-01  8.50000000E-01  8.50000000E-01
  8.50000000E-01  8.50000000E-01  8.50000000E-01  8.50000000E-01  8.50000000E-01
  8.50000000E-01  8.50000000E-01  8.50000000E-01  8.50000000E-01  8.50000000E-01
  8.50000000E-01  8.50000000E-01  8.50000000E-01  8.50000000E-01  8.50000000E-01
  8.50000000E-01  8.50000000E-01  8.50000000E-01  8.50000000E-01  8.50000000E-01
  8.50000000E-01  8.50000000E-01  8.50000000E-01  8.50000000E-01  8.50000000E-01
  8.50000000E-01  8.50000000E-01  8.50000000E-01  8.50000000E-01  8.50000000E-01
  8.50000000E-01  8.50000000E-01  8.50000000E-01  8.50000000E-01  8.50000000E-01
  8.50000000E-01  8.50000000E-01  8.50000000E-01  8.50000000E-01  8.50000000E-01
  8.50000000E-01  8.50000000E-01  8.50000000E-01  8.50000000E-01  8.50000000E-01
  8.50000000E-01  8.50000000E-01  8.50000000E-01  8.50000000E-01  8.50000000E-01
  8.50000000E-01  8.50000000E-01  8.50000000E-01  8.50000000E-01  8.50000000E-01
  8.50000000E-01  8.50000000E-01  8.50000000E-01  8.50000000E-01  8.50000000E-01
  8.50000000E-01  8.50000000E-01  8.50000000E-01  8.50000000E-01  8.50000000E-01
  8.50000000E-01  8.50000000E-01  8.50000000E-01  8.50000000E-01  8.50000000E-01
  8.50000000E-01  8.50000000E-01  8.50000000E-01  8.50000000E-01  8.50000000E-01
  8.50000000E-01  8.50000000E-01  8.50000000E-01  8.50000000E-01  8.50000000E-01
  8.50000000E-01  8.50000000E-01  8.50000000E-01  8.50000000E-01  8.50000000E-01
  8.50000000E-01  8.50000000E-01  8.50000000E-01  8.50000000E-01  8.50000000E-01
  8.50000000E-01  8.50000000E-01  8.50000000E-01  8.50000000E-01  8.50000000E-01
  8.50000000E-01  8.50000000E-01  8.50000000E-01  8.50000000E-01  8.50000000E-01
  8.50000000E-01  8.50000000E-01  8.50000000E-01  8.50000000E-01  8.50000000E-01
  8.50000000E-01  8.50000000E-01  8.50000000E-01  8.50000000E-01  8.50000000E-01
  8.50000000E-01  8.50000000E-01  8.50000000E-01  8.50000000E-01  8.50000000E-01
  8.50000000E-01  8.50000000E-01  8.50000000E-01  8.50000000E-01  8.50000000E-01
  8.50000000E-01  8.50000000E-01  8.50000000E-01  8.50000000E-01  8.50000000E-01
  8.50000000E-01  8.50000000E-01  8.50000000E-01  8.50000000E-01  8.50000000E-01
  8.50000000E-01  8.50000000E-01  8.50000000E-01  8.50000000E-01  8.50000000E-01
  8.50000000E-01  8.50000000E-01  8.50000000E-01  8.50000000E-01  8.50000000E-01
  8.50000000E-01  8.50000000E-01  8.50000000E-01  8.50000000E-01  8.50000000E-01
  8.50000000E-01  8.50000000E-01  8.50000000E-01  8.50000000E-01  8.50000000E-01
  8.50000000E-01  8.50000000E-01  8.50000000E-01  8.50000000E-01  8.50000000E-01
  8.50000000E-01  8.50000000E-01  8.50000000E-01  8.50000000E-01  8.50000000E-01
  8.50000000E-01  8.50000000E-01  8.50000000E-01  8.50000000E-01  8.50000000E-01
  8.50000000E-01  8.50000000E-01  8.50000000E-01  8.50000000E-01  8.50000000E-01
  8.50000000E-01  8.50000000E-01  8.50000000E-01  8.50000000E-01  8.50000000E-01
  8.50000000E-01  8.50000000E-01  8.50000000E-01  8.50000000E-01  8.50000000E-01
  8.50000000E-01  8.50000000E-01  8.50000000E-01  8.50000000E-01  8.50000000E-01
  8.50000000E-01  8.50000000E-01  8.50000000E-01  8.50000000E-01  8.50000000E-01
  8.50000000E-01  8.50000000E-01  8.50000000E-01  8.50000000E-01  8.50000000E-01
  8.50000000E-01  8.50000000E-01  8.50000000E-01  8.50000000E-01  8.50000000E-01
  8.50000000E-01  8.50000000E-01  8.50000000E-01  8.50000000E-01  8.50000000E-01
  8.50000000E-01  8.50000000E-01  8.50000000E-01  8.50000000E-01  8.50000000E-01
  8.50000000E-01  8.50000000E-01  8.50000000E-01  8.50000000E-01  8.50000000E-01
  8.50000000E-01  8.50000000E-01  8.50000000E-01  8.50000000E-01  8.50000000E-01
  8.50000000E-01  8.50000000E-01  8.50000000E-01  8.50000000E-01  8.50000000E-01
  8.50000000E-01  8.50000000E-01  8.50000000E-01  8.50000000E-01  8.50000000E-01
  8.50000000E-01  8.50000000E-01  8.50000000E-01  8.50000000E-01  8.50000000E-01
  8.50000000E-01  8.50000000E-01  8.50000000E-01  8.50000000E-01  8.50000000E-01
  8.50000000E-01  8.50000000E-01  8.50000000E-01  8.50000000E-01  8.50000000E-01
  8.50000000E-01  8.50000000E-01  8.50000000E-01  8.50000000E-01  8.50000000E-01
  8.50000000E-01  8.50000000E-01  8.50000000E-01  8.50000000E-01  8.50000000E-01
  8.50000000E-01  8.50000000E-01  8.50000000E-01  8.50000000E-01  8.50000000E-01
  8.50000000E-01  8.50000000E-01  8.50000000E-01  8.50000000E-01  8.50000000E-01
  8.50000000E-01  8.50000000E-01  8.50000000E-01  8.50000000E-01  8.50000000E-01
  8.50000000E-01  8.50000000E-01  8.50000000E-01  8.50000000E-01  8.50000000E-01
  8.50000000E-01  8.50000000E-01  8.50000000E-01  8.50000000E-01  8.50000000E-01
  8.50000000E-01  8.50000000E-01  8.50000000E-01  8.50000000E-01  8.50000000E-01
  8.50000000E-01  8.50000000E-01  8.50000000E-01  8.50000000E-01  8.50000000E-01
  8.50000000E-01  8.50000000E-01  8.50000000E-01  8.50000000E-01  8.50000000E-01
  8.50000000E-01  8.50000000E-01  8.50000000E-01  8.50000000E-01  8.50000000E-01
  8.50000000E-01  8.50000000E-01  8.50000000E-01  8.50000000E-01  8.50000000E-01
  8.50000000E-01  8.50000000E-01  8.50000000E-01  8.50000000E-01  8.50000000E-01
  8.50000000E-01  8.50000000E-01  8.50000000E-01  8.50000000E-01  8.50000000E-01
  8.50000000E-01  8.50000000E-01  8.50000000E-01  8.50000000E-01  8.50000000E-01
  8.50000000E-01  8.50000000E-01  8.50000000E-01  8.50000000E-01  8.50000000E-01
  8.50000000E-01  8.50000000E-01  8.50000000E-01  8.50000000E-01  8.50000000E-01
  8.50000000E-01  8.50000000E-01  8.50000000E-01  8.50000000E-01  8.50000000E-01
  8.50000000E-01  8.50000000E-01  8.50000000E-01  8.50000000E-01  8.50000000E-01
  8.50000000E-01  8.50000000E-01  8.50000000E-01  8.50000000E-01  8.50000000E-01
  8.50000000E-01  8.50000000E-01  8.50000000E-01  8.50000000E-01  8.50000000E-01
  8.50000000E-01  8.50000000E-01  8.50000000E-01  8.50000000E-01  8.50000000E-01
  8.50000000E-01  8.50000000E-01  8.50000000E-01  8.50000000E-01  8.50000000E-01
  8.50000000E-01  8.50000000E-01  8.50000000E-01  8.50000000E-01  8.50000000E-01
  8.50000000E-01  8.50000000E-01  8.50000000E-01  8.50000000E-01  8.50000000E-01
  8.50000000E-01  8.50000000E-01  8.50000000E-01  8.50000000E-01  8.50000000E-01
  8.50000000E-01  8.50000000E-01  8.50000000E-01  8.50000000E-01  8.50000000E-01
  8.50000000E-01  8.50000000E-01  8.50000000E-01  8.50000000E-01  8.50000000E-01
  8.50000000E-01  8.50000000E-01  8.50000000E-01  8.50000000E-01  8.50000000E-01
  8.50000000E-01  8.50000000E-01  8.50000000E-01  8.50000000E-01  8.50000000E-01
  8.50000000E-01  8.50000000E-01  8.50000000E-01  8.50000000E-01  8.50000000E-01
  8.50000000E-01  8.50000000E-01  8.50000000E-01  8.50000000E-01  8.50000000E-01
  8.50000000E-01  8.50000000E-01  8.50000000E-01  8.50000000E-01  8.50000000E-01
  8.50000000E-01  8.50000000E-01  8.50000000E-01  8.50000000E-01  8.50000000E-01
  8.50000000E-01  8.50000000E-01  8.50000000E-01  8.50000000E-01  8.50000000E-01
  8.50000000E-01  8.50000000E-01  8.50000000E-01  8.50000000E-01  8.50000000E-01
  8.50000000E-01  8.50000000E-01  8.50000000E-01  8.50000000E-01  8.50000000E-01
  8.50000000E-01  8.50000000E-01  8.50000000E-01  8.50000000E-01  8.50000000E-01
  8.50000000E-01  8.50000000E-01  8.50000000E-01  8.50000000E-01  8.50000000E-01
  8.50000000E-01  8.50000000E-01  8.50000000E-01  8.50000000E-01  8.50000000E-01
  8.50000000E-01  8.50000000E-01  8.50000000E-01  8.50000000E-01  8.50000000E-01
  8.50000000E-01  8.50000000E-01  8.50000000E-01  8.50000000E-01  8.50000000E-01
  8.50000000E-01  8.50000000E-01  8.50000000E-01  8.50000000E-01  8.50000000E-01
  8.50000000E-01  8.50000000E-01  8.50000000E-01  8.50000000E-01  8.50000000E-01
  8.50000000E-01  8.50000000E-01  8.50000000E-01  8.50000000E-01  8.50000000E-01
  8.50000000E-01  8.50000000E-01  8.50000000E-01  8.50000000E-01  8.50000000E-01
  8.50000000E-01  8.50000000E-01  8.50000000E-01  8.50000000E-01  8.50000000E-01
  8.50000000E-01  8.50000000E-01  8.50000000E-01  8.50000000E-01  8.50000000E-01
  8.50000000E-01  8.50000000E-01  8.50000000E-01  8.50000000E-01  8.50000000E-01
  8.50000000E-01  8.50000000E-01  8.50000000E-01  8.50000000E-01  8.50000000E-01
  8.50000000E-01  8.50000000E-01  8.50000000E-01  8.50000000E-01  8.50000000E-01
  8.50000000E-01  8.50000000E-01  8.50000000E-01  8.50000000E-01  8.50000000E-01
  8.50000000E-01  8.50000000E-01  8.50000000E-01  8.50000000E-01  8.50000000E-01
  8.50000000E-01  8.50000000E-01  8.50000000E-01  8.50000000E-01  8.50000000E-01
  8.50000000E-01  8.50000000E-01  8.50000000E-01  8.50000000E-01  8.50000000E-01
  8.50000000E-01  8.50000000E-01  8.50000000E-01  8.50000000E-01  8.50000000E-01
  8.50000000E-01  8.50000000E-01  8.50000000E-01  8.50000000E-01  8.50000000E-01
  8.50000000E-01  8.50000000E-01  8.50000000E-01  8.50000000E-01  8.50000000E-01
  8.50000000E-01  8.50000000E-01  8.50000000E-01  8.50000000E-01  8.50000000E-01
  8.50000000E-01  8.50000000E-01  8.50000000E-01  8.50000000E-01  8.50000000E-01
  8.50000000E-01  8.50000000E-01  8.50000000E-01  8.50000000E-01  8.50000000E-01
  8.50000000E-01  8.50000000E-01  8.50000000E-01  8.50000000E-01  8.50000000E-01
  8.50000000E-01  8.50000000E-01  8.50000000E-01  8.50000000E-01  8.50000000E-01
  8.50000000E-01  8.50000000E-01  8.50000000E-01  8.50000000E-01  8.50000000E-01
  8.50000000E-01  8.50000000E-01  8.50000000E-01  8.50000000E-01  8.50000000E-01
  8.50000000E-01  8.50000000E-01  8.50000000E-01  8.50000000E-01  8.50000000E-01
  8.50000000E-01  8.50000000E-01  8.50000000E-01  8.50000000E-01  8.50000000E-01
  8.50000000E-01  8.50000000E-01  8.50000000E-01  8.50000000E-01  8.50000000E-01
  8.50000000E-01  8.50000000E-01  8.50000000E-01  8.50000000E-01  8.50000000E-01
  8.50000000E-01  8.50000000E-01  8.50000000E-01  8.50000000E-01  8.50000000E-01
  8.50000000E-01  8.50000000E-01  8.50000000E-01  8.50000000E-01  8.50000000E-01
  8.50000000E-01  8.50000000E-01  8.50000000E-01  8.50000000E-01  8.50000000E-01
  8.50000000E-01  8.50000000E-01  8.50000000E-01  8.50000000E-01  8.50000000E-01
  8.50000000E-01  8.50000000E-01  8.50000000E-01  8.50000000E-01  8.50000000E-01
  8.50000000E-01  8.50000000E-01  8.50000000E-01  8.50000000E-01  8.50000000E-01
  8.50000000E-01  8.50000000E-01  8.50000000E-01  8.50000000E-01  8.50000000E-01
  8.50000000E-01  8.50000000E-01  8.50000000E-01  8.50000000E-01  8.50000000E-01
  8.50000000E-01  8.50000000E-01  8.50000000E-01  8.50000000E-01  8.50000000E-01
  8.50000000E-01  8.50000000E-01  8.50000000E-01  8.50000000E-01  8.50000000E-01
  8.50000000E-01  8.50000000E-01  8.50000000E-01  8.50000000E-01  8.50000000E-01
  8.50000000E-01  8.50000000E-01  8.50000000E-01  8.50000000E-01  8.50000000E-01
  8.50000000E-01  8.50000000E-01  8.50000000E-01  8.50000000E-01  8.50000000E-01
  8.50000000E-01  8.50000000E-01  8.50000000E-01  8.50000000E-01  8.50000000E-01
  8.50000000E-01  8.50000000E-01  8.50000000E-01  8.50000000E-01  8.50000000E-01
  8.50000000E-01  8.50000000E-01  8.50000000E-01  8.50000000E-01  8.50000000E-01
  8.50000000E-01  8.50000000E-01  8.50000000E-01  8.50000000E-01  8.50000000E-01
  8.50000000E-01  8.50000000E-01  8.50000000E-01  8.50000000E-01  8.50000000E-01
  8.50000000E-01  8.50000000E-01  8.50000000E-01  8.50000000E-01  8.50000000E-01
  8.50000000E-01  8.50000000E-01  8.50000000E-01  8.50000000E-01  8.50000000E-01
  8.50000000E-01  8.50000000E-01  8.50000000E-01  8.50000000E-01  8.50000000E-01
  8.50000000E-01  8.50000000E-01  8.50000000E-01  8.50000000E-01  8.50000000E-01
  8.50000000E-01  8.50000000E-01  8.50000000E-01  8.50000000E-01  8.50000000E-01
  8.50000000E-01  8.50000000E-01  8.50000000E-01  8.50000000E-01  8.50000000E-01
  8.50000000E-01  8.50000000E-01  8.50000000E-01  8.50000000E-01  8.50000000E-01
  8.50000000E-01  8.50000000E-01  8.50000000E-01  8.50000000E-01  8.50000000E-01
  8.50000000E-01  8.50000000E-01  8.50000000E-01  8.50000000E-01  8.50000000E-01
  8.50000000E-01  8.50000000E-01  8.50000000E-01  8.50000000E-01  8.50000000E-01
  8.50000000E-01  8.50000000E-01  8.50000000E-01  8.50000000E-01  8.50000000E-01
  8.50000000E-01  8.50000000E-01  8.50000000E-01  8.50000000E-01  8.50000000E-01
  8.50000000E-01  8.50000000E-01  8.50000000E-01  8.50000000E-01  8.50000000E-01
  8.50000000E-01  8.50000000E-01  8.50000000E-01  8.50000000E-01  8.50000000E-01
  8.50000000E-01  8.50000000E-01  8.50000000E-01  8.50000000E-01  8.50000000E-01
  8.50000000E-01  8.50000000E-01  8.50000000E-01  8.50000000E-01  8.50000000E-01
  8.50000000E-01  8.50000000E-01  8.50000000E-01  8.50000000E-01  8.50000000E-01
  8.50000000E-01  8.50000000E-01  8.50000000E-01  8.50000000E-01  8.50000000E-01
  8.50000000E-01  8.50000000E-01  8.50000000E-01  8.50000000E-01  8.50000000E-01
  8.50000000E-01  8.50000000E-01  8.50000000E-01  8.50000000E-01  8.50000000E-01
  8.50000000E-01  8.50000000E-01  8.50000000E-01  8.50000000E-01  8.50000000E-01
  8.50000000E-01  8.50000000E-01  8.50000000E-01  8.50000000E-01  8.50000000E-01
  8.50000000E-01  8.50000000E-01  8.50000000E-01  8.50000000E-01  8.50000000E-01
  8.50000000E-01  8.50000000E-01  8.50000000E-01  8.50000000E-01  8.50000000E-01
  8.50000000E-01  8.50000000E-01  8.50000000E-01  8.50000000E-01  8.50000000E-01
  8.50000000E-01  8.50000000E-01  8.50000000E-01  8.50000000E-01  8.50000000E-01
  8.50000000E-01  8.50000000E-01  8.50000000E-01  8.50000000E-01  8.50000000E-01
  8.50000000E-01  8.50000000E-01  8.50000000E-01  8.50000000E-01  8.50000000E-01
  8.50000000E-01  8.50000000E-01  8.50000000E-01  8.50000000E-01  8.50000000E-01
  8.50000000E-01  8.50000000E-01  8.50000000E-01  8.50000000E-01  8.50000000E-01
  8.50000000E-01  8.50000000E-01  8.50000000E-01  8.50000000E-01  8.50000000E-01
  8.50000000E-01  8.50000000E-01  8.50000000E-01  8.50000000E-01  8.50000000E-01
  8.50000000E-01  8.50000000E-01  8.50000000E-01  8.50000000E-01  8.50000000E-01
  8.50000000E-01  8.50000000E-01  8.50000000E-01  8.50000000E-01  8.50000000E-01
  8.50000000E-01  8.50000000E-01  8.50000000E-01  8.50000000E-01  8.50000000E-01
  8.50000000E-01  8.50000000E-01  8.50000000E-01  8.50000000E-01  8.50000000E-01
  8.50000000E-01  8.50000000E-01  8.50000000E-01  8.50000000E-01  8.50000000E-01
  8.50000000E-01  8.50000000E-01  8.50000000E-01  8.50000000E-01  8.50000000E-01
  8.50000000E-01  8.50000000E-01  8.50000000E-01  8.50000000E-01  8.50000000E-01
  8.50000000E-01  8.50000000E-01  8.50000000E-01  8.50000000E-01  8.50000000E-01
  8.50000000E-01  8.50000000E-01  8.50000000E-01  8.50000000E-01  8.50000000E-01
  8.50000000E-01  8.50000000E-01  8.50000000E-01  8.50000000E-01  8.50000000E-01
  8.50000000E-01  8.50000000E-01  8.50000000E-01  8.50000000E-01  8.50000000E-01
  8.50000000E-01  8.50000000E-01  8.50000000E-01  8.50000000E-01  8.50000000E-01
  8.50000000E-01  8.50000000E-01  8.50000000E-01  8.50000000E-01  8.50000000E-01
  8.50000000E-01  8.50000000E-01  8.50000000E-01  8.50000000E-01  8.50000000E-01
  8.50000000E-01  8.50000000E-01  8.50000000E-01  8.50000000E-01  8.50000000E-01
  8.50000000E-01  8.50000000E-01  8.50000000E-01  8.50000000E-01  8.50000000E-01
  8.50000000E-01  8.50000000E-01  8.50000000E-01  8.50000000E-01  8.50000000E-01
  8.50000000E-01  8.50000000E-01  8.50000000E-01  8.50000000E-01  8.50000000E-01
  8.50000000E-01  8.50000000E-01  8.50000000E-01  8.50000000E-01  8.50000000E-01
  8.50000000E-01  8.50000000E-01  8.50000000E-01  8.50000000E-01  8.50000000E-01
  8.50000000E-01  8.50000000E-01  8.50000000E-01  8.50000000E-01  8.50000000E-01
  8.50000000E-01  8.50000000E-01  8.50000000E-01  8.50000000E-01  8.50000000E-01
  8.50000000E-01  8.50000000E-01  8.50000000E-01  8.50000000E-01  8.50000000E-01
  8.50000000E-01  8.50000000E-01  8.50000000E-01  8.50000000E-01  8.50000000E-01
  8.50000000E-01  8.50000000E-01  8.50000000E-01  8.50000000E-01  8.50000000E-01
  8.50000000E-01  8.50000000E-01  8.50000000E-01  8.50000000E-01  8.50000000E-01
  8.50000000E-01  8.50000000E-01  8.50000000E-01  8.50000000E-01  8.50000000E-01
  8.50000000E-01  8.50000000E-01  8.50000000E-01  8.50000000E-01  8.50000000E-01
  8.50000000E-01  8.50000000E-01  8.50000000E-01  8.50000000E-01  8.50000000E-01
  8.50000000E-01  8.50000000E-01  8.50000000E-01  8.50000000E-01  8.50000000E-01
  8.50000000E-01  8.50000000E-01  8.50000000E-01  8.50000000E-01  8.50000000E-01
  8.50000000E-01  8.50000000E-01  8.50000000E-01  8.50000000E-01  8.50000000E-01
  8.50000000E-01  8.50000000E-01  8.50000000E-01  8.50000000E-01  8.50000000E-01
  8.50000000E-01  8.50000000E-01  8.50000000E-01  8.50000000E-01  8.50000000E-01
  8.50000000E-01  8.50000000E-01  8.50000000E-01  8.50000000E-01  8.50000000E-01
  8.50000000E-01  8.50000000E-01  8.50000000E-01  8.50000000E-01  8.50000000E-01
  8.50000000E-01  8.50000000E-01  8.50000000E-01  8.50000000E-01  8.50000000E-01
  8.50000000E-01  8.50000000E-01  8.50000000E-01  8.50000000E-01  8.50000000E-01
  8.50000000E-01  8.50000000E-01  8.50000000E-01  8.50000000E-01  8.50000000E-01
  8.50000000E-01  8.50000000E-01  8.50000000E-01  8.50000000E-01  8.50000000E-01
  8.50000000E-01  8.50000000E-01  8.50000000E-01  8.50000000E-01  8.50000000E-01
  8.50000000E-01  8.50000000E-01  8.50000000E-01  8.50000000E-01  8.50000000E-01
  8.50000000E-01  8.50000000E-01  8.50000000E-01  8.50000000E-01  8.50000000E-01
  8.50000000E-01  8.50000000E-01  8.50000000E-01  8.50000000E-01  8.50000000E-01
  8.50000000E-01  8.50000000E-01  8.50000000E-01  8.50000000E-01  8.50000000E-01
  8.50000000E-01  8.50000000E-01  8.50000000E-01  8.50000000E-01  8.50000000E-01
  8.50000000E-01  8.50000000E-01  8.50000000E-01  8.50000000E-01  8.50000000E-01
  8.50000000E-01  8.50000000E-01  8.50000000E-01  8.50000000E-01  8.50000000E-01
  8.50000000E-01  8.50000000E-01  8.50000000E-01  8.50000000E-01  8.50000000E-01
  8.50000000E-01  8.50000000E-01  8.50000000E-01  8.50000000E-01  8.50000000E-01
  8.50000000E-01  8.50000000E-01  8.50000000E-01  8.50000000E-01  8.50000000E-01
  8.50000000E-01  8.50000000E-01  8.50000000E-01  8.50000000E-01  8.50000000E-01
  8.50000000E-01  8.50000000E-01  8.50000000E-01  8.50000000E-01  8.50000000E-01
  8.50000000E-01  8.50000000E-01  8.50000000E-01  8.50000000E-01  8.50000000E-01
  8.50000000E-01  8.50000000E-01  8.50000000E-01  8.50000000E-01  8.50000000E-01
  8.50000000E-01  8.50000000E-01  8.50000000E-01  8.50000000E-01  8.50000000E-01
  8.50000000E-01  8.50000000E-01  8.50000000E-01  8.50000000E-01  8.50000000E-01
  8.50000000E-01  8.50000000E-01  8.50000000E-01  8.50000000E-01  8.50000000E-01
  8.50000000E-01  8.50000000E-01  8.50000000E-01  8.50000000E-01  8.50000000E-01
  8.50000000E-01  8.50000000E-01  8.50000000E-01  8.50000000E-01  8.50000000E-01
  8.50000000E-01  8.50000000E-01  8.50000000E-01  8.50000000E-01  8.50000000E-01
  8.50000000E-01  8.50000000E-01  8.50000000E-01  8.50000000E-01  8.50000000E-01
  8.50000000E-01  8.50000000E-01  8.50000000E-01  8.50000000E-01  8.50000000E-01
  8.50000000E-01  8.50000000E-01  8.50000000E-01  8.50000000E-01  8.50000000E-01
  8.50000000E-01  8.50000000E-01  8.50000000E-01  8.50000000E-01  8.50000000E-01
  8.50000000E-01  8.50000000E-01  8.50000000E-01  8.50000000E-01  8.50000000E-01
  8.50000000E-01  8.50000000E-01  8.50000000E-01  8.50000000E-01  8.50000000E-01
  8.50000000E-01  8.50000000E-01  8.50000000E-01  8.50000000E-01  8.50000000E-01
  8.50000000E-01  8.50000000E-01  8.50000000E-01  8.50000000E-01  8.50000000E-01
  8.50000000E-01  8.50000000E-01  8.50000000E-01  8.50000000E-01  8.50000000E-01
  8.50000000E-01  8.50000000E-01  8.50000000E-01  8.50000000E-01  8.50000000E-01
  8.50000000E-01  8.50000000E-01  8.50000000E-01  8.50000000E-01  8.50000000E-01
  8.50000000E-01  8.50000000E-01  8.50000000E-01  8.50000000E-01  8.50000000E-01
  8.50000000E-01  8.50000000E-01  8.50000000E-01  8.50000000E-01  8.50000000E-01
  8.50000000E-01  8.50000000E-01  8.50000000E-01  8.50000000E-01  8.50000000E-01
  8.50000000E-01  8.50000000E-01  8.50000000E-01  8.50000000E-01  8.50000000E-01
  8.50000000E-01  8.50000000E-01  8.50000000E-01  8.50000000E-01  8.50000000E-01
  8.50000000E-01  8.50000000E-01  8.50000000E-01  8.50000000E-01  8.50000000E-01
  8.50000000E-01  8.50000000E-01  8.50000000E-01  8.50000000E-01  8.50000000E-01
  8.50000000E-01  8.50000000E-01  8.50000000E-01  8.50000000E-01  8.50000000E-01
  8.50000000E-01  8.50000000E-01  8.50000000E-01  8.50000000E-01  8.50000000E-01
  8.50000000E-01  8.50000000E-01  8.50000000E-01  8.50000000E-01  8.50000000E-01
  8.50000000E-01  8.50000000E-01  8.50000000E-01  8.50000000E-01  8.50000000E-01
  8.50000000E-01  8.50000000E-01  8.50000000E-01  8.50000000E-01  8.50000000E-01
  8.50000000E-01  8.50000000E-01  8.50000000E-01  8.50000000E-01  8.50000000E-01
  8.50000000E-01  8.50000000E-01  8.50000000E-01  8.50000000E-01  8.50000000E-01
  8.50000000E-01  8.50000000E-01  8.50000000E-01  8.50000000E-01  8.50000000E-01
  8.50000000E-01  8.50000000E-01  8.50000000E-01  8.50000000E-01  8.50000000E-01
  8.50000000E-01  8.50000000E-01  8.50000000E-01  8.50000000E-01  8.50000000E-01
  8.50000000E-01  8.50000000E-01  8.50000000E-01  8.50000000E-01  8.50000000E-01
  8.50000000E-01  8.50000000E-01  8.50000000E-01  8.50000000E-01  8.50000000E-01
  8.50000000E-01  8.50000000E-01  8.50000000E-01  8.50000000E-01  8.50000000E-01
  8.50000000E-01  8.50000000E-01  8.50000000E-01  8.50000000E-01  8.50000000E-01
  8.50000000E-01  8.50000000E-01  8.50000000E-01  8.50000000E-01  8.50000000E-01
  8.50000000E-01  8.50000000E-01  8.50000000E-01  8.50000000E-01  8.50000000E-01
  8.50000000E-01  8.50000000E-01  8.50000000E-01  8.50000000E-01  8.50000000E-01
  8.50000000E-01  8.50000000E-01  8.50000000E-01  8.50000000E-01  8.50000000E-01
  8.50000000E-01  8.50000000E-01  8.50000000E-01  8.50000000E-01  8.50000000E-01
  8.50000000E-01  8.50000000E-01  8.50000000E-01  8.50000000E-01  8.50000000E-01
  8.50000000E-01  8.50000000E-01  8.50000000E-01  8.50000000E-01  8.50000000E-01
  8.50000000E-01  8.50000000E-01  8.50000000E-01  8.50000000E-01  8.50000000E-01
  8.50000000E-01  8.50000000E-01  8.50000000E-01  8.50000000E-01  8.50000000E-01
  8.50000000E-01  8.50000000E-01  8.50000000E-01  8.50000000E-01  8.50000000E-01
  8.50000000E-01  8.50000000E-01  8.50000000E-01  8.50000000E-01  8.50000000E-01
  8.50000000E-01  8.50000000E-01  8.50000000E-01  8.50000000E-01  8.50000000E-01
  8.50000000E-01  8.50000000E-01  8.50000000E-01  8.50000000E-01  8.50000000E-01
  8.50000000E-01  8.50000000E-01  8.50000000E-01  8.50000000E-01  8.50000000E-01
  8.50000000E-01  8.50000000E-01  8.50000000E-01  8.50000000E-01  8.50000000E-01
  8.50000000E-01  8.50000000E-01  8.50000000E-01  8.50000000E-01  8.50000000E-01
  8.50000000E-01  8.50000000E-01  8.50000000E-01  8.50000000E-01  8.50000000E-01
  8.50000000E-01  8.50000000E-01  8.50000000E-01  8.50000000E-01  8.50000000E-01
  8.50000000E-01  8.50000000E-01  8.50000000E-01  8.50000000E-01  8.50000000E-01
  8.50000000E-01  8.50000000E-01  8.50000000E-01  8.50000000E-01  8.50000000E-01
  8.50000000E-01  8.50000000E-01  8.50000000E-01  8.50000000E-01  8.50000000E-01
  8.50000000E-01  8.50000000E-01  8.50000000E-01  8.50000000E-01  8.50000000E-01
  8.50000000E-01  8.50000000E-01  8.50000000E-01  8.50000000E-01  8.50000000E-01
  8.50000000E-01  8.50000000E-01  8.50000000E-01  8.50000000E-01  8.50000000E-01
  8.50000000E-01  8.50000000E-01  8.50000000E-01  8.50000000E-01  8.50000000E-01
  8.50000000E-01  8.50000000E-01  8.50000000E-01  8.50000000E-01  8.50000000E-01
  8.50000000E-01  8.50000000E-01  8.50000000E-01  8.50000000E-01  8.50000000E-01
  8.50000000E-01  8.50000000E-01  8.50000000E-01  8.50000000E-01  8.50000000E-01
  8.50000000E-01  8.50000000E-01  8.50000000E-01  8.50000000E-01  8.50000000E-01
  8.50000000E-01  8.50000000E-01  8.50000000E-01  8.50000000E-01  8.50000000E-01
  8.50000000E-01  8.50000000E-01  8.50000000E-01  8.50000000E-01  8.50000000E-01
  8.50000000E-01  8.50000000E-01  8.50000000E-01  8.50000000E-01  8.50000000E-01
  8.50000000E-01  8.50000000E-01  8.50000000E-01  8.50000000E-01  8.50000000E-01
  8.50000000E-01  8.50000000E-01  8.50000000E-01  8.50000000E-01  8.50000000E-01
  8.50000000E-01  8.50000000E-01  8.50000000E-01  8.50000000E-01  8.50000000E-01
  8.50000000E-01  8.50000000E-01  8.50000000E-01  8.50000000E-01  8.50000000E-01
  8.50000000E-01  8.50000000E-01  8.50000000E-01  8.50000000E-01  8.50000000E-01
  8.50000000E-01  8.50000000E-01  8.50000000E-01  8.50000000E-01  8.50000000E-01
  8.50000000E-01  8.50000000E-01  8.50000000E-01  8.50000000E-01  8.50000000E-01
  8.50000000E-01  8.50000000E-01  8.50000000E-01  8.50000000E-01  8.50000000E-01
  8.50000000E-01  8.50000000E-01  8.50000000E-01  8.50000000E-01  8.50000000E-01
  8.50000000E-01  8.50000000E-01  8.50000000E-01  8.50000000E-01  8.50000000E-01
  8.50000000E-01  8.50000000E-01  8.50000000E-01  8.50000000E-01  8.50000000E-01
  8.50000000E-01  8.50000000E-01  8.50000000E-01  8.50000000E-01  8.50000000E-01
  8.50000000E-01  8.50000000E-01  8.50000000E-01  8.50000000E-01  8.50000000E-01
  8.50000000E-01  8.50000000E-01  8.50000000E-01  8.50000000E-01  8.50000000E-01
  8.50000000E-01  8.50000000E-01  8.50000000E-01  8.50000000E-01  8.50000000E-01
  8.50000000E-01  8.50000000E-01  8.50000000E-01  8.50000000E-01  8.50000000E-01
  8.50000000E-01  8.50000000E-01  8.50000000E-01  8.50000000E-01  8.50000000E-01
  8.50000000E-01  8.50000000E-01  8.50000000E-01  8.50000000E-01  8.50000000E-01
  8.50000000E-01  8.50000000E-01  8.50000000E-01  8.50000000E-01  8.50000000E-01
  8.50000000E-01  8.50000000E-01  8.50000000E-01  8.50000000E-01  8.50000000E-01
  8.50000000E-01  8.50000000E-01  8.50000000E-01  8.50000000E-01  8.50000000E-01
  8.50000000E-01  8.50000000E-01  8.50000000E-01  8.50000000E-01  8.50000000E-01
  8.50000000E-01  8.50000000E-01  8.50000000E-01  8.50000000E-01  8.50000000E-01
  8.50000000E-01  8.50000000E-01  8.50000000E-01  8.50000000E-01  8.50000000E-01
  8.50000000E-01  8.50000000E-01  8.50000000E-01  8.50000000E-01  8.50000000E-01
  8.50000000E-01  8.50000000E-01  8.50000000E-01  8.50000000E-01  8.50000000E-01
  8.50000000E-01  8.50000000E-01  8.50000000E-01  8.50000000E-01  8.50000000E-01
  8.50000000E-01  8.50000000E-01  8.50000000E-01  8.50000000E-01  8.50000000E-01
  8.50000000E-01  8.50000000E-01  8.50000000E-01  8.50000000E-01  8.50000000E-01
  8.50000000E-01  8.50000000E-01  8.50000000E-01  8.50000000E-01  8.50000000E-01
  8.50000000E-01  8.50000000E-01  8.50000000E-01  8.50000000E-01  8.50000000E-01
  8.50000000E-01  8.50000000E-01  8.50000000E-01  8.50000000E-01  8.50000000E-01
  8.50000000E-01  8.50000000E-01  8.50000000E-01  8.50000000E-01  8.50000000E-01
  8.50000000E-01  8.50000000E-01  8.50000000E-01  8.50000000E-01  8.50000000E-01
  8.50000000E-01  8.50000000E-01  8.50000000E-01  8.50000000E-01  8.50000000E-01
  8.50000000E-01  8.50000000E-01  8.50000000E-01  8.50000000E-01  8.50000000E-01
  8.50000000E-01  8.50000000E-01  8.50000000E-01  8.50000000E-01  8.50000000E-01
  8.50000000E-01  8.50000000E-01  8.50000000E-01  8.50000000E-01  8.50000000E-01
  8.50000000E-01  8.50000000E-01  8.50000000E-01  8.50000000E-01  8.50000000E-01
  8.50000000E-01  8.50000000E-01  8.50000000E-01  8.50000000E-01  8.50000000E-01
  8.50000000E-01  8.50000000E-01  8.50000000E-01  8.50000000E-01  8.50000000E-01
  8.50000000E-01  8.50000000E-01  8.50000000E-01  8.50000000E-01  8.50000000E-01
  8.50000000E-01  8.50000000E-01  8.50000000E-01  8.50000000E-01  8.50000000E-01
  8.50000000E-01  8.50000000E-01  8.50000000E-01  8.50000000E-01  8.50000000E-01
  8.50000000E-01  8.50000000E-01  8.50000000E-01  8.50000000E-01  8.50000000E-01
  8.50000000E-01  8.50000000E-01  8.50000000E-01  8.50000000E-01  8.50000000E-01
  8.50000000E-01  8.50000000E-01  8.50000000E-01  8.50000000E-01  8.50000000E-01
  8.50000000E-01  8.50000000E-01  8.50000000E-01  8.50000000E-01  8.50000000E-01
  8.50000000E-01  8.50000000E-01  8.50000000E-01  8.50000000E-01  8.50000000E-01
  8.50000000E-01  8.50000000E-01  8.50000000E-01  8.50000000E-01  8.50000000E-01
  8.50000000E-01  8.50000000E-01  8.50000000E-01  8.50000000E-01  8.50000000E-01
  8.50000000E-01  8.50000000E-01  8.50000000E-01  8.50000000E-01  8.50000000E-01
  8.50000000E-01  8.50000000E-01  8.50000000E-01  8.50000000E-01  8.50000000E-01
  8.50000000E-01  8.50000000E-01  8.50000000E-01  8.50000000E-01  8.50000000E-01
  8.50000000E-01  8.50000000E-01  8.50000000E-01  8.50000000E-01  8.50000000E-01
  8.50000000E-01  8.50000000E-01  8.50000000E-01  8.50000000E-01  8.50000000E-01
  8.50000000E-01  8.50000000E-01  8.50000000E-01  8.50000000E-01  8.50000000E-01
  8.50000000E-01  8.50000000E-01  8.50000000E-01  8.50000000E-01  8.50000000E-01
  8.50000000E-01  8.50000000E-01  8.50000000E-01  8.50000000E-01  8.50000000E-01
  8.50000000E-01  8.50000000E-01  8.50000000E-01  8.50000000E-01  8.50000000E-01
  8.50000000E-01  8.50000000E-01  8.50000000E-01  8.50000000E-01  8.50000000E-01
  8.50000000E-01  8.50000000E-01  8.50000000E-01  8.50000000E-01  8.50000000E-01
  8.50000000E-01  8.50000000E-01  8.50000000E-01  8.50000000E-01  8.50000000E-01
  8.50000000E-01  8.50000000E-01  8.50000000E-01  8.50000000E-01  8.50000000E-01
  8.50000000E-01  8.50000000E-01  8.50000000E-01  8.50000000E-01  8.50000000E-01
  8.50000000E-01  8.50000000E-01  8.50000000E-01  8.50000000E-01  8.50000000E-01
  8.50000000E-01  8.50000000E-01  8.50000000E-01  8.50000000E-01  8.50000000E-01
  8.50000000E-01  8.50000000E-01  8.50000000E-01  8.50000000E-01  8.50000000E-01
  8.50000000E-01  8.50000000E-01  8.50000000E-01  8.50000000E-01  8.50000000E-01
  8.50000000E-01  8.50000000E-01  8.50000000E-01  8.50000000E-01  8.50000000E-01
  8.50000000E-01  8.50000000E-01  8.50000000E-01  8.50000000E-01  8.50000000E-01
  8.50000000E-01  8.50000000E-01  8.50000000E-01  8.50000000E-01  8.50000000E-01
  8.50000000E-01  8.50000000E-01  8.50000000E-01  8.50000000E-01  8.50000000E-01
  8.50000000E-01  8.50000000E-01  8.50000000E-01  8.50000000E-01  8.50000000E-01
  8.50000000E-01  8.50000000E-01  8.50000000E-01  8.50000000E-01  8.50000000E-01
  8.50000000E-01  8.50000000E-01  8.50000000E-01  8.50000000E-01  8.50000000E-01
  8.50000000E-01  8.50000000E-01  8.50000000E-01  8.50000000E-01  8.50000000E-01
  8.50000000E-01  8.50000000E-01  8.50000000E-01  8.50000000E-01  8.50000000E-01
  8.50000000E-01  8.50000000E-01  8.50000000E-01  8.50000000E-01  8.50000000E-01
  8.50000000E-01  8.50000000E-01  8.50000000E-01  8.50000000E-01  8.50000000E-01
  8.50000000E-01  8.50000000E-01  8.50000000E-01  8.50000000E-01  8.50000000E-01
  8.50000000E-01  8.50000000E-01  8.50000000E-01  8.50000000E-01  8.50000000E-01
  8.50000000E-01  8.50000000E-01  8.50000000E-01  8.50000000E-01  8.50000000E-01
  8.50000000E-01  8.50000000E-01  8.50000000E-01  8.50000000E-01  8.50000000E-01
  8.50000000E-01  8.50000000E-01  8.50000000E-01  8.50000000E-01  8.50000000E-01
  8.50000000E-01  8.50000000E-01  8.50000000E-01  8.50000000E-01  8.50000000E-01
  8.50000000E-01  8.50000000E-01  8.50000000E-01  8.50000000E-01  8.50000000E-01
  8.50000000E-01  8.50000000E-01  8.50000000E-01  8.50000000E-01  8.50000000E-01
  8.50000000E-01  8.50000000E-01  8.50000000E-01  8.50000000E-01  8.50000000E-01
  8.50000000E-01  8.50000000E-01  8.50000000E-01  8.50000000E-01  8.50000000E-01
  8.50000000E-01  8.50000000E-01  8.50000000E-01  8.50000000E-01  8.50000000E-01
  8.50000000E-01  8.50000000E-01  8.50000000E-01  8.50000000E-01  8.50000000E-01
  8.50000000E-01  8.50000000E-01  8.50000000E-01  8.50000000E-01  8.50000000E-01
  8.50000000E-01  8.50000000E-01  8.50000000E-01  8.50000000E-01  8.50000000E-01
  8.50000000E-01  8.50000000E-01  8.50000000E-01  8.50000000E-01  8.50000000E-01
  8.50000000E-01  8.50000000E-01  8.50000000E-01  8.50000000E-01  8.50000000E-01
  8.50000000E-01  8.50000000E-01  8.50000000E-01  8.50000000E-01  8.50000000E-01
  8.50000000E-01  8.50000000E-01  8.50000000E-01  8.50000000E-01  8.50000000E-01
  8.50000000E-01  8.50000000E-01  8.50000000E-01  8.50000000E-01  8.50000000E-01
  8.50000000E-01  8.50000000E-01  8.50000000E-01  8.50000000E-01  8.50000000E-01
  8.50000000E-01  8.50000000E-01  8.50000000E-01  8.50000000E-01  8.50000000E-01
  8.50000000E-01  8.50000000E-01  8.50000000E-01  8.50000000E-01  8.50000000E-01
  8.50000000E-01  8.50000000E-01  8.50000000E-01  8.50000000E-01  8.50000000E-01
  8.50000000E-01  8.50000000E-01  8.50000000E-01  8.50000000E-01  8.50000000E-01
  8.50000000E-01  8.50000000E-01  8.50000000E-01  8.50000000E-01  8.50000000E-01
  8.50000000E-01  8.50000000E-01  8.50000000E-01  8.50000000E-01  8.50000000E-01
  8.50000000E-01  8.50000000E-01  8.50000000E-01  8.50000000E-01  8.50000000E-01
  8.50000000E-01  8.50000000E-01  8.50000000E-01  8.50000000E-01  8.50000000E-01
  8.50000000E-01  8.50000000E-01  8.50000000E-01  8.50000000E-01  8.50000000E-01
  8.50000000E-01  8.50000000E-01  8.50000000E-01  8.50000000E-01  8.50000000E-01
  8.50000000E-01  8.50000000E-01  8.50000000E-01  8.50000000E-01  8.50000000E-01
  8.50000000E-01  8.50000000E-01  8.50000000E-01  8.50000000E-01  8.50000000E-01
  8.50000000E-01  8.50000000E-01  8.50000000E-01  8.50000000E-01  8.50000000E-01
  8.50000000E-01  8.50000000E-01  8.50000000E-01  8.50000000E-01  8.50000000E-01
  8.50000000E-01  8.50000000E-01  8.50000000E-01  8.50000000E-01  8.50000000E-01
  8.50000000E-01  8.50000000E-01  8.50000000E-01  8.50000000E-01  8.50000000E-01
  8.50000000E-01  8.50000000E-01  8.50000000E-01  8.50000000E-01  8.50000000E-01
  8.50000000E-01  8.50000000E-01  8.50000000E-01  8.50000000E-01  8.50000000E-01
  8.50000000E-01  8.50000000E-01  8.50000000E-01  8.50000000E-01  8.50000000E-01
  8.50000000E-01  8.50000000E-01  8.50000000E-01  8.50000000E-01  8.50000000E-01
  8.50000000E-01  8.50000000E-01  8.50000000E-01  8.50000000E-01  8.50000000E-01
  8.50000000E-01  8.50000000E-01  8.50000000E-01  8.50000000E-01  8.50000000E-01
  8.50000000E-01  8.50000000E-01  8.50000000E-01  8.50000000E-01  8.50000000E-01
  8.50000000E-01  8.50000000E-01  8.50000000E-01  8.50000000E-01  8.50000000E-01
  8.50000000E-01  8.50000000E-01  8.50000000E-01  8.50000000E-01  8.50000000E-01
  8.50000000E-01  8.50000000E-01  8.50000000E-01  8.50000000E-01  8.50000000E-01
  8.50000000E-01  8.50000000E-01  8.50000000E-01  8.50000000E-01  8.50000000E-01
  8.50000000E-01  8.50000000E-01  8.50000000E-01  8.50000000E-01  8.50000000E-01
  8.50000000E-01  8.50000000E-01  8.50000000E-01  8.50000000E-01  8.50000000E-01
  8.50000000E-01  8.50000000E-01  8.50000000E-01  8.50000000E-01  8.50000000E-01
  8.50000000E-01  8.50000000E-01  8.50000000E-01  8.50000000E-01  8.50000000E-01
  8.50000000E-01  8.50000000E-01  8.50000000E-01  8.50000000E-01  8.50000000E-01
  8.50000000E-01  8.50000000E-01  8.50000000E-01  8.50000000E-01  8.50000000E-01
  8.50000000E-01  8.50000000E-01  8.50000000E-01  8.50000000E-01  8.50000000E-01
  8.50000000E-01  8.50000000E-01  8.50000000E-01  8.50000000E-01  8.50000000E-01
  8.50000000E-01  8.50000000E-01  8.50000000E-01  8.50000000E-01  8.50000000E-01
  8.50000000E-01  8.50000000E-01  8.50000000E-01  8.50000000E-01  8.50000000E-01
  8.50000000E-01  8.50000000E-01  8.50000000E-01  8.50000000E-01  8.50000000E-01
  8.50000000E-01  8.50000000E-01  8.50000000E-01  8.50000000E-01  8.50000000E-01
  8.50000000E-01  8.50000000E-01  8.50000000E-01  8.50000000E-01  8.50000000E-01
  8.50000000E-01  8.50000000E-01  8.50000000E-01  8.50000000E-01  8.50000000E-01
  8.50000000E-01  8.50000000E-01  8.50000000E-01  8.50000000E-01  8.50000000E-01
  8.50000000E-01  8.50000000E-01  8.50000000E-01  8.50000000E-01  8.50000000E-01
  8.50000000E-01  8.50000000E-01  8.50000000E-01  8.50000000E-01  8.50000000E-01
  8.50000000E-01  8.50000000E-01  8.50000000E-01  8.50000000E-01  8.50000000E-01
  8.50000000E-01  8.50000000E-01  8.50000000E-01  8.50000000E-01  8.50000000E-01
  8.50000000E-01  8.50000000E-01  8.50000000E-01  8.50000000E-01  8.50000000E-01
  8.50000000E-01  8.50000000E-01  8.50000000E-01  8.50000000E-01  8.50000000E-01
  8.50000000E-01  8.50000000E-01  8.50000000E-01  8.50000000E-01  8.50000000E-01
  8.50000000E-01  8.50000000E-01  8.50000000E-01  8.50000000E-01  8.50000000E-01
  8.50000000E-01  8.50000000E-01  8.50000000E-01  8.50000000E-01  8.50000000E-01
  8.50000000E-01  8.50000000E-01  8.50000000E-01  8.50000000E-01  8.50000000E-01
  8.50000000E-01  8.50000000E-01  8.50000000E-01  8.50000000E-01  8.50000000E-01
  8.50000000E-01  8.50000000E-01  8.50000000E-01  8.50000000E-01  8.50000000E-01
  8.50000000E-01  8.50000000E-01  8.50000000E-01  8.50000000E-01  8.50000000E-01
  8.50000000E-01  8.50000000E-01  8.50000000E-01  8.50000000E-01  8.50000000E-01
  8.50000000E-01  8.50000000E-01  8.50000000E-01  8.50000000E-01  8.50000000E-01
  8.50000000E-01  8.50000000E-01  8.50000000E-01  8.50000000E-01  8.50000000E-01
  8.50000000E-01  8.50000000E-01  8.50000000E-01  8.50000000E-01  8.50000000E-01
  8.50000000E-01  8.50000000E-01  8.50000000E-01  8.50000000E-01  8.50000000E-01
  8.50000000E-01  8.50000000E-01  8.50000000E-01  8.50000000E-01  8.50000000E-01
  8.50000000E-01  8.50000000E-01  8.50000000E-01  8.50000000E-01  8.50000000E-01
  8.50000000E-01  8.50000000E-01  8.50000000E-01  8.50000000E-01  8.50000000E-01
  8.50000000E-01  8.50000000E-01  8.50000000E-01  8.50000000E-01  8.50000000E-01
  8.50000000E-01  8.50000000E-01  8.50000000E-01  8.50000000E-01  8.50000000E-01
  8.50000000E-01  8.50000000E-01  8.50000000E-01  8.50000000E-01  8.50000000E-01
  8.50000000E-01  8.50000000E-01  8.50000000E-01  8.50000000E-01  8.50000000E-01
  8.50000000E-01  8.50000000E-01  8.50000000E-01  8.50000000E-01  8.50000000E-01
  8.50000000E-01  8.50000000E-01  8.50000000E-01  8.50000000E-01  8.50000000E-01
  8.50000000E-01  8.50000000E-01  8.50000000E-01  8.50000000E-01  8.50000000E-01
  8.50000000E-01  8.50000000E-01  8.50000000E-01  8.50000000E-01  8.50000000E-01
  8.50000000E-01  8.50000000E-01  8.50000000E-01  8.50000000E-01  8.50000000E-01
  8.50000000E-01  8.50000000E-01  8.50000000E-01  8.50000000E-01  8.50000000E-01
  8.50000000E-01  8.50000000E-01  8.50000000E-01  8.50000000E-01  8.50000000E-01
  8.50000000E-01  8.50000000E-01  8.50000000E-01  8.50000000E-01  8.50000000E-01
  8.50000000E-01  8.50000000E-01  8.50000000E-01  8.50000000E-01  8.50000000E-01
  8.50000000E-01  8.50000000E-01  8.50000000E-01  8.50000000E-01  8.50000000E-01
  8.50000000E-01  8.50000000E-01  8.50000000E-01  8.50000000E-01  8.50000000E-01
  8.50000000E-01  8.50000000E-01  8.50000000E-01  8.50000000E-01  8.50000000E-01
  8.50000000E-01  8.50000000E-01  8.50000000E-01  8.50000000E-01  8.50000000E-01
  8.50000000E-01  8.50000000E-01  8.50000000E-01  8.50000000E-01  8.50000000E-01
  8.50000000E-01  8.50000000E-01  8.50000000E-01  8.50000000E-01  8.50000000E-01
  8.50000000E-01  8.50000000E-01  8.50000000E-01  8.50000000E-01  8.50000000E-01
  8.50000000E-01  8.50000000E-01  8.50000000E-01  8.50000000E-01  8.50000000E-01
  8.50000000E-01  8.50000000E-01  8.50000000E-01  8.50000000E-01  8.50000000E-01
  8.50000000E-01  8.50000000E-01  8.50000000E-01  8.50000000E-01  8.50000000E-01
  8.50000000E-01  8.50000000E-01  8.50000000E-01  8.50000000E-01  8.50000000E-01
  8.50000000E-01  8.50000000E-01  8.50000000E-01  8.50000000E-01  8.50000000E-01
  8.50000000E-01  8.50000000E-01  8.50000000E-01  8.50000000E-01  8.50000000E-01
  8.50000000E-01  8.50000000E-01  8.50000000E-01  8.50000000E-01  8.50000000E-01
  8.50000000E-01  8.50000000E-01  8.50000000E-01  8.50000000E-01  8.50000000E-01
  8.50000000E-01  8.50000000E-01  8.50000000E-01  8.50000000E-01  8.50000000E-01
  8.50000000E-01  8.50000000E-01  8.50000000E-01  8.50000000E-01  8.50000000E-01
  8.50000000E-01  8.50000000E-01  8.50000000E-01  8.50000000E-01  8.50000000E-01
  8.50000000E-01  8.50000000E-01  8.50000000E-01  8.50000000E-01  8.50000000E-01
  8.50000000E-01  8.50000000E-01  8.50000000E-01  8.50000000E-01  8.50000000E-01
  8.50000000E-01  8.50000000E-01  8.50000000E-01  8.50000000E-01  8.50000000E-01
  8.50000000E-01  8.50000000E-01  8.50000000E-01  8.50000000E-01  8.50000000E-01
  8.50000000E-01  8.50000000E-01  8.50000000E-01  8.50000000E-01  8.50000000E-01
  8.50000000E-01  8.50000000E-01  8.50000000E-01  8.50000000E-01  8.50000000E-01
  8.50000000E-01  8.50000000E-01  8.50000000E-01  8.50000000E-01  8.50000000E-01
  8.50000000E-01  8.50000000E-01  8.50000000E-01  8.50000000E-01  8.50000000E-01
  8.50000000E-01  8.50000000E-01  8.50000000E-01  8.50000000E-01  8.50000000E-01
  8.50000000E-01  8.50000000E-01  8.50000000E-01  8.50000000E-01  8.50000000E-01
  8.50000000E-01  8.50000000E-01  8.50000000E-01  8.50000000E-01  8.50000000E-01
  8.50000000E-01  8.50000000E-01  8.50000000E-01  8.50000000E-01  8.50000000E-01
  8.50000000E-01  8.50000000E-01  8.50000000E-01  8.50000000E-01  8.50000000E-01
  8.50000000E-01  8.50000000E-01  8.50000000E-01  8.50000000E-01  8.50000000E-01
  8.50000000E-01  8.50000000E-01  8.50000000E-01  8.50000000E-01  8.50000000E-01
  8.50000000E-01  8.50000000E-01  8.50000000E-01  8.50000000E-01  8.50000000E-01
  8.50000000E-01  8.50000000E-01  8.50000000E-01  8.50000000E-01  8.50000000E-01
  8.50000000E-01  8.50000000E-01  8.50000000E-01  8.50000000E-01  8.50000000E-01
  8.50000000E-01  8.50000000E-01  8.50000000E-01  8.50000000E-01  8.50000000E-01
  8.50000000E-01  8.50000000E-01  8.50000000E-01  8.50000000E-01  8.50000000E-01
  8.50000000E-01  8.50000000E-01  8.50000000E-01  8.50000000E-01  8.50000000E-01
  8.50000000E-01  8.50000000E-01  8.50000000E-01  8.50000000E-01  8.50000000E-01
  8.50000000E-01  8.50000000E-01  8.50000000E-01  8.50000000E-01  8.50000000E-01
  8.50000000E-01  8.50000000E-01  8.50000000E-01  8.50000000E-01  8.50000000E-01
  8.50000000E-01  8.50000000E-01  8.50000000E-01  8.50000000E-01  8.50000000E-01
  8.50000000E-01  8.50000000E-01  8.50000000E-01  8.50000000E-01  8.50000000E-01
  8.50000000E-01  8.50000000E-01  8.50000000E-01  8.50000000E-01  8.50000000E-01
  8.50000000E-01  8.50000000E-01  8.50000000E-01  8.50000000E-01  8.50000000E-01
  8.50000000E-01  8.50000000E-01  8.50000000E-01  8.50000000E-01  8.50000000E-01
  8.50000000E-01  8.50000000E-01  8.50000000E-01  8.50000000E-01  8.50000000E-01
  8.50000000E-01  8.50000000E-01  8.50000000E-01  8.50000000E-01  8.50000000E-01
  8.50000000E-01  8.50000000E-01  8.50000000E-01  8.50000000E-01  8.50000000E-01
  8.50000000E-01  8.50000000E-01  8.50000000E-01  8.50000000E-01  8.50000000E-01
  8.50000000E-01  8.50000000E-01  8.50000000E-01  8.50000000E-01  8.50000000E-01
  8.50000000E-01  8.50000000E-01  8.50000000E-01  8.50000000E-01  8.50000000E-01
  8.50000000E-01  8.50000000E-01  8.50000000E-01  8.50000000E-01  8.50000000E-01
  8.50000000E-01  8.50000000E-01  8.50000000E-01  8.50000000E-01  8.50000000E-01
  8.50000000E-01  8.50000000E-01  8.50000000E-01  8.50000000E-01  8.50000000E-01
  8.50000000E-01  8.50000000E-01  8.50000000E-01  8.50000000E-01  8.50000000E-01
  8.50000000E-01  8.50000000E-01  8.50000000E-01  8.50000000E-01  8.50000000E-01
  8.50000000E-01  8.50000000E-01  8.50000000E-01  8.50000000E-01  8.50000000E-01
  8.50000000E-01  8.50000000E-01  8.50000000E-01  8.50000000E-01  8.50000000E-01
  8.50000000E-01  8.50000000E-01  8.50000000E-01  8.50000000E-01  8.50000000E-01
  8.50000000E-01  8.50000000E-01  8.50000000E-01  8.50000000E-01  8.50000000E-01
  8.50000000E-01  8.50000000E-01  8.50000000E-01  8.50000000E-01  8.50000000E-01
  8.50000000E-01  8.50000000E-01  8.50000000E-01  8.50000000E-01  8.50000000E-01
  8.50000000E-01  8.50000000E-01  8.50000000E-01  8.50000000E-01  8.50000000E-01
  8.50000000E-01  8.50000000E-01  8.50000000E-01  8.50000000E-01  8.50000000E-01
  8.50000000E-01  8.50000000E-01  8.50000000E-01  8.50000000E-01  8.50000000E-01
  8.50000000E-01  8.50000000E-01  8.50000000E-01  8.50000000E-01  8.50000000E-01
  8.50000000E-01  8.50000000E-01  8.50000000E-01  8.50000000E-01  8.50000000E-01
  8.50000000E-01  8.50000000E-01  8.50000000E-01  8.50000000E-01  8.50000000E-01
  8.50000000E-01  8.50000000E-01  8.50000000E-01  8.50000000E-01  8.50000000E-01
  8.50000000E-01  8.50000000E-01  8.50000000E-01  8.50000000E-01  8.50000000E-01
  8.50000000E-01  8.50000000E-01  8.50000000E-01  8.50000000E-01  8.50000000E-01
  8.50000000E-01  8.50000000E-01  8.50000000E-01  8.50000000E-01  8.50000000E-01
  8.50000000E-01  8.50000000E-01  8.50000000E-01  8.50000000E-01  8.50000000E-01
  8.50000000E-01  8.50000000E-01  8.50000000E-01  8.50000000E-01  8.50000000E-01
  8.50000000E-01  8.50000000E-01  8.50000000E-01  8.50000000E-01  8.50000000E-01
  8.50000000E-01  8.50000000E-01  8.50000000E-01  8.50000000E-01  8.50000000E-01
  8.50000000E-01  8.50000000E-01  8.50000000E-01  8.50000000E-01  8.50000000E-01
  8.50000000E-01  8.50000000E-01  8.50000000E-01  8.50000000E-01  8.50000000E-01
  8.50000000E-01  8.50000000E-01  8.50000000E-01  8.50000000E-01  8.50000000E-01
  8.50000000E-01  8.50000000E-01  8.50000000E-01  8.50000000E-01  8.50000000E-01
  8.50000000E-01  8.50000000E-01  8.50000000E-01  8.50000000E-01  8.50000000E-01
  8.50000000E-01  8.50000000E-01  8.50000000E-01  8.50000000E-01  8.50000000E-01
  8.50000000E-01  8.50000000E-01  8.50000000E-01  8.50000000E-01  8.50000000E-01
  8.50000000E-01  8.50000000E-01  8.50000000E-01  8.50000000E-01  8.50000000E-01
  8.50000000E-01  8.50000000E-01  8.50000000E-01  8.50000000E-01  8.50000000E-01
  8.50000000E-01  8.50000000E-01  8.50000000E-01  8.50000000E-01  8.50000000E-01
  8.50000000E-01  8.50000000E-01  8.50000000E-01  8.50000000E-01  8.50000000E-01
  8.50000000E-01  8.50000000E-01  8.50000000E-01  8.50000000E-01  8.50000000E-01
  8.50000000E-01  8.50000000E-01  8.50000000E-01  8.50000000E-01  8.50000000E-01
  8.50000000E-01  8.50000000E-01  8.50000000E-01  8.50000000E-01  8.50000000E-01
  8.50000000E-01  8.50000000E-01  8.50000000E-01  8.50000000E-01  8.50000000E-01
  8.50000000E-01  8.50000000E-01  8.50000000E-01  8.50000000E-01  8.50000000E-01
  8.50000000E-01  8.50000000E-01  8.50000000E-01  8.50000000E-01  8.50000000E-01
  8.50000000E-01  8.50000000E-01  8.50000000E-01  8.50000000E-01  8.50000000E-01
  8.50000000E-01  8.50000000E-01  8.50000000E-01  8.50000000E-01  8.50000000E-01
  8.50000000E-01  8.50000000E-01  8.50000000E-01  8.50000000E-01  8.50000000E-01
  8.50000000E-01  8.50000000E-01  8.50000000E-01  8.50000000E-01  8.50000000E-01
  8.50000000E-01  8.50000000E-01  8.50000000E-01  8.50000000E-01  8.50000000E-01
  8.50000000E-01  8.50000000E-01  8.50000000E-01  8.50000000E-01  8.50000000E-01
  8.50000000E-01  8.50000000E-01  8.50000000E-01  8.50000000E-01  8.50000000E-01
  8.50000000E-01  8.50000000E-01  8.50000000E-01  8.50000000E-01  8.50000000E-01
  8.50000000E-01  8.50000000E-01  8.50000000E-01  8.50000000E-01  8.50000000E-01
  8.50000000E-01  8.50000000E-01  8.50000000E-01  8.50000000E-01  8.50000000E-01
  8.50000000E-01  8.50000000E-01  8.50000000E-01  8.50000000E-01  8.50000000E-01
  8.50000000E-01  8.50000000E-01  8.50000000E-01  8.50000000E-01  8.50000000E-01
  8.50000000E-01  8.50000000E-01  8.50000000E-01  8.50000000E-01  8.50000000E-01
  8.50000000E-01  8.50000000E-01  8.50000000E-01  8.50000000E-01  8.50000000E-01
  8.50000000E-01  8.50000000E-01  8.50000000E-01  8.50000000E-01  8.50000000E-01
  8.50000000E-01  8.50000000E-01  8.50000000E-01  8.50000000E-01  8.50000000E-01
  8.50000000E-01  8.50000000E-01  8.50000000E-01  8.50000000E-01  8.50000000E-01
  8.50000000E-01  8.50000000E-01  8.50000000E-01  8.50000000E-01  8.50000000E-01
  8.50000000E-01  8.50000000E-01  8.50000000E-01  8.50000000E-01  8.50000000E-01
  8.50000000E-01  8.50000000E-01  8.50000000E-01  8.50000000E-01  8.50000000E-01
  8.50000000E-01  8.50000000E-01  8.50000000E-01  8.50000000E-01  8.50000000E-01
  8.50000000E-01  8.50000000E-01  8.50000000E-01  8.50000000E-01  8.50000000E-01
  8.50000000E-01  8.50000000E-01  8.50000000E-01  8.50000000E-01  8.50000000E-01
  8.50000000E-01  8.50000000E-01  8.50000000E-01  8.50000000E-01  8.50000000E-01
  8.50000000E-01  8.50000000E-01  8.50000000E-01  8.50000000E-01  8.50000000E-01
  8.50000000E-01  8.50000000E-01  8.50000000E-01  8.50000000E-01  8.50000000E-01
  8.50000000E-01  8.50000000E-01  8.50000000E-01  8.50000000E-01  8.50000000E-01
  8.50000000E-01  8.50000000E-01  8.50000000E-01  8.50000000E-01  8.50000000E-01
  8.50000000E-01  8.50000000E-01  8.50000000E-01  8.50000000E-01  8.50000000E-01
  8.50000000E-01  8.50000000E-01  8.50000000E-01  8.50000000E-01  8.50000000E-01
  8.50000000E-01  8.50000000E-01  8.50000000E-01  8.50000000E-01  8.50000000E-01
  8.50000000E-01  8.50000000E-01  8.50000000E-01  8.50000000E-01  8.50000000E-01
  8.50000000E-01  8.50000000E-01  8.50000000E-01  8.50000000E-01  8.50000000E-01
  8.50000000E-01  8.50000000E-01  8.50000000E-01  8.50000000E-01  8.50000000E-01
  8.50000000E-01  8.50000000E-01  8.50000000E-01  8.50000000E-01  8.50000000E-01
  8.50000000E-01  8.50000000E-01  8.50000000E-01  8.50000000E-01  8.50000000E-01
  8.50000000E-01  8.50000000E-01  8.50000000E-01  8.50000000E-01  8.50000000E-01
  8.50000000E-01  8.50000000E-01  8.50000000E-01  8.50000000E-01  8.50000000E-01
  8.50000000E-01  8.50000000E-01  8.50000000E-01  8.50000000E-01  8.50000000E-01
  8.50000000E-01  8.50000000E-01  8.50000000E-01  8.50000000E-01  8.50000000E-01
  8.50000000E-01  8.50000000E-01  8.50000000E-01  8.50000000E-01  8.50000000E-01
  8.50000000E-01  8.50000000E-01  8.50000000E-01  8.50000000E-01  8.50000000E-01
  8.50000000E-01  8.50000000E-01  8.50000000E-01  8.50000000E-01  8.50000000E-01
  8.50000000E-01  8.50000000E-01  8.50000000E-01  8.50000000E-01  8.50000000E-01
  8.50000000E-01  8.50000000E-01  8.50000000E-01  8.50000000E-01  8.50000000E-01
  8.50000000E-01  8.50000000E-01  8.50000000E-01  8.50000000E-01  8.50000000E-01
  8.50000000E-01  8.50000000E-01  8.50000000E-01  8.50000000E-01  8.50000000E-01
  8.50000000E-01  8.50000000E-01  8.50000000E-01  8.50000000E-01  8.50000000E-01
  8.50000000E-01  8.50000000E-01  8.50000000E-01  8.50000000E-01  8.50000000E-01
  8.50000000E-01  8.50000000E-01  8.50000000E-01  8.50000000E-01  8.50000000E-01
  8.50000000E-01  8.50000000E-01  8.50000000E-01  8.50000000E-01  8.50000000E-01
  8.50000000E-01  8.50000000E-01  8.50000000E-01  8.50000000E-01  8.50000000E-01
  8.50000000E-01  8.50000000E-01  8.50000000E-01  8.50000000E-01  8.50000000E-01
  8.50000000E-01  8.50000000E-01  8.50000000E-01  8.50000000E-01  8.50000000E-01
  8.50000000E-01  8.50000000E-01  8.50000000E-01  8.50000000E-01  8.50000000E-01
  8.50000000E-01  8.50000000E-01  8.50000000E-01  8.50000000E-01  8.50000000E-01
  8.50000000E-01  8.50000000E-01  8.50000000E-01  8.50000000E-01  8.50000000E-01
  8.50000000E-01  8.50000000E-01  8.50000000E-01  8.50000000E-01  8.50000000E-01
  8.50000000E-01  8.50000000E-01  8.50000000E-01  8.50000000E-01  8.50000000E-01
  8.50000000E-01  8.50000000E-01  8.50000000E-01  8.50000000E-01  8.50000000E-01
  8.50000000E-01  8.50000000E-01  8.50000000E-01  8.50000000E-01  8.50000000E-01
  8.50000000E-01  8.50000000E-01  8.50000000E-01  8.50000000E-01  8.50000000E-01
  8.50000000E-01  8.50000000E-01  8.50000000E-01  8.50000000E-01  8.50000000E-01
  8.50000000E-01  8.50000000E-01  8.50000000E-01  8.50000000E-01  8.50000000E-01
  8.50000000E-01  8.50000000E-01  8.50000000E-01  8.50000000E-01  8.50000000E-01
  8.50000000E-01  8.50000000E-01  8.50000000E-01  8.50000000E-01  8.50000000E-01
  8.50000000E-01  8.50000000E-01  8.50000000E-01  8.50000000E-01  8.50000000E-01
  8.50000000E-01  8.50000000E-01  8.50000000E-01  8.50000000E-01  8.50000000E-01
  8.50000000E-01  8.50000000E-01  8.50000000E-01  8.50000000E-01  8.50000000E-01
  8.50000000E-01  8.50000000E-01  8.50000000E-01  8.50000000E-01  8.50000000E-01
  8.50000000E-01  8.50000000E-01  8.50000000E-01  8.50000000E-01  8.50000000E-01
  8.50000000E-01  8.50000000E-01  8.50000000E-01  8.50000000E-01  8.50000000E-01
  8.50000000E-01  8.50000000E-01  8.50000000E-01  8.50000000E-01  8.50000000E-01
  8.50000000E-01  8.50000000E-01  8.50000000E-01  8.50000000E-01  8.50000000E-01
  8.50000000E-01  8.50000000E-01  8.50000000E-01  8.50000000E-01  8.50000000E-01
  8.50000000E-01  8.50000000E-01  8.50000000E-01  8.50000000E-01  8.50000000E-01
  8.50000000E-01  8.50000000E-01  8.50000000E-01  8.50000000E-01  8.50000000E-01
  8.50000000E-01  8.50000000E-01  8.50000000E-01  8.50000000E-01  8.50000000E-01
  8.50000000E-01  8.50000000E-01  8.50000000E-01  8.50000000E-01  8.50000000E-01
  8.50000000E-01  8.50000000E-01  8.50000000E-01  8.50000000E-01  8.50000000E-01
  8.50000000E-01  8.50000000E-01  8.50000000E-01  8.50000000E-01  8.50000000E-01
  8.50000000E-01  8.50000000E-01  8.50000000E-01  8.50000000E-01  8.50000000E-01
  8.50000000E-01  8.50000000E-01  8.50000000E-01  8.50000000E-01  8.50000000E-01
  8.50000000E-01  8.50000000E-01  8.50000000E-01  8.50000000E-01  8.50000000E-01
  8.50000000E-01  8.50000000E-01  8.50000000E-01  8.50000000E-01  8.50000000E-01
  8.50000000E-01  8.50000000E-01  8.50000000E-01  8.50000000E-01  8.50000000E-01
  8.50000000E-01  8.50000000E-01  8.50000000E-01  8.50000000E-01  8.50000000E-01
  8.50000000E-01  8.50000000E-01  8.50000000E-01  8.50000000E-01  8.50000000E-01
  8.50000000E-01  8.50000000E-01  8.50000000E-01  8.50000000E-01  8.50000000E-01
  8.50000000E-01  8.50000000E-01  8.50000000E-01  8.50000000E-01  8.50000000E-01
  8.50000000E-01  8.50000000E-01  8.50000000E-01  8.50000000E-01  8.50000000E-01
  8.50000000E-01  8.50000000E-01  8.50000000E-01  8.50000000E-01  8.50000000E-01
  8.50000000E-01  8.50000000E-01  8.50000000E-01  8.50000000E-01  8.50000000E-01
  8.50000000E-01  8.50000000E-01  8.50000000E-01  8.50000000E-01  8.50000000E-01
  8.50000000E-01  8.50000000E-01  8.50000000E-01  8.50000000E-01  8.50000000E-01
  8.50000000E-01  8.50000000E-01  8.50000000E-01  8.50000000E-01  8.50000000E-01
  8.50000000E-01  8.50000000E-01  8.50000000E-01  8.50000000E-01  8.50000000E-01
  8.50000000E-01  8.50000000E-01  8.50000000E-01  8.50000000E-01  8.50000000E-01
  8.50000000E-01  8.50000000E-01  8.50000000E-01  8.50000000E-01  8.50000000E-01
  8.50000000E-01  8.50000000E-01  8.50000000E-01  8.50000000E-01  8.50000000E-01
  8.50000000E-01  8.50000000E-01  8.50000000E-01  8.50000000E-01  8.50000000E-01
  8.50000000E-01  8.50000000E-01  8.50000000E-01  8.50000000E-01  8.50000000E-01
  8.50000000E-01  8.50000000E-01  8.50000000E-01  8.50000000E-01  8.50000000E-01
  8.50000000E-01  8.50000000E-01  8.50000000E-01  8.50000000E-01  8.50000000E-01
  8.50000000E-01  8.50000000E-01  8.50000000E-01  8.50000000E-01  8.50000000E-01
  8.50000000E-01  8.50000000E-01  8.50000000E-01  8.50000000E-01  8.50000000E-01
  8.50000000E-01  8.50000000E-01  8.50000000E-01  8.50000000E-01  8.50000000E-01
  8.50000000E-01  8.50000000E-01  8.50000000E-01  8.50000000E-01  8.50000000E-01
  8.50000000E-01  8.50000000E-01  8.50000000E-01  8.50000000E-01  8.50000000E-01
  8.50000000E-01  8.50000000E-01  8.50000000E-01  8.50000000E-01  8.50000000E-01
  8.50000000E-01  8.50000000E-01  8.50000000E-01  8.50000000E-01  8.50000000E-01
  8.50000000E-01  8.50000000E-01  8.50000000E-01  8.50000000E-01  8.50000000E-01
  8.50000000E-01  8.50000000E-01  8.50000000E-01  8.50000000E-01  8.50000000E-01
  8.50000000E-01  8.50000000E-01  8.50000000E-01  8.50000000E-01  8.50000000E-01
  8.50000000E-01  8.50000000E-01  8.50000000E-01  8.50000000E-01  8.50000000E-01
  8.50000000E-01  8.50000000E-01  8.50000000E-01  8.50000000E-01  8.50000000E-01
  8.50000000E-01  8.50000000E-01  8.50000000E-01  8.50000000E-01  8.50000000E-01
  8.50000000E-01  8.50000000E-01  8.50000000E-01  8.50000000E-01  8.50000000E-01
  8.50000000E-01  8.50000000E-01  8.50000000E-01  8.50000000E-01  8.50000000E-01
  8.50000000E-01  8.50000000E-01  8.50000000E-01  8.50000000E-01  8.50000000E-01
  8.50000000E-01  8.50000000E-01  8.50000000E-01  8.50000000E-01  8.50000000E-01
  8.50000000E-01  8.50000000E-01  8.50000000E-01  8.50000000E-01  8.50000000E-01
  8.50000000E-01  8.50000000E-01  8.50000000E-01  8.50000000E-01  8.50000000E-01
  8.50000000E-01  8.50000000E-01  8.50000000E-01  8.50000000E-01  8.50000000E-01
  8.50000000E-01  8.50000000E-01  8.50000000E-01  8.50000000E-01  8.50000000E-01
  8.50000000E-01  8.50000000E-01  8.50000000E-01  8.50000000E-01  8.50000000E-01
  8.50000000E-01  8.50000000E-01  8.50000000E-01  8.50000000E-01  8.50000000E-01
  8.50000000E-01  8.50000000E-01  8.50000000E-01  8.50000000E-01  8.50000000E-01
  8.50000000E-01  8.50000000E-01  8.50000000E-01  8.50000000E-01  8.50000000E-01
  8.50000000E-01  8.50000000E-01  8.50000000E-01  8.50000000E-01  8.50000000E-01
  8.50000000E-01  8.50000000E-01  8.50000000E-01  8.50000000E-01  8.50000000E-01
  8.50000000E-01  8.50000000E-01  8.50000000E-01  8.50000000E-01  8.50000000E-01
  8.50000000E-01  8.50000000E-01  8.50000000E-01  8.50000000E-01  8.50000000E-01
  8.50000000E-01  8.50000000E-01  8.50000000E-01  8.50000000E-01  8.50000000E-01
  8.50000000E-01  8.50000000E-01  8.50000000E-01  8.50000000E-01  8.50000000E-01
  8.50000000E-01  8.50000000E-01  8.50000000E-01  8.50000000E-01  8.50000000E-01
  8.50000000E-01  8.50000000E-01  8.50000000E-01  8.50000000E-01  8.50000000E-01
  8.50000000E-01  8.50000000E-01  8.50000000E-01  8.50000000E-01  8.50000000E-01
  8.50000000E-01  8.50000000E-01  8.50000000E-01  8.50000000E-01  8.50000000E-01
  8.50000000E-01  8.50000000E-01  8.50000000E-01  8.50000000E-01  8.50000000E-01
  8.50000000E-01  8.50000000E-01  8.50000000E-01  8.50000000E-01  8.50000000E-01
  8.50000000E-01  8.50000000E-01  8.50000000E-01  8.50000000E-01  8.50000000E-01
  8.50000000E-01  8.50000000E-01  8.50000000E-01  8.50000000E-01  8.50000000E-01
  8.50000000E-01  8.50000000E-01  8.50000000E-01  8.50000000E-01  8.50000000E-01
  8.50000000E-01  8.50000000E-01  8.50000000E-01  8.50000000E-01  8.50000000E-01
  8.50000000E-01  8.50000000E-01  8.50000000E-01  8.50000000E-01  8.50000000E-01
  8.50000000E-01  8.50000000E-01  8.50000000E-01  8.50000000E-01  8.50000000E-01
  8.50000000E-01  8.50000000E-01  8.50000000E-01  8.50000000E-01  8.50000000E-01
  8.50000000E-01  8.50000000E-01  8.50000000E-01  8.50000000E-01  8.50000000E-01
  8.50000000E-01  8.50000000E-01  8.50000000E-01  8.50000000E-01  8.50000000E-01
  8.50000000E-01  8.50000000E-01  8.50000000E-01  8.50000000E-01  8.50000000E-01
  8.50000000E-01  8.50000000E-01  8.50000000E-01  8.50000000E-01  8.50000000E-01
  8.50000000E-01  8.50000000E-01  8.50000000E-01  8.50000000E-01  8.50000000E-01
  8.50000000E-01  8.50000000E-01  8.50000000E-01  8.50000000E-01  8.50000000E-01
  8.50000000E-01  8.50000000E-01  8.50000000E-01  8.50000000E-01  8.50000000E-01
  8.50000000E-01  8.50000000E-01  8.50000000E-01  8.50000000E-01  8.50000000E-01
  8.50000000E-01  8.50000000E-01  8.50000000E-01  8.50000000E-01  8.50000000E-01
  8.50000000E-01  8.50000000E-01  8.50000000E-01  8.50000000E-01  8.50000000E-01
  8.50000000E-01  8.50000000E-01  8.50000000E-01  8.50000000E-01  8.50000000E-01
  8.50000000E-01  8.50000000E-01  8.50000000E-01  8.50000000E-01  8.50000000E-01
  8.50000000E-01  8.50000000E-01  8.50000000E-01  8.50000000E-01  8.50000000E-01
  8.50000000E-01  8.50000000E-01  8.50000000E-01  8.50000000E-01  8.50000000E-01
  8.50000000E-01  8.50000000E-01  8.50000000E-01  8.50000000E-01  8.50000000E-01
  8.50000000E-01  8.50000000E-01  8.50000000E-01  8.50000000E-01  8.50000000E-01
  8.50000000E-01  8.50000000E-01  8.50000000E-01  8.50000000E-01  8.50000000E-01
  8.50000000E-01  8.50000000E-01  8.50000000E-01  8.50000000E-01  8.50000000E-01
  8.50000000E-01  8.50000000E-01  8.50000000E-01  8.50000000E-01  8.50000000E-01
  8.50000000E-01  8.50000000E-01  8.50000000E-01  8.50000000E-01  8.50000000E-01
  8.50000000E-01  8.50000000E-01  8.50000000E-01  8.50000000E-01  8.50000000E-01
  8.50000000E-01  8.50000000E-01  8.50000000E-01  8.50000000E-01  8.50000000E-01
  8.50000000E-01  8.50000000E-01  8.50000000E-01  8.50000000E-01  8.50000000E-01
  8.50000000E-01  8.50000000E-01  8.50000000E-01  8.50000000E-01  8.50000000E-01
  8.50000000E-01  8.50000000E-01  8.50000000E-01  8.50000000E-01  8.50000000E-01
  8.50000000E-01  8.50000000E-01  8.50000000E-01  8.50000000E-01  8.50000000E-01
  8.50000000E-01  8.50000000E-01  8.50000000E-01  8.50000000E-01  8.50000000E-01
  8.50000000E-01  8.50000000E-01  8.50000000E-01  8.50000000E-01  8.50000000E-01
  8.50000000E-01  8.50000000E-01  8.50000000E-01  8.50000000E-01  8.50000000E-01
  8.50000000E-01  8.50000000E-01  8.50000000E-01  8.50000000E-01  8.50000000E-01
  8.50000000E-01  8.50000000E-01  8.50000000E-01  8.50000000E-01  8.50000000E-01
  8.50000000E-01  8.50000000E-01  8.50000000E-01  8.50000000E-01  8.50000000E-01
  8.50000000E-01  8.50000000E-01  8.50000000E-01  8.50000000E-01  8.50000000E-01
  8.50000000E-01  8.50000000E-01  8.50000000E-01  8.50000000E-01  8.50000000E-01
  8.50000000E-01  8.50000000E-01  8.50000000E-01  8.50000000E-01  8.50000000E-01
  8.50000000E-01  8.50000000E-01  8.50000000E-01  8.50000000E-01  8.50000000E-01
  8.50000000E-01  8.50000000E-01  8.50000000E-01  8.50000000E-01  8.50000000E-01
  8.50000000E-01  8.50000000E-01  8.50000000E-01  8.50000000E-01  8.50000000E-01
  8.50000000E-01  8.50000000E-01  8.50000000E-01  8.50000000E-01  8.50000000E-01
  8.50000000E-01  8.50000000E-01  8.50000000E-01  8.50000000E-01  8.50000000E-01
  8.50000000E-01  8.50000000E-01  8.50000000E-01  8.50000000E-01  8.50000000E-01
  8.50000000E-01  8.50000000E-01  8.50000000E-01  8.50000000E-01  8.50000000E-01
  8.50000000E-01  8.50000000E-01  8.50000000E-01  8.50000000E-01  8.50000000E-01
  8.50000000E-01  8.50000000E-01  8.50000000E-01  8.50000000E-01  8.50000000E-01
  8.50000000E-01  8.50000000E-01  8.50000000E-01  8.50000000E-01  8.50000000E-01
  8.50000000E-01  8.50000000E-01  8.50000000E-01  8.50000000E-01  8.50000000E-01
  8.50000000E-01  8.50000000E-01  8.50000000E-01  8.50000000E-01  8.50000000E-01
  8.50000000E-01  8.50000000E-01  8.50000000E-01  8.50000000E-01  8.50000000E-01
  8.50000000E-01  8.50000000E-01  8.50000000E-01  8.50000000E-01  8.50000000E-01
  8.50000000E-01  8.50000000E-01  8.50000000E-01  8.50000000E-01  8.50000000E-01
  8.50000000E-01  8.50000000E-01  8.50000000E-01  8.50000000E-01  8.50000000E-01
  8.50000000E-01  8.50000000E-01  8.50000000E-01  8.50000000E-01  8.50000000E-01
  8.50000000E-01  8.50000000E-01  8.50000000E-01  8.50000000E-01  8.50000000E-01
  8.50000000E-01  8.50000000E-01  8.50000000E-01  8.50000000E-01  8.50000000E-01
  8.50000000E-01  8.50000000E-01  8.50000000E-01  8.50000000E-01  8.50000000E-01
  8.50000000E-01  8.50000000E-01  8.50000000E-01  8.50000000E-01  8.50000000E-01
  8.50000000E-01  8.50000000E-01  8.50000000E-01  8.50000000E-01  8.50000000E-01
  8.50000000E-01  8.50000000E-01  8.50000000E-01  8.50000000E-01  8.50000000E-01
  8.50000000E-01  8.50000000E-01  8.50000000E-01  8.50000000E-01  8.50000000E-01
  8.50000000E-01  8.50000000E-01  8.50000000E-01  8.50000000E-01  8.50000000E-01
  8.50000000E-01  8.50000000E-01  8.50000000E-01  8.50000000E-01  8.50000000E-01
  8.50000000E-01  8.50000000E-01  8.50000000E-01  8.50000000E-01  8.50000000E-01
  8.50000000E-01  8.50000000E-01  8.50000000E-01  8.50000000E-01  8.50000000E-01
  8.50000000E-01  8.50000000E-01  8.50000000E-01  8.50000000E-01  8.50000000E-01
  8.50000000E-01  8.50000000E-01  8.50000000E-01  8.50000000E-01  8.50000000E-01
  8.50000000E-01  8.50000000E-01  8.50000000E-01  8.50000000E-01  8.50000000E-01
  8.50000000E-01  8.50000000E-01  8.50000000E-01  8.50000000E-01  8.50000000E-01
  8.50000000E-01  8.50000000E-01  8.50000000E-01  8.50000000E-01  8.50000000E-01
  8.50000000E-01  8.50000000E-01  8.50000000E-01  8.50000000E-01  8.50000000E-01
  8.50000000E-01  8.50000000E-01  8.50000000E-01  8.50000000E-01  8.50000000E-01
  8.50000000E-01  8.50000000E-01  8.50000000E-01  8.50000000E-01  8.50000000E-01
  8.50000000E-01  8.50000000E-01  8.50000000E-01  8.50000000E-01  8.50000000E-01
  8.50000000E-01  8.50000000E-01  8.50000000E-01  8.50000000E-01  8.50000000E-01
  8.50000000E-01  8.50000000E-01  8.50000000E-01  8.50000000E-01  8.50000000E-01
  8.50000000E-01  8.50000000E-01  8.50000000E-01  8.50000000E-01  8.50000000E-01
  8.50000000E-01  8.50000000E-01  8.50000000E-01  8.50000000E-01  8.50000000E-01
  8.50000000E-01  8.50000000E-01  8.50000000E-01  8.50000000E-01  8.50000000E-01
  8.50000000E-01  8.50000000E-01  8.50000000E-01  8.50000000E-01  8.50000000E-01
  8.50000000E-01  8.50000000E-01  8.50000000E-01  8.50000000E-01  8.50000000E-01
  8.50000000E-01  8.50000000E-01  8.50000000E-01  8.50000000E-01  8.50000000E-01
  8.50000000E-01  8.50000000E-01  8.50000000E-01  8.50000000E-01  8.50000000E-01
  8.50000000E-01  8.50000000E-01  8.50000000E-01  8.50000000E-01  8.50000000E-01
  8.50000000E-01  8.50000000E-01  8.50000000E-01  8.50000000E-01  8.50000000E-01
  8.50000000E-01  8.50000000E-01  8.50000000E-01  8.50000000E-01  8.50000000E-01
  8.50000000E-01  8.50000000E-01  8.50000000E-01  8.50000000E-01  8.50000000E-01
  8.50000000E-01  8.50000000E-01  8.50000000E-01  8.50000000E-01  8.50000000E-01
  8.50000000E-01  8.50000000E-01  8.50000000E-01  8.50000000E-01  8.50000000E-01
  8.50000000E-01  8.50000000E-01  8.50000000E-01  8.50000000E-01  8.50000000E-01
  8.50000000E-01  8.50000000E-01  8.50000000E-01  8.50000000E-01  8.50000000E-01
  8.50000000E-01  8.50000000E-01  8.50000000E-01  8.50000000E-01  8.50000000E-01
  8.50000000E-01  8.50000000E-01  8.50000000E-01  8.50000000E-01  8.50000000E-01
  8.50000000E-01  8.50000000E-01  8.50000000E-01  8.50000000E-01  8.50000000E-01
  8.50000000E-01  8.50000000E-01  8.50000000E-01  8.50000000E-01  8.50000000E-01
  8.50000000E-01  8.50000000E-01  8.50000000E-01  8.50000000E-01  8.50000000E-01
  8.50000000E-01  8.50000000E-01  8.50000000E-01  8.50000000E-01  8.50000000E-01
  8.50000000E-01  8.50000000E-01  8.50000000E-01  8.50000000E-01  8.50000000E-01
  8.50000000E-01  8.50000000E-01  8.50000000E-01  8.50000000E-01  8.50000000E-01
  8.50000000E-01  8.50000000E-01  8.50000000E-01  8.50000000E-01  8.50000000E-01
  8.50000000E-01  8.50000000E-01  8.50000000E-01  8.50000000E-01  8.50000000E-01
  8.50000000E-01  8.50000000E-01  8.50000000E-01  8.50000000E-01  8.50000000E-01
  8.50000000E-01  8.50000000E-01  8.50000000E-01  8.50000000E-01  8.50000000E-01
  8.50000000E-01  8.50000000E-01  8.50000000E-01  8.50000000E-01  8.50000000E-01
  8.50000000E-01  8.50000000E-01  8.50000000E-01  8.50000000E-01  8.50000000E-01
  8.50000000E-01  8.50000000E-01  8.50000000E-01  8.50000000E-01  8.50000000E-01
  8.50000000E-01  8.50000000E-01  8.50000000E-01  8.50000000E-01  8.50000000E-01
  8.50000000E-01  8.50000000E-01  8.50000000E-01  8.50000000E-01  8.50000000E-01
  8.50000000E-01  8.50000000E-01  8.50000000E-01  8.50000000E-01  8.50000000E-01
  8.50000000E-01  8.50000000E-01  8.50000000E-01  8.50000000E-01  8.50000000E-01
  8.50000000E-01  8.50000000E-01  8.50000000E-01  8.50000000E-01  8.50000000E-01
  8.50000000E-01  8.50000000E-01  8.50000000E-01  8.50000000E-01  8.50000000E-01
  8.50000000E-01  8.50000000E-01  8.50000000E-01  8.50000000E-01  8.50000000E-01
  8.50000000E-01  8.50000000E-01  8.50000000E-01  8.50000000E-01  8.50000000E-01
  8.50000000E-01  8.50000000E-01  8.50000000E-01  8.50000000E-01  8.50000000E-01
  8.50000000E-01  8.50000000E-01  8.50000000E-01  8.50000000E-01  8.50000000E-01
  8.50000000E-01  8.50000000E-01  8.50000000E-01  8.50000000E-01  8.50000000E-01
  8.50000000E-01  8.50000000E-01  8.50000000E-01  8.50000000E-01  8.50000000E-01
  8.50000000E-01  8.50000000E-01  8.50000000E-01  8.50000000E-01  8.50000000E-01
  8.50000000E-01  8.50000000E-01  8.50000000E-01  8.50000000E-01  8.50000000E-01
  8.50000000E-01  8.50000000E-01  8.50000000E-01  8.50000000E-01  8.50000000E-01
  8.50000000E-01  8.50000000E-01  8.50000000E-01  8.50000000E-01  8.50000000E-01
  8.50000000E-01  8.50000000E-01  8.50000000E-01  8.50000000E-01  8.50000000E-01
  8.50000000E-01  8.50000000E-01  8.50000000E-01  8.50000000E-01  8.50000000E-01
  8.50000000E-01  8.50000000E-01  8.50000000E-01  8.50000000E-01  8.50000000E-01
  8.50000000E-01  8.50000000E-01  8.50000000E-01  8.50000000E-01  8.50000000E-01
  8.50000000E-01  8.50000000E-01  8.50000000E-01  8.50000000E-01  8.50000000E-01
  8.50000000E-01  8.50000000E-01  8.50000000E-01  8.50000000E-01  8.50000000E-01
  8.50000000E-01  8.50000000E-01  8.50000000E-01  8.50000000E-01  8.50000000E-01
  8.50000000E-01  8.50000000E-01  8.50000000E-01  8.50000000E-01  8.50000000E-01
  8.50000000E-01  8.50000000E-01  8.50000000E-01  8.50000000E-01  8.50000000E-01
  8.50000000E-01  8.50000000E-01  8.50000000E-01  8.50000000E-01  8.50000000E-01
  8.50000000E-01  8.50000000E-01  8.50000000E-01  8.50000000E-01  8.50000000E-01
  8.50000000E-01  8.50000000E-01  8.50000000E-01  8.50000000E-01  8.50000000E-01
  8.50000000E-01  8.50000000E-01  8.50000000E-01  8.50000000E-01  8.50000000E-01
  8.50000000E-01  8.50000000E-01  8.50000000E-01  8.50000000E-01  8.50000000E-01
  8.50000000E-01  8.50000000E-01  8.50000000E-01  8.50000000E-01  8.50000000E-01
  8.50000000E-01  8.50000000E-01  8.50000000E-01  8.50000000E-01  8.50000000E-01
  8.50000000E-01  8.50000000E-01  8.50000000E-01  8.50000000E-01  8.50000000E-01
  8.50000000E-01  8.50000000E-01  8.50000000E-01  8.50000000E-01  8.50000000E-01
  8.50000000E-01  8.50000000E-01  8.50000000E-01  8.50000000E-01  8.50000000E-01
  8.50000000E-01  8.50000000E-01  8.50000000E-01  8.50000000E-01  8.50000000E-01
  8.50000000E-01  8.50000000E-01  8.50000000E-01  8.50000000E-01  8.50000000E-01
  8.50000000E-01  8.50000000E-01  8.50000000E-01  8.50000000E-01  8.50000000E-01
  8.50000000E-01  8.50000000E-01  8.50000000E-01  8.50000000E-01  8.50000000E-01
  8.50000000E-01  8.50000000E-01  8.50000000E-01  8.50000000E-01  8.50000000E-01
  8.50000000E-01  8.50000000E-01  8.50000000E-01  8.50000000E-01  8.50000000E-01
  8.50000000E-01  8.50000000E-01  8.50000000E-01  8.50000000E-01  8.50000000E-01
  8.50000000E-01  8.50000000E-01  8.50000000E-01  8.50000000E-01  8.50000000E-01
  8.50000000E-01  8.50000000E-01  8.50000000E-01  8.50000000E-01  8.50000000E-01
  8.50000000E-01  8.50000000E-01  8.50000000E-01  8.50000000E-01  8.50000000E-01
  8.50000000E-01  8.50000000E-01  8.50000000E-01  8.50000000E-01  8.50000000E-01
  8.50000000E-01  8.50000000E-01  8.50000000E-01  8.50000000E-01  8.50000000E-01
  8.50000000E-01  8.50000000E-01  8.50000000E-01  8.50000000E-01  8.50000000E-01
  8.50000000E-01  8.50000000E-01  8.50000000E-01  8.50000000E-01  8.50000000E-01
  8.50000000E-01  8.50000000E-01  8.50000000E-01  8.50000000E-01  8.50000000E-01
  8.50000000E-01  8.50000000E-01  8.50000000E-01  8.50000000E-01  8.50000000E-01
  8.50000000E-01  8.50000000E-01  8.50000000E-01  8.50000000E-01  8.50000000E-01
  8.50000000E-01  8.50000000E-01  8.50000000E-01  8.50000000E-01  8.50000000E-01
  8.50000000E-01  8.50000000E-01  8.50000000E-01  8.50000000E-01  8.50000000E-01
  8.50000000E-01  8.50000000E-01  8.50000000E-01  8.50000000E-01  8.50000000E-01
  8.50000000E-01  8.50000000E-01  8.50000000E-01  8.50000000E-01  8.50000000E-01
  8.50000000E-01  8.50000000E-01  8.50000000E-01  8.50000000E-01  8.50000000E-01
  8.50000000E-01  8.50000000E-01  8.50000000E-01  8.50000000E-01  8.50000000E-01
  8.50000000E-01  8.50000000E-01  8.50000000E-01  8.50000000E-01  8.50000000E-01
  8.50000000E-01  8.50000000E-01  8.50000000E-01  8.50000000E-01  8.50000000E-01
  8.50000000E-01  8.50000000E-01  8.50000000E-01  8.50000000E-01  8.50000000E-01
  8.50000000E-01  8.50000000E-01  8.50000000E-01  8.50000000E-01  8.50000000E-01
  8.50000000E-01  8.50000000E-01  8.50000000E-01  8.50000000E-01  8.50000000E-01
  8.50000000E-01  8.50000000E-01  8.50000000E-01  8.50000000E-01  8.50000000E-01
  8.50000000E-01  8.50000000E-01  8.50000000E-01  8.50000000E-01  8.50000000E-01
  8.50000000E-01  8.50000000E-01  8.50000000E-01  8.50000000E-01  8.50000000E-01
  8.50000000E-01  8.50000000E-01  8.50000000E-01  8.50000000E-01  8.50000000E-01
  8.50000000E-01  8.50000000E-01  8.50000000E-01  8.50000000E-01  8.50000000E-01
  8.50000000E-01  8.50000000E-01  8.50000000E-01  8.50000000E-01  8.50000000E-01
  8.50000000E-01  8.50000000E-01  8.50000000E-01  8.50000000E-01  8.50000000E-01
  8.50000000E-01  8.50000000E-01  8.50000000E-01  8.50000000E-01  8.50000000E-01
  8.50000000E-01  8.50000000E-01  8.50000000E-01  8.50000000E-01  8.50000000E-01
  8.50000000E-01  8.50000000E-01  8.50000000E-01  8.50000000E-01  8.50000000E-01
  8.50000000E-01  8.50000000E-01  8.50000000E-01  8.50000000E-01  8.50000000E-01
  8.50000000E-01  8.50000000E-01  8.50000000E-01  8.50000000E-01  8.50000000E-01
  8.50000000E-01  8.50000000E-01  8.50000000E-01  8.50000000E-01  8.50000000E-01
  8.50000000E-01  8.50000000E-01  8.50000000E-01  8.50000000E-01  8.50000000E-01
  8.50000000E-01  8.50000000E-01  8.50000000E-01  8.50000000E-01  8.50000000E-01
  8.50000000E-01  8.50000000E-01  8.50000000E-01  8.50000000E-01  8.50000000E-01
  8.50000000E-01  8.50000000E-01  8.50000000E-01  8.50000000E-01  8.50000000E-01
  8.50000000E-01  8.50000000E-01  8.50000000E-01  8.50000000E-01  8.50000000E-01
  8.50000000E-01  8.50000000E-01  8.50000000E-01  8.50000000E-01  8.50000000E-01
  8.50000000E-01  8.50000000E-01  8.50000000E-01  8.50000000E-01  8.50000000E-01
  8.50000000E-01  8.50000000E-01  8.50000000E-01  8.50000000E-01  8.50000000E-01
  8.50000000E-01  8.50000000E-01  8.50000000E-01  8.50000000E-01  8.50000000E-01
  8.50000000E-01  8.50000000E-01  8.50000000E-01  8.50000000E-01  8.50000000E-01
  8.50000000E-01  8.50000000E-01  8.50000000E-01  8.50000000E-01  8.50000000E-01
  8.50000000E-01  8.50000000E-01  8.50000000E-01  8.50000000E-01  8.50000000E-01
  8.50000000E-01  8.50000000E-01  8.50000000E-01  8.50000000E-01  8.50000000E-01
  8.50000000E-01  8.50000000E-01  8.50000000E-01  8.50000000E-01  8.50000000E-01
  8.50000000E-01  8.50000000E-01  8.50000000E-01  8.50000000E-01  8.50000000E-01
  8.50000000E-01  8.50000000E-01  8.50000000E-01  8.50000000E-01  8.50000000E-01
  8.50000000E-01  8.50000000E-01  8.50000000E-01  8.50000000E-01  8.50000000E-01
  8.50000000E-01  8.50000000E-01  8.50000000E-01  8.50000000E-01  8.50000000E-01
  8.50000000E-01  8.50000000E-01  8.50000000E-01  8.50000000E-01  8.50000000E-01
  8.50000000E-01  8.50000000E-01  8.50000000E-01  8.50000000E-01  8.50000000E-01
  8.50000000E-01  8.50000000E-01  8.50000000E-01  8.50000000E-01  8.50000000E-01
  8.50000000E-01  8.50000000E-01  8.50000000E-01  8.50000000E-01  8.50000000E-01
  8.50000000E-01  8.50000000E-01  8.50000000E-01  8.50000000E-01  8.50000000E-01
  8.50000000E-01  8.50000000E-01  8.50000000E-01  8.50000000E-01  8.50000000E-01
  8.50000000E-01  8.50000000E-01  8.50000000E-01  8.50000000E-01  8.50000000E-01
  8.50000000E-01  8.50000000E-01  8.50000000E-01  8.50000000E-01  8.50000000E-01
  8.50000000E-01  8.50000000E-01  8.50000000E-01  8.50000000E-01  8.50000000E-01
  8.50000000E-01  8.50000000E-01  8.50000000E-01  8.50000000E-01  8.50000000E-01
  8.50000000E-01  8.50000000E-01  8.50000000E-01  8.50000000E-01  8.50000000E-01
  8.50000000E-01  8.50000000E-01  8.50000000E-01  8.50000000E-01  8.50000000E-01
  8.50000000E-01  8.50000000E-01  8.50000000E-01  8.50000000E-01  8.50000000E-01
  8.50000000E-01  8.50000000E-01  8.50000000E-01  8.50000000E-01  8.50000000E-01
  8.50000000E-01  8.50000000E-01  8.50000000E-01  8.50000000E-01  8.50000000E-01
  8.50000000E-01  8.50000000E-01  8.50000000E-01  8.50000000E-01  8.50000000E-01
  8.50000000E-01  8.50000000E-01  8.50000000E-01  8.50000000E-01  8.50000000E-01
  8.50000000E-01  8.50000000E-01  8.50000000E-01  8.50000000E-01  8.50000000E-01
  8.50000000E-01  8.50000000E-01  8.50000000E-01  8.50000000E-01  8.50000000E-01
  8.50000000E-01  8.50000000E-01  8.50000000E-01  8.50000000E-01  8.50000000E-01
  8.50000000E-01  8.50000000E-01  8.50000000E-01  8.50000000E-01  8.50000000E-01
  8.50000000E-01  8.50000000E-01  8.50000000E-01  8.50000000E-01  8.50000000E-01
  8.50000000E-01  8.50000000E-01  8.50000000E-01  8.50000000E-01  8.50000000E-01
  8.50000000E-01  8.50000000E-01  8.50000000E-01  8.50000000E-01  8.50000000E-01
  8.50000000E-01  8.50000000E-01  8.50000000E-01  8.50000000E-01  8.50000000E-01
  8.50000000E-01  8.50000000E-01  8.50000000E-01  8.50000000E-01  8.50000000E-01
  8.50000000E-01  8.50000000E-01  8.50000000E-01  8.50000000E-01  8.50000000E-01
  8.50000000E-01  8.50000000E-01  8.50000000E-01  8.50000000E-01  8.50000000E-01
  8.50000000E-01  8.50000000E-01  8.50000000E-01  8.50000000E-01  8.50000000E-01
  8.50000000E-01  8.50000000E-01  8.50000000E-01  8.50000000E-01  8.50000000E-01
  8.50000000E-01  8.50000000E-01  8.50000000E-01  8.50000000E-01  8.50000000E-01
  8.50000000E-01  8.50000000E-01  8.50000000E-01  8.50000000E-01  8.50000000E-01
  8.50000000E-01  8.50000000E-01  8.50000000E-01  8.50000000E-01  8.50000000E-01
  8.50000000E-01  8.50000000E-01  8.50000000E-01  8.50000000E-01  8.50000000E-01
  8.50000000E-01  8.50000000E-01  8.50000000E-01  8.50000000E-01  8.50000000E-01
  8.50000000E-01  8.50000000E-01  8.50000000E-01  8.50000000E-01  8.50000000E-01
  8.50000000E-01  8.50000000E-01  8.50000000E-01  8.50000000E-01  8.50000000E-01
  8.50000000E-01  8.50000000E-01  8.50000000E-01  8.50000000E-01  8.50000000E-01
  8.50000000E-01  8.50000000E-01  8.50000000E-01  8.50000000E-01  8.50000000E-01
  8.50000000E-01  8.50000000E-01  8.50000000E-01  8.50000000E-01  8.50000000E-01
  8.50000000E-01  8.50000000E-01  8.50000000E-01  8.50000000E-01  8.50000000E-01
  8.50000000E-01  8.50000000E-01  8.50000000E-01  8.50000000E-01  8.50000000E-01
  8.50000000E-01  8.50000000E-01  8.50000000E-01  8.50000000E-01  8.50000000E-01
  8.50000000E-01  8.50000000E-01  8.50000000E-01  8.50000000E-01  8.50000000E-01
  8.50000000E-01  8.50000000E-01  8.50000000E-01  8.50000000E-01  8.50000000E-01
  8.50000000E-01  8.50000000E-01  8.50000000E-01  8.50000000E-01  8.50000000E-01
  8.50000000E-01  8.50000000E-01  8.50000000E-01  8.50000000E-01  8.50000000E-01
  8.50000000E-01  8.50000000E-01  8.50000000E-01  8.50000000E-01  8.50000000E-01
  8.50000000E-01  8.50000000E-01  8.50000000E-01  8.50000000E-01  8.50000000E-01
  8.50000000E-01  8.50000000E-01  8.50000000E-01  8.50000000E-01  8.50000000E-01
  8.50000000E-01  8.50000000E-01  8.50000000E-01  8.50000000E-01  8.50000000E-01
  8.50000000E-01  8.50000000E-01  8.50000000E-01  8.50000000E-01  8.50000000E-01
  8.50000000E-01  8.50000000E-01  8.50000000E-01  8.50000000E-01  8.50000000E-01
  8.50000000E-01  8.50000000E-01  8.50000000E-01  8.50000000E-01  8.50000000E-01
  8.50000000E-01  8.50000000E-01  8.50000000E-01  8.50000000E-01  8.50000000E-01
  8.50000000E-01  8.50000000E-01  8.50000000E-01  8.50000000E-01  8.50000000E-01
  8.50000000E-01  8.50000000E-01  8.50000000E-01  8.50000000E-01  8.50000000E-01
  8.50000000E-01  8.50000000E-01  8.50000000E-01  8.50000000E-01  8.50000000E-01
  8.50000000E-01  8.50000000E-01  8.50000000E-01  8.50000000E-01  8.50000000E-01
  8.50000000E-01  8.50000000E-01  8.50000000E-01  8.50000000E-01  8.50000000E-01
  8.50000000E-01  8.50000000E-01  8.50000000E-01  8.50000000E-01  8.50000000E-01
  8.50000000E-01  8.50000000E-01  8.50000000E-01  8.50000000E-01  8.50000000E-01
  8.50000000E-01  8.50000000E-01  8.50000000E-01  8.50000000E-01  8.50000000E-01
  8.50000000E-01  8.50000000E-01  8.50000000E-01  8.50000000E-01  8.50000000E-01
  8.50000000E-01  8.50000000E-01  8.50000000E-01  8.50000000E-01  8.50000000E-01
  8.50000000E-01  8.50000000E-01  8.50000000E-01  8.50000000E-01  8.50000000E-01
  8.50000000E-01  8.50000000E-01  8.50000000E-01  8.50000000E-01  8.50000000E-01
  8.50000000E-01  8.50000000E-01  8.50000000E-01  8.50000000E-01  8.50000000E-01
  8.50000000E-01  8.50000000E-01  8.50000000E-01  8.50000000E-01  8.50000000E-01
  8.50000000E-01  8.50000000E-01  8.50000000E-01  8.50000000E-01  8.50000000E-01
  8.50000000E-01  8.50000000E-01  8.50000000E-01  8.50000000E-01  8.50000000E-01
  8.50000000E-01  8.50000000E-01  8.50000000E-01  8.50000000E-01  8.50000000E-01
  8.50000000E-01  8.50000000E-01  8.50000000E-01  8.50000000E-01  8.50000000E-01
  8.50000000E-01  8.50000000E-01  8.50000000E-01  8.50000000E-01  8.50000000E-01
  8.50000000E-01  8.50000000E-01  8.50000000E-01  8.50000000E-01  8.50000000E-01
  8.50000000E-01  8.50000000E-01  8.50000000E-01  8.50000000E-01  8.50000000E-01
  8.50000000E-01  8.50000000E-01  8.50000000E-01  8.50000000E-01  8.50000000E-01
  8.50000000E-01  8.50000000E-01  8.50000000E-01  8.50000000E-01  8.50000000E-01
  8.50000000E-01  8.50000000E-01  8.50000000E-01  8.50000000E-01  8.50000000E-01
  8.50000000E-01  8.50000000E-01  8.50000000E-01  8.50000000E-01  8.50000000E-01
  8.50000000E-01  8.50000000E-01  8.50000000E-01  8.50000000E-01  8.50000000E-01
  8.50000000E-01  8.50000000E-01  8.50000000E-01  8.50000000E-01  8.50000000E-01
  8.50000000E-01  8.50000000E-01  8.50000000E-01  8.50000000E-01  8.50000000E-01
  8.50000000E-01  8.50000000E-01  8.50000000E-01  8.50000000E-01  8.50000000E-01
  8.50000000E-01  8.50000000E-01  8.50000000E-01  8.50000000E-01  8.50000000E-01
  8.50000000E-01  8.50000000E-01  8.50000000E-01  8.50000000E-01  8.50000000E-01
  8.50000000E-01  8.50000000E-01  8.50000000E-01  8.50000000E-01  8.50000000E-01
  8.50000000E-01  8.50000000E-01  8.50000000E-01  8.50000000E-01  8.50000000E-01
  8.50000000E-01  8.50000000E-01  8.50000000E-01  8.50000000E-01  8.50000000E-01
  8.50000000E-01  8.50000000E-01  8.50000000E-01  8.50000000E-01  8.50000000E-01
  8.50000000E-01  8.50000000E-01  8.50000000E-01  8.50000000E-01  8.50000000E-01
  8.50000000E-01  8.50000000E-01  8.50000000E-01  8.50000000E-01  8.50000000E-01
  8.50000000E-01  8.50000000E-01  8.50000000E-01  8.50000000E-01  8.50000000E-01
  8.50000000E-01  8.50000000E-01  8.50000000E-01  8.50000000E-01  8.50000000E-01
  8.50000000E-01  8.50000000E-01  8.50000000E-01  8.50000000E-01  8.50000000E-01
  8.50000000E-01  8.50000000E-01  8.50000000E-01  8.50000000E-01  8.50000000E-01
  8.50000000E-01  8.50000000E-01  8.50000000E-01  8.50000000E-01  8.50000000E-01
  8.50000000E-01  8.50000000E-01  8.50000000E-01  8.50000000E-01  8.50000000E-01
  8.50000000E-01  8.50000000E-01  8.50000000E-01  8.50000000E-01  8.50000000E-01
  8.50000000E-01  8.50000000E-01  8.50000000E-01  8.50000000E-01  8.50000000E-01
  8.50000000E-01  8.50000000E-01  8.50000000E-01  8.50000000E-01  8.50000000E-01
  8.50000000E-01  8.50000000E-01  8.50000000E-01  8.50000000E-01  8.50000000E-01
  8.50000000E-01  8.50000000E-01  8.50000000E-01  8.50000000E-01  8.50000000E-01
  8.50000000E-01  8.50000000E-01  8.50000000E-01  8.50000000E-01  8.50000000E-01
  8.50000000E-01  8.50000000E-01  8.50000000E-01  8.50000000E-01  8.50000000E-01
  8.50000000E-01  8.50000000E-01  8.50000000E-01  8.50000000E-01  8.50000000E-01
  8.50000000E-01  8.50000000E-01  8.50000000E-01  8.50000000E-01  8.50000000E-01
  8.50000000E-01  8.50000000E-01  8.50000000E-01  8.50000000E-01  8.50000000E-01
  8.50000000E-01  8.50000000E-01  8.50000000E-01  8.50000000E-01  8.50000000E-01
  8.50000000E-01  8.50000000E-01  8.50000000E-01  8.50000000E-01  8.50000000E-01
  8.50000000E-01  8.50000000E-01  8.50000000E-01  8.50000000E-01  8.50000000E-01
  8.50000000E-01  8.50000000E-01  8.50000000E-01  8.50000000E-01  8.50000000E-01
  8.50000000E-01  8.50000000E-01  8.50000000E-01  8.50000000E-01  8.50000000E-01
  8.50000000E-01  8.50000000E-01  8.50000000E-01  8.50000000E-01  8.50000000E-01
  8.50000000E-01  8.50000000E-01  8.50000000E-01  8.50000000E-01  8.50000000E-01
  8.50000000E-01  8.50000000E-01  8.50000000E-01  8.50000000E-01  8.50000000E-01
  8.50000000E-01  8.50000000E-01  8.50000000E-01  8.50000000E-01  8.50000000E-01
  8.50000000E-01  8.50000000E-01  8.50000000E-01  8.50000000E-01  8.50000000E-01
  8.50000000E-01  8.50000000E-01  8.50000000E-01  8.50000000E-01  8.50000000E-01
  8.50000000E-01  8.50000000E-01  8.50000000E-01  8.50000000E-01  8.50000000E-01
  8.50000000E-01  8.50000000E-01  8.50000000E-01  8.50000000E-01  8.50000000E-01
  8.50000000E-01  8.50000000E-01  8.50000000E-01  8.50000000E-01  8.50000000E-01
  8.50000000E-01  8.50000000E-01  8.50000000E-01  8.50000000E-01  8.50000000E-01
  8.50000000E-01  8.50000000E-01  8.50000000E-01  8.50000000E-01  8.50000000E-01
  8.50000000E-01  8.50000000E-01  8.50000000E-01  8.50000000E-01  8.50000000E-01
  8.50000000E-01  8.50000000E-01  8.50000000E-01  8.50000000E-01  8.50000000E-01
  8.50000000E-01  8.50000000E-01  8.50000000E-01  8.50000000E-01  8.50000000E-01
  8.50000000E-01  8.50000000E-01  8.50000000E-01  8.50000000E-01  8.50000000E-01
  8.50000000E-01  8.50000000E-01  8.50000000E-01  8.50000000E-01  8.50000000E-01
  8.50000000E-01  8.50000000E-01  8.50000000E-01  8.50000000E-01  8.50000000E-01
  8.50000000E-01  8.50000000E-01  8.50000000E-01  8.50000000E-01  8.50000000E-01
  8.50000000E-01  8.50000000E-01  8.50000000E-01  8.50000000E-01  8.50000000E-01
  8.50000000E-01  8.50000000E-01  8.50000000E-01  8.50000000E-01  8.50000000E-01
  8.50000000E-01  8.50000000E-01  8.50000000E-01  8.50000000E-01  8.50000000E-01
  8.50000000E-01  8.50000000E-01  8.50000000E-01  8.50000000E-01  8.50000000E-01
  8.50000000E-01  8.50000000E-01  8.50000000E-01  8.50000000E-01  8.50000000E-01
  8.50000000E-01  8.50000000E-01  8.50000000E-01  8.50000000E-01  8.50000000E-01
  8.50000000E-01  8.50000000E-01  8.50000000E-01  8.50000000E-01  8.50000000E-01
  8.50000000E-01  8.50000000E-01  8.50000000E-01  8.50000000E-01  8.50000000E-01
  8.50000000E-01  8.50000000E-01  8.50000000E-01  8.50000000E-01  8.50000000E-01
  8.50000000E-01  8.50000000E-01  8.50000000E-01  8.50000000E-01  8.50000000E-01
  8.50000000E-01  8.50000000E-01  8.50000000E-01  8.50000000E-01  8.50000000E-01
  8.50000000E-01  8.50000000E-01  8.50000000E-01  8.50000000E-01  8.50000000E-01
  8.50000000E-01  8.50000000E-01  8.50000000E-01  8.50000000E-01  8.50000000E-01
  8.50000000E-01  8.50000000E-01  8.50000000E-01  8.50000000E-01  8.50000000E-01
  8.50000000E-01  8.50000000E-01  8.50000000E-01  8.50000000E-01  8.50000000E-01
  8.50000000E-01  8.50000000E-01  8.50000000E-01  8.50000000E-01  8.50000000E-01
  8.50000000E-01  8.50000000E-01  8.50000000E-01  8.50000000E-01  8.50000000E-01
  8.50000000E-01  8.50000000E-01  8.50000000E-01  8.50000000E-01  8.50000000E-01
  8.50000000E-01  8.50000000E-01  8.50000000E-01  8.50000000E-01  8.50000000E-01
  8.50000000E-01  8.50000000E-01  8.50000000E-01  8.50000000E-01  8.50000000E-01
  8.50000000E-01  8.50000000E-01  8.50000000E-01  8.50000000E-01  8.50000000E-01
  8.50000000E-01  8.50000000E-01  8.50000000E-01  8.50000000E-01  8.50000000E-01
  8.50000000E-01  8.50000000E-01  8.50000000E-01  8.50000000E-01  8.50000000E-01
  8.50000000E-01  8.50000000E-01  8.50000000E-01  8.50000000E-01  8.50000000E-01
  8.50000000E-01  8.50000000E-01  8.50000000E-01  8.50000000E-01  8.50000000E-01
  8.50000000E-01  8.50000000E-01  8.50000000E-01  8.50000000E-01  8.50000000E-01
  8.50000000E-01  8.50000000E-01  8.50000000E-01  8.50000000E-01  8.50000000E-01
  8.50000000E-01  8.50000000E-01  8.50000000E-01  8.50000000E-01  8.50000000E-01
  8.50000000E-01  8.50000000E-01  8.50000000E-01  8.50000000E-01  8.50000000E-01
  8.50000000E-01  8.50000000E-01  8.50000000E-01  8.50000000E-01  8.50000000E-01
  8.50000000E-01  8.50000000E-01  8.50000000E-01  8.50000000E-01  8.50000000E-01
  8.50000000E-01  8.50000000E-01  8.50000000E-01  8.50000000E-01  8.50000000E-01
  8.50000000E-01  8.50000000E-01  8.50000000E-01  8.50000000E-01  8.50000000E-01
  8.50000000E-01  8.50000000E-01  8.50000000E-01  8.50000000E-01  8.50000000E-01
  8.50000000E-01  8.50000000E-01  8.50000000E-01  8.50000000E-01  8.50000000E-01
  8.50000000E-01  8.50000000E-01  8.50000000E-01  8.50000000E-01  8.50000000E-01
  8.50000000E-01  8.50000000E-01  8.50000000E-01  8.50000000E-01  8.50000000E-01
  8.50000000E-01  8.50000000E-01  8.50000000E-01  8.50000000E-01  8.50000000E-01
  8.50000000E-01  8.50000000E-01  8.50000000E-01  8.50000000E-01  8.50000000E-01
  8.50000000E-01  8.50000000E-01  8.50000000E-01  8.50000000E-01  8.50000000E-01
  8.50000000E-01  8.50000000E-01  8.50000000E-01  8.50000000E-01  8.50000000E-01
  8.50000000E-01  8.50000000E-01  8.50000000E-01  8.50000000E-01  8.50000000E-01
  8.50000000E-01  8.50000000E-01  8.50000000E-01  8.50000000E-01  8.50000000E-01
  8.50000000E-01  8.50000000E-01  8.50000000E-01  8.50000000E-01  8.50000000E-01
  8.50000000E-01  8.50000000E-01  8.50000000E-01  8.50000000E-01  8.50000000E-01
  8.50000000E-01  8.50000000E-01  8.50000000E-01  8.50000000E-01  8.50000000E-01
  8.50000000E-01  8.50000000E-01  8.50000000E-01  8.50000000E-01  8.50000000E-01
  8.50000000E-01  8.50000000E-01  8.50000000E-01  8.50000000E-01  8.50000000E-01
  8.50000000E-01  8.50000000E-01  8.50000000E-01  8.50000000E-01  8.50000000E-01
  8.50000000E-01  8.50000000E-01  8.50000000E-01  8.50000000E-01  8.50000000E-01
  8.50000000E-01  8.50000000E-01  8.50000000E-01  8.50000000E-01  8.50000000E-01
  8.50000000E-01  8.50000000E-01  8.50000000E-01  8.50000000E-01  8.50000000E-01
  8.50000000E-01  8.50000000E-01  8.50000000E-01  8.50000000E-01  8.50000000E-01
  8.50000000E-01  8.50000000E-01  8.50000000E-01  8.50000000E-01  8.50000000E-01
  8.50000000E-01  8.50000000E-01  8.50000000E-01  8.50000000E-01  8.50000000E-01
  8.50000000E-01  8.50000000E-01  8.50000000E-01  8.50000000E-01  8.50000000E-01
  8.50000000E-01  8.50000000E-01  8.50000000E-01  8.50000000E-01  8.50000000E-01
  8.50000000E-01  8.50000000E-01  8.50000000E-01  8.50000000E-01  8.50000000E-01
  8.50000000E-01  8.50000000E-01  8.50000000E-01  8.50000000E-01  8.50000000E-01
  8.50000000E-01  8.50000000E-01  8.50000000E-01  8.50000000E-01  8.50000000E-01
  8.50000000E-01  8.50000000E-01  8.50000000E-01  8.50000000E-01  8.50000000E-01
  8.50000000E-01  8.50000000E-01  8.50000000E-01  8.50000000E-01  8.50000000E-01
  8.50000000E-01  8.50000000E-01  8.50000000E-01  8.50000000E-01  8.50000000E-01
  8.50000000E-01  8.50000000E-01  8.50000000E-01  8.50000000E-01  8.50000000E-01
  8.50000000E-01  8.50000000E-01  8.50000000E-01  8.50000000E-01  8.50000000E-01
  8.50000000E-01  8.50000000E-01  8.50000000E-01  8.50000000E-01  8.50000000E-01
  8.50000000E-01  8.50000000E-01  8.50000000E-01  8.50000000E-01  8.50000000E-01
  8.50000000E-01  8.50000000E-01  8.50000000E-01  8.50000000E-01  8.50000000E-01
  8.50000000E-01  8.50000000E-01  8.50000000E-01  8.50000000E-01  8.50000000E-01
  8.50000000E-01  8.50000000E-01  8.50000000E-01  8.50000000E-01  8.50000000E-01
  8.50000000E-01  8.50000000E-01  8.50000000E-01  8.50000000E-01  8.50000000E-01
  8.50000000E-01  8.50000000E-01  8.50000000E-01  8.50000000E-01  8.50000000E-01
  8.50000000E-01  8.50000000E-01  8.50000000E-01  8.50000000E-01  8.50000000E-01
  8.50000000E-01  8.50000000E-01  8.50000000E-01  8.50000000E-01  8.50000000E-01
  8.50000000E-01  8.50000000E-01  8.50000000E-01  8.50000000E-01  8.50000000E-01
  8.50000000E-01  8.50000000E-01  8.50000000E-01  8.50000000E-01  8.50000000E-01
  8.50000000E-01  8.50000000E-01  8.50000000E-01  8.50000000E-01  8.50000000E-01
  8.50000000E-01  8.50000000E-01  8.50000000E-01  8.50000000E-01  8.50000000E-01
  8.50000000E-01  8.50000000E-01  8.50000000E-01  8.50000000E-01  8.50000000E-01
  8.50000000E-01  8.50000000E-01  8.50000000E-01  8.50000000E-01  8.50000000E-01
  8.50000000E-01  8.50000000E-01  8.50000000E-01  8.50000000E-01  8.50000000E-01
  8.50000000E-01  8.50000000E-01  8.50000000E-01  8.50000000E-01  8.50000000E-01
  8.50000000E-01  8.50000000E-01  8.50000000E-01  8.50000000E-01  8.50000000E-01
  8.50000000E-01  8.50000000E-01  8.50000000E-01  8.50000000E-01  8.50000000E-01
  8.50000000E-01  8.50000000E-01  8.50000000E-01  8.50000000E-01  8.50000000E-01
  8.50000000E-01  8.50000000E-01  8.50000000E-01  8.50000000E-01  8.50000000E-01
  8.50000000E-01  8.50000000E-01  8.50000000E-01  8.50000000E-01  8.50000000E-01
  8.50000000E-01  8.50000000E-01  8.50000000E-01  8.50000000E-01  8.50000000E-01
  8.50000000E-01  8.50000000E-01  8.50000000E-01  8.50000000E-01  8.50000000E-01
  8.50000000E-01  8.50000000E-01  8.50000000E-01  8.50000000E-01  8.50000000E-01
  8.50000000E-01  8.50000000E-01  8.50000000E-01  8.50000000E-01  8.50000000E-01
  8.50000000E-01  8.50000000E-01  8.50000000E-01  8.50000000E-01  8.50000000E-01
  8.50000000E-01  8.50000000E-01  8.50000000E-01  8.50000000E-01  8.50000000E-01
  8.50000000E-01  8.50000000E-01  8.50000000E-01  8.50000000E-01  8.50000000E-01
  8.50000000E-01  8.50000000E-01  8.50000000E-01  8.50000000E-01  8.50000000E-01
  8.50000000E-01  8.50000000E-01  8.50000000E-01  8.50000000E-01  8.50000000E-01
  8.50000000E-01  8.50000000E-01  8.50000000E-01  8.50000000E-01  8.50000000E-01
  8.50000000E-01  8.50000000E-01  8.50000000E-01  8.50000000E-01  8.50000000E-01
  8.50000000E-01  8.50000000E-01  8.50000000E-01  8.50000000E-01  8.50000000E-01
  8.50000000E-01  8.50000000E-01  8.50000000E-01  8.50000000E-01  8.50000000E-01
  8.50000000E-01  8.50000000E-01  8.50000000E-01  8.50000000E-01  8.50000000E-01
  8.50000000E-01  8.50000000E-01  8.50000000E-01  8.50000000E-01  8.50000000E-01
  8.50000000E-01  8.50000000E-01  8.50000000E-01  8.50000000E-01  8.50000000E-01
  8.50000000E-01  8.50000000E-01  8.50000000E-01  8.50000000E-01  8.50000000E-01
  8.50000000E-01  8.50000000E-01  8.50000000E-01  8.50000000E-01  8.50000000E-01
  8.50000000E-01  8.50000000E-01  8.50000000E-01  8.50000000E-01  8.50000000E-01
  8.50000000E-01  8.50000000E-01  8.50000000E-01  8.50000000E-01  8.50000000E-01
  8.50000000E-01  8.50000000E-01  8.50000000E-01  8.50000000E-01  8.50000000E-01
  8.50000000E-01  8.50000000E-01  8.50000000E-01  8.50000000E-01  8.50000000E-01
  8.50000000E-01  8.50000000E-01  8.50000000E-01  8.50000000E-01  8.50000000E-01
  8.50000000E-01  8.50000000E-01  8.50000000E-01  8.50000000E-01  8.50000000E-01
  8.50000000E-01  8.50000000E-01  8.50000000E-01  8.50000000E-01  8.50000000E-01
  8.50000000E-01  8.50000000E-01  8.50000000E-01  8.50000000E-01  8.50000000E-01
  8.50000000E-01  8.50000000E-01  8.50000000E-01  8.50000000E-01  8.50000000E-01
  8.50000000E-01  8.50000000E-01  8.50000000E-01  8.50000000E-01  8.50000000E-01
  8.50000000E-01  8.50000000E-01  8.50000000E-01  8.50000000E-01  8.50000000E-01
  8.50000000E-01  8.50000000E-01  8.50000000E-01  8.50000000E-01  8.50000000E-01
  8.50000000E-01  8.50000000E-01  8.50000000E-01  8.50000000E-01  8.50000000E-01
  8.50000000E-01  8.50000000E-01  8.50000000E-01  8.50000000E-01  8.50000000E-01
  8.50000000E-01  8.50000000E-01  8.50000000E-01  8.50000000E-01  8.50000000E-01
  8.50000000E-01  8.50000000E-01  8.50000000E-01  8.50000000E-01  8.50000000E-01
  8.50000000E-01  8.50000000E-01  8.50000000E-01  8.50000000E-01  8.50000000E-01
  8.50000000E-01  8.50000000E-01  8.50000000E-01  8.50000000E-01  8.50000000E-01
  8.50000000E-01  8.50000000E-01  8.50000000E-01  8.50000000E-01  8.50000000E-01
  8.50000000E-01  8.50000000E-01  8.50000000E-01  8.50000000E-01  8.50000000E-01
  8.50000000E-01  8.50000000E-01  8.50000000E-01  8.50000000E-01  8.50000000E-01
  8.50000000E-01  8.50000000E-01  8.50000000E-01  8.50000000E-01  8.50000000E-01
  8.50000000E-01  8.50000000E-01  8.50000000E-01  8.50000000E-01  8.50000000E-01
  8.50000000E-01  8.50000000E-01  8.50000000E-01  8.50000000E-01  8.50000000E-01
  8.50000000E-01  8.50000000E-01  8.50000000E-01  8.50000000E-01  8.50000000E-01
  8.50000000E-01  8.50000000E-01  8.50000000E-01  8.50000000E-01  8.50000000E-01
  8.50000000E-01  8.50000000E-01  8.50000000E-01  8.50000000E-01  8.50000000E-01
  8.50000000E-01  8.50000000E-01  8.50000000E-01  8.50000000E-01  8.50000000E-01
  8.50000000E-01  8.50000000E-01  8.50000000E-01  8.50000000E-01  8.50000000E-01
  8.50000000E-01  8.50000000E-01  8.50000000E-01  8.50000000E-01  8.50000000E-01
  8.50000000E-01  8.50000000E-01  8.50000000E-01  8.50000000E-01  8.50000000E-01
  8.50000000E-01  8.50000000E-01  8.50000000E-01  8.50000000E-01  8.50000000E-01
  8.50000000E-01  8.50000000E-01  8.50000000E-01  8.50000000E-01  8.50000000E-01
  8.50000000E-01  8.50000000E-01  8.50000000E-01  8.50000000E-01  8.50000000E-01
  8.50000000E-01  8.50000000E-01  8.50000000E-01  8.50000000E-01  8.50000000E-01
  8.50000000E-01  8.50000000E-01  8.50000000E-01  8.50000000E-01  8.50000000E-01
  8.50000000E-01  8.50000000E-01  8.50000000E-01  8.50000000E-01  8.50000000E-01
  8.50000000E-01  8.50000000E-01  8.50000000E-01  8.50000000E-01  8.50000000E-01
  8.50000000E-01  8.50000000E-01  8.50000000E-01  8.50000000E-01  8.50000000E-01
  8.50000000E-01  8.50000000E-01  8.50000000E-01  8.50000000E-01  8.50000000E-01
  8.50000000E-01  8.50000000E-01  8.50000000E-01  8.50000000E-01  8.50000000E-01
  8.50000000E-01  8.50000000E-01  8.50000000E-01  8.50000000E-01  8.50000000E-01
  8.50000000E-01  8.50000000E-01  8.50000000E-01  8.50000000E-01  8.50000000E-01
  8.50000000E-01  8.50000000E-01  8.50000000E-01  8.50000000E-01  8.50000000E-01
  8.50000000E-01  8.50000000E-01  8.50000000E-01  8.50000000E-01  8.50000000E-01
  8.50000000E-01  8.50000000E-01  8.50000000E-01  8.50000000E-01  8.50000000E-01
  8.50000000E-01  8.50000000E-01  8.50000000E-01  8.50000000E-01  8.50000000E-01
  8.50000000E-01  8.50000000E-01  8.50000000E-01  8.50000000E-01  8.50000000E-01
  8.50000000E-01  8.50000000E-01  8.50000000E-01  8.50000000E-01  8.50000000E-01
  8.50000000E-01  8.50000000E-01  8.50000000E-01  8.50000000E-01  8.50000000E-01
  8.50000000E-01  8.50000000E-01  8.50000000E-01  8.50000000E-01  8.50000000E-01
  8.50000000E-01  8.50000000E-01  8.50000000E-01  8.50000000E-01  8.50000000E-01
  8.50000000E-01  8.50000000E-01  8.50000000E-01  8.50000000E-01  8.50000000E-01
  8.50000000E-01  8.50000000E-01  8.50000000E-01  8.50000000E-01  8.50000000E-01
  8.50000000E-01  8.50000000E-01  8.50000000E-01  8.50000000E-01  8.50000000E-01
  8.50000000E-01  8.50000000E-01  8.50000000E-01  8.50000000E-01  8.50000000E-01
  8.50000000E-01  8.50000000E-01  8.50000000E-01  8.50000000E-01  8.50000000E-01
  8.50000000E-01  8.50000000E-01  8.50000000E-01  8.50000000E-01  8.50000000E-01
  8.50000000E-01  8.50000000E-01  8.50000000E-01  8.50000000E-01  8.50000000E-01
  8.50000000E-01  8.50000000E-01  8.50000000E-01  8.50000000E-01  8.50000000E-01
  8.50000000E-01  8.50000000E-01  8.50000000E-01  8.50000000E-01  8.50000000E-01
  8.50000000E-01  8.50000000E-01  8.50000000E-01  8.50000000E-01  8.50000000E-01
  8.50000000E-01  8.50000000E-01  8.50000000E-01  8.50000000E-01  8.50000000E-01
  8.50000000E-01  8.50000000E-01  8.50000000E-01  8.50000000E-01  8.50000000E-01
  8.50000000E-01  8.50000000E-01  8.50000000E-01  8.50000000E-01  8.50000000E-01
  8.50000000E-01  8.50000000E-01  8.50000000E-01  8.50000000E-01  8.50000000E-01
  8.50000000E-01  8.50000000E-01  8.50000000E-01  8.50000000E-01  8.50000000E-01
  8.50000000E-01  8.50000000E-01  8.50000000E-01  8.50000000E-01  8.50000000E-01
  8.50000000E-01  8.50000000E-01  8.50000000E-01  8.50000000E-01  8.50000000E-01
  8.50000000E-01  8.50000000E-01  8.50000000E-01  8.50000000E-01  8.50000000E-01
  8.50000000E-01  8.50000000E-01  8.50000000E-01  8.50000000E-01  8.50000000E-01
  8.50000000E-01  8.50000000E-01  8.50000000E-01  8.50000000E-01  8.50000000E-01
  8.50000000E-01  8.50000000E-01  8.50000000E-01  8.50000000E-01  8.50000000E-01
  8.50000000E-01  8.50000000E-01  8.50000000E-01  8.50000000E-01  8.50000000E-01
  8.50000000E-01  8.50000000E-01  8.50000000E-01  8.50000000E-01  8.50000000E-01
  8.50000000E-01  8.50000000E-01  8.50000000E-01  8.50000000E-01  8.50000000E-01
  8.50000000E-01  8.50000000E-01  8.50000000E-01  8.50000000E-01  8.50000000E-01
  8.50000000E-01  8.50000000E-01  8.50000000E-01  8.50000000E-01  8.50000000E-01
  8.50000000E-01  8.50000000E-01  8.50000000E-01  8.50000000E-01  8.50000000E-01
  8.50000000E-01  8.50000000E-01  8.50000000E-01  8.50000000E-01  8.50000000E-01
  8.50000000E-01  8.50000000E-01  8.50000000E-01  8.50000000E-01  8.50000000E-01
  8.50000000E-01  8.50000000E-01  8.50000000E-01  8.50000000E-01  8.50000000E-01
  8.50000000E-01  8.50000000E-01  8.50000000E-01  8.50000000E-01  8.50000000E-01
  8.50000000E-01  8.50000000E-01  8.50000000E-01  8.50000000E-01  8.50000000E-01
  8.50000000E-01  8.50000000E-01  8.50000000E-01  8.50000000E-01  8.50000000E-01
  8.50000000E-01  8.50000000E-01  8.50000000E-01  8.50000000E-01  8.50000000E-01
  8.50000000E-01  8.50000000E-01  8.50000000E-01  8.50000000E-01  8.50000000E-01
  8.50000000E-01  8.50000000E-01  8.50000000E-01  8.50000000E-01  8.50000000E-01
  8.50000000E-01  8.50000000E-01  8.50000000E-01  8.50000000E-01  8.50000000E-01
  8.50000000E-01  8.50000000E-01  8.50000000E-01  8.50000000E-01  8.50000000E-01
  8.50000000E-01  8.50000000E-01  8.50000000E-01  8.50000000E-01  8.50000000E-01
  8.50000000E-01  8.50000000E-01  8.50000000E-01  8.50000000E-01  8.50000000E-01
  8.50000000E-01  8.50000000E-01  8.50000000E-01  8.50000000E-01  8.50000000E-01
  8.50000000E-01  8.50000000E-01  8.50000000E-01  8.50000000E-01  8.50000000E-01
  8.50000000E-01  8.50000000E-01  8.50000000E-01  8.50000000E-01  8.50000000E-01
  8.50000000E-01  8.50000000E-01  8.50000000E-01  8.50000000E-01  8.50000000E-01
  8.50000000E-01  8.50000000E-01  8.50000000E-01  8.50000000E-01  8.50000000E-01
  8.50000000E-01  8.50000000E-01  8.50000000E-01  8.50000000E-01  8.50000000E-01
  8.50000000E-01  8.50000000E-01  8.50000000E-01  8.50000000E-01  8.50000000E-01
  8.50000000E-01  8.50000000E-01  8.50000000E-01  8.50000000E-01  8.50000000E-01
  8.50000000E-01  8.50000000E-01  8.50000000E-01  8.50000000E-01  8.50000000E-01
  8.50000000E-01  8.50000000E-01  8.50000000E-01  8.50000000E-01  8.50000000E-01
  8.50000000E-01  8.50000000E-01  8.50000000E-01  8.50000000E-01  8.50000000E-01
  8.50000000E-01  8.50000000E-01  8.50000000E-01  8.50000000E-01  8.50000000E-01
  8.50000000E-01  8.50000000E-01  8.50000000E-01  8.50000000E-01  8.50000000E-01
  8.50000000E-01  8.50000000E-01  8.50000000E-01  8.50000000E-01  8.50000000E-01
  8.50000000E-01  8.50000000E-01  8.50000000E-01  8.50000000E-01  8.50000000E-01
  8.50000000E-01  8.50000000E-01  8.50000000E-01  8.50000000E-01  8.50000000E-01
  8.50000000E-01  8.50000000E-01  8.50000000E-01  8.50000000E-01  8.50000000E-01
  8.50000000E-01  8.50000000E-01  8.50000000E-01  8.50000000E-01  8.50000000E-01
  8.50000000E-01  8.50000000E-01  8.50000000E-01  8.50000000E-01  8.50000000E-01
  8.50000000E-01  8.50000000E-01  8.50000000E-01  8.50000000E-01  8.50000000E-01
  8.50000000E-01  8.50000000E-01  8.50000000E-01  8.50000000E-01  8.50000000E-01
  8.50000000E-01  8.50000000E-01  8.50000000E-01  8.50000000E-01  8.50000000E-01
  8.50000000E-01  8.50000000E-01  8.50000000E-01  8.50000000E-01  8.50000000E-01
  8.50000000E-01  8.50000000E-01  8.50000000E-01  8.50000000E-01  8.50000000E-01
  8.50000000E-01  8.50000000E-01  8.50000000E-01  8.50000000E-01  8.50000000E-01
  8.50000000E-01  8.50000000E-01  8.50000000E-01  8.50000000E-01  8.50000000E-01
  8.50000000E-01  8.50000000E-01  8.50000000E-01  8.50000000E-01  8.50000000E-01
  8.50000000E-01  8.50000000E-01  8.50000000E-01  8.50000000E-01  8.50000000E-01
  8.50000000E-01  8.50000000E-01  8.50000000E-01  8.50000000E-01  8.50000000E-01
  8.50000000E-01  8.50000000E-01  8.50000000E-01  8.50000000E-01  8.50000000E-01
  8.50000000E-01  8.50000000E-01  8.50000000E-01  8.50000000E-01  8.50000000E-01
  8.50000000E-01  8.50000000E-01  8.50000000E-01  8.50000000E-01  8.50000000E-01
  8.50000000E-01  8.50000000E-01  8.50000000E-01  8.50000000E-01  8.50000000E-01
  8.50000000E-01  8.50000000E-01  8.50000000E-01  8.50000000E-01  8.50000000E-01
  8.50000000E-01  8.50000000E-01  8.50000000E-01  8.50000000E-01  8.50000000E-01
  8.50000000E-01  8.50000000E-01  8.50000000E-01  8.50000000E-01  8.50000000E-01
  8.50000000E-01  8.50000000E-01  8.50000000E-01  8.50000000E-01  8.50000000E-01
  8.50000000E-01  8.50000000E-01  8.50000000E-01  8.50000000E-01  8.50000000E-01
  8.50000000E-01  8.50000000E-01  8.50000000E-01  8.50000000E-01  8.50000000E-01
  8.50000000E-01  8.50000000E-01  8.50000000E-01  8.50000000E-01  8.50000000E-01
  8.50000000E-01  8.50000000E-01  8.50000000E-01  8.50000000E-01  8.50000000E-01
  8.50000000E-01  8.50000000E-01  8.50000000E-01  8.50000000E-01  8.50000000E-01
  8.50000000E-01  8.50000000E-01  8.50000000E-01  8.50000000E-01  8.50000000E-01
  8.50000000E-01  8.50000000E-01  8.50000000E-01  8.50000000E-01  8.50000000E-01
  8.50000000E-01  8.50000000E-01  8.50000000E-01  8.50000000E-01  8.50000000E-01
  8.50000000E-01  8.50000000E-01  8.50000000E-01  8.50000000E-01  8.50000000E-01
  8.50000000E-01  8.50000000E-01  8.50000000E-01  8.50000000E-01  8.50000000E-01
  8.50000000E-01  8.50000000E-01  8.50000000E-01  8.50000000E-01  8.50000000E-01
  8.50000000E-01  8.50000000E-01  8.50000000E-01  8.50000000E-01  8.50000000E-01
  8.50000000E-01  8.50000000E-01  8.50000000E-01  8.50000000E-01  8.50000000E-01
  8.50000000E-01  8.50000000E-01  8.50000000E-01  8.50000000E-01  8.50000000E-01
  8.50000000E-01  8.50000000E-01  8.50000000E-01  8.50000000E-01  8.50000000E-01
  8.50000000E-01  8.50000000E-01  8.50000000E-01  8.50000000E-01  8.50000000E-01
  8.50000000E-01  8.50000000E-01  8.50000000E-01  8.50000000E-01  8.50000000E-01
  8.50000000E-01  8.50000000E-01  8.50000000E-01  8.50000000E-01  8.50000000E-01
  8.50000000E-01  8.50000000E-01  8.50000000E-01  8.50000000E-01  8.50000000E-01
  8.50000000E-01  8.50000000E-01  8.50000000E-01  8.50000000E-01  8.50000000E-01
  8.50000000E-01  8.50000000E-01  8.50000000E-01  8.50000000E-01  8.50000000E-01
  8.50000000E-01  8.50000000E-01  8.50000000E-01  8.50000000E-01  8.50000000E-01
  8.50000000E-01  8.50000000E-01  8.50000000E-01  8.50000000E-01  8.50000000E-01
  8.50000000E-01  8.50000000E-01  8.50000000E-01  8.50000000E-01  8.50000000E-01
  8.50000000E-01  8.50000000E-01  8.50000000E-01  8.50000000E-01  8.50000000E-01
  8.50000000E-01  8.50000000E-01  8.50000000E-01  8.50000000E-01  8.50000000E-01
  8.50000000E-01  8.50000000E-01  8.50000000E-01  8.50000000E-01  8.50000000E-01
  8.50000000E-01  8.50000000E-01  8.50000000E-01  8.50000000E-01  8.50000000E-01
  8.50000000E-01  8.50000000E-01  8.50000000E-01  8.50000000E-01  8.50000000E-01
  8.50000000E-01  8.50000000E-01  8.50000000E-01  8.50000000E-01  8.50000000E-01
  8.50000000E-01  8.50000000E-01  8.50000000E-01  8.50000000E-01  8.50000000E-01
  8.50000000E-01  8.50000000E-01  8.50000000E-01  8.50000000E-01  8.50000000E-01
  8.50000000E-01  8.50000000E-01  8.50000000E-01  8.50000000E-01  8.50000000E-01
  8.50000000E-01  8.50000000E-01  8.50000000E-01  8.50000000E-01  8.50000000E-01
  8.50000000E-01  8.50000000E-01  8.50000000E-01  8.50000000E-01  8.50000000E-01
  8.50000000E-01  8.50000000E-01  8.50000000E-01  8.50000000E-01  8.50000000E-01
  8.50000000E-01  8.50000000E-01  8.50000000E-01  8.50000000E-01  8.50000000E-01
  8.50000000E-01  8.50000000E-01  8.50000000E-01  8.50000000E-01  8.50000000E-01
  8.50000000E-01  8.50000000E-01  8.50000000E-01  8.50000000E-01  8.50000000E-01
  8.50000000E-01  8.50000000E-01  8.50000000E-01  8.50000000E-01  8.50000000E-01
  8.50000000E-01  8.50000000E-01  8.50000000E-01  8.50000000E-01  8.50000000E-01
  8.50000000E-01  8.50000000E-01  8.50000000E-01  8.50000000E-01  8.50000000E-01
  8.50000000E-01  8.50000000E-01  8.50000000E-01  8.50000000E-01  8.50000000E-01
  8.50000000E-01  8.50000000E-01  8.50000000E-01  8.50000000E-01  8.50000000E-01
  8.50000000E-01  8.50000000E-01  8.50000000E-01  8.50000000E-01  8.50000000E-01
  8.50000000E-01  8.50000000E-01  8.50000000E-01  8.50000000E-01  8.50000000E-01
  8.50000000E-01  8.50000000E-01  8.50000000E-01  8.50000000E-01  8.50000000E-01
  8.50000000E-01  8.50000000E-01  8.50000000E-01  8.50000000E-01  8.50000000E-01
  8.50000000E-01  8.50000000E-01  8.50000000E-01  8.50000000E-01  8.50000000E-01
  8.50000000E-01  8.50000000E-01  8.50000000E-01  8.50000000E-01  8.50000000E-01
  8.50000000E-01  8.50000000E-01  8.50000000E-01  8.50000000E-01  8.50000000E-01
  8.50000000E-01  8.50000000E-01  8.50000000E-01  8.50000000E-01  8.50000000E-01
  8.50000000E-01  8.50000000E-01  8.50000000E-01  8.50000000E-01  8.50000000E-01
  8.50000000E-01  8.50000000E-01  8.50000000E-01  8.50000000E-01  8.50000000E-01
  8.50000000E-01  8.50000000E-01  8.50000000E-01  8.50000000E-01  8.50000000E-01
  8.50000000E-01  8.50000000E-01  8.50000000E-01  8.50000000E-01  8.50000000E-01
  8.50000000E-01  8.50000000E-01  8.50000000E-01  8.50000000E-01  8.50000000E-01
  8.50000000E-01  8.50000000E-01  8.50000000E-01  8.50000000E-01  8.50000000E-01
  8.50000000E-01  8.50000000E-01  8.50000000E-01  8.50000000E-01  8.50000000E-01
  8.50000000E-01  8.50000000E-01  8.50000000E-01  8.50000000E-01  8.50000000E-01
  8.50000000E-01  8.50000000E-01  8.50000000E-01  8.50000000E-01  8.50000000E-01
  8.50000000E-01  8.50000000E-01  8.50000000E-01  8.50000000E-01  8.50000000E-01
  8.50000000E-01  8.50000000E-01  8.50000000E-01  8.50000000E-01  8.50000000E-01
  8.50000000E-01  8.50000000E-01  8.50000000E-01  8.50000000E-01  8.50000000E-01
  8.50000000E-01  8.50000000E-01  8.50000000E-01  8.50000000E-01  8.50000000E-01
  8.50000000E-01  8.50000000E-01  8.50000000E-01  8.50000000E-01  8.50000000E-01
  8.50000000E-01  8.50000000E-01  8.50000000E-01  8.50000000E-01  8.50000000E-01
  8.50000000E-01  8.50000000E-01  8.50000000E-01  8.50000000E-01  8.50000000E-01
  8.50000000E-01  8.50000000E-01  8.50000000E-01  8.50000000E-01  8.50000000E-01
  8.50000000E-01  8.50000000E-01  8.50000000E-01  8.50000000E-01  8.50000000E-01
  8.50000000E-01  8.50000000E-01  8.50000000E-01  8.50000000E-01  8.50000000E-01
  8.50000000E-01  8.50000000E-01  8.50000000E-01  8.50000000E-01  8.50000000E-01
  8.50000000E-01  8.50000000E-01  8.50000000E-01  8.50000000E-01  8.50000000E-01
  8.50000000E-01  8.50000000E-01  8.50000000E-01  8.50000000E-01  8.50000000E-01
  8.50000000E-01  8.50000000E-01  8.50000000E-01  8.50000000E-01  8.50000000E-01
  8.50000000E-01  8.50000000E-01  8.50000000E-01  8.50000000E-01  8.50000000E-01
  8.50000000E-01  8.50000000E-01  8.50000000E-01  8.50000000E-01  8.50000000E-01
  8.50000000E-01  8.50000000E-01  8.50000000E-01  8.50000000E-01  8.50000000E-01
  8.50000000E-01  8.50000000E-01  8.50000000E-01  8.50000000E-01  8.50000000E-01
  8.50000000E-01  8.50000000E-01  8.50000000E-01  8.50000000E-01  8.50000000E-01
  8.50000000E-01  8.50000000E-01  8.50000000E-01  8.50000000E-01  8.50000000E-01
  8.50000000E-01  8.50000000E-01  8.50000000E-01  8.50000000E-01  8.50000000E-01
  8.50000000E-01  8.50000000E-01  8.50000000E-01  8.50000000E-01  8.50000000E-01
  8.50000000E-01  8.50000000E-01  8.50000000E-01  8.50000000E-01  8.50000000E-01
  8.50000000E-01  8.50000000E-01  8.50000000E-01  8.50000000E-01  8.50000000E-01
  8.50000000E-01  8.50000000E-01  8.50000000E-01  8.50000000E-01  8.50000000E-01
  8.50000000E-01  8.50000000E-01  8.50000000E-01  8.50000000E-01  8.50000000E-01
  8.50000000E-01  8.50000000E-01  8.50000000E-01  8.50000000E-01  8.50000000E-01
  8.50000000E-01  8.50000000E-01  8.50000000E-01  8.50000000E-01  8.50000000E-01
  8.50000000E-01  8.50000000E-01  8.50000000E-01  8.50000000E-01  8.50000000E-01
  8.50000000E-01  8.50000000E-01  8.50000000E-01  8.50000000E-01  8.50000000E-01
  8.50000000E-01  8.50000000E-01  8.50000000E-01  8.50000000E-01  8.50000000E-01
  8.50000000E-01  8.50000000E-01  8.50000000E-01  8.50000000E-01  8.50000000E-01
  8.50000000E-01  8.50000000E-01  8.50000000E-01  8.50000000E-01  8.50000000E-01
  8.50000000E-01  8.50000000E-01  8.50000000E-01  8.50000000E-01  8.50000000E-01
  8.50000000E-01  8.50000000E-01  8.50000000E-01  8.50000000E-01  8.50000000E-01
  8.50000000E-01  8.50000000E-01  8.50000000E-01  8.50000000E-01  8.50000000E-01
  8.50000000E-01  8.50000000E-01  8.50000000E-01  8.50000000E-01  8.50000000E-01
  8.50000000E-01  8.50000000E-01  8.50000000E-01  8.50000000E-01  8.50000000E-01
  8.50000000E-01  8.50000000E-01  8.50000000E-01  8.50000000E-01  8.50000000E-01
  8.50000000E-01  8.50000000E-01  8.50000000E-01  8.50000000E-01  8.50000000E-01
  8.50000000E-01  8.50000000E-01  8.50000000E-01  8.50000000E-01  8.50000000E-01
  8.50000000E-01  8.50000000E-01  8.50000000E-01  8.50000000E-01  8.50000000E-01
  8.50000000E-01  8.50000000E-01  8.50000000E-01  8.50000000E-01  8.50000000E-01
  8.50000000E-01  8.50000000E-01  8.50000000E-01  8.50000000E-01  8.50000000E-01
  8.50000000E-01  8.50000000E-01  8.50000000E-01  8.50000000E-01  8.50000000E-01
  8.50000000E-01  8.50000000E-01  8.50000000E-01  8.50000000E-01  8.50000000E-01
  8.50000000E-01  8.50000000E-01  8.50000000E-01  8.50000000E-01  8.50000000E-01
  8.50000000E-01  8.50000000E-01  8.50000000E-01  8.50000000E-01  8.50000000E-01
  8.50000000E-01  8.50000000E-01  8.50000000E-01  8.50000000E-01  8.50000000E-01
  8.50000000E-01  8.50000000E-01  8.50000000E-01  8.50000000E-01  8.50000000E-01
  8.50000000E-01  8.50000000E-01  8.50000000E-01  8.50000000E-01  8.50000000E-01
  8.50000000E-01  8.50000000E-01  8.50000000E-01  8.50000000E-01  8.50000000E-01
  8.50000000E-01  8.50000000E-01  8.50000000E-01  8.50000000E-01  8.50000000E-01
  8.50000000E-01  8.50000000E-01  8.50000000E-01  8.50000000E-01  8.50000000E-01
  8.50000000E-01  8.50000000E-01  8.50000000E-01  8.50000000E-01  8.50000000E-01
  8.50000000E-01  8.50000000E-01  8.50000000E-01  8.50000000E-01  8.50000000E-01
  8.50000000E-01  8.50000000E-01  8.50000000E-01  8.50000000E-01  8.50000000E-01
  8.50000000E-01  8.50000000E-01  8.50000000E-01  8.50000000E-01  8.50000000E-01
  8.50000000E-01  8.50000000E-01  8.50000000E-01  8.50000000E-01  8.50000000E-01
  8.50000000E-01  8.50000000E-01  8.50000000E-01  8.50000000E-01  8.50000000E-01
  8.50000000E-01  8.50000000E-01  8.50000000E-01  8.50000000E-01  8.50000000E-01
  8.50000000E-01  8.50000000E-01  8.50000000E-01  8.50000000E-01  8.50000000E-01
  8.50000000E-01  8.50000000E-01  8.50000000E-01  8.50000000E-01  8.50000000E-01
  8.50000000E-01  8.50000000E-01  8.50000000E-01  8.50000000E-01  8.50000000E-01
  8.50000000E-01  8.50000000E-01  8.50000000E-01  8.50000000E-01  8.50000000E-01
  8.50000000E-01  8.50000000E-01  8.50000000E-01  8.50000000E-01  8.50000000E-01
  8.50000000E-01  8.50000000E-01  8.50000000E-01  8.50000000E-01  8.50000000E-01
  8.50000000E-01  8.50000000E-01  8.50000000E-01  8.50000000E-01  8.50000000E-01
  8.50000000E-01  8.50000000E-01  8.50000000E-01  8.50000000E-01  8.50000000E-01
  8.50000000E-01  8.50000000E-01  8.50000000E-01  8.50000000E-01  8.50000000E-01
  8.50000000E-01  8.50000000E-01  8.50000000E-01  8.50000000E-01  8.50000000E-01
  8.50000000E-01  8.50000000E-01  8.50000000E-01  8.50000000E-01  8.50000000E-01
  8.50000000E-01  8.50000000E-01  8.50000000E-01  8.50000000E-01  8.50000000E-01
  8.50000000E-01  8.50000000E-01  8.50000000E-01  8.50000000E-01  8.50000000E-01
  8.50000000E-01  8.50000000E-01  8.50000000E-01  8.50000000E-01  8.50000000E-01
  8.50000000E-01  8.50000000E-01  8.50000000E-01  8.50000000E-01  8.50000000E-01
  8.50000000E-01  8.50000000E-01  8.50000000E-01  8.50000000E-01  8.50000000E-01
  8.50000000E-01  8.50000000E-01  8.50000000E-01  8.50000000E-01  8.50000000E-01
  8.50000000E-01  8.50000000E-01  8.50000000E-01  8.50000000E-01  8.50000000E-01
  8.50000000E-01  8.50000000E-01  8.50000000E-01  8.50000000E-01  8.50000000E-01
  8.50000000E-01  8.50000000E-01  8.50000000E-01  8.50000000E-01  8.50000000E-01
  8.50000000E-01  8.50000000E-01  8.50000000E-01  8.50000000E-01  8.50000000E-01
  8.50000000E-01  8.50000000E-01  8.50000000E-01  8.50000000E-01  8.50000000E-01
  8.50000000E-01  8.50000000E-01  8.50000000E-01  8.50000000E-01  8.50000000E-01
  8.50000000E-01  8.50000000E-01  8.50000000E-01  8.50000000E-01  8.50000000E-01
  8.50000000E-01  8.50000000E-01  8.50000000E-01  8.50000000E-01  8.50000000E-01
  8.50000000E-01  8.50000000E-01  8.50000000E-01  8.50000000E-01  8.50000000E-01
  8.50000000E-01  8.50000000E-01  8.50000000E-01  8.50000000E-01  8.50000000E-01
  8.50000000E-01  8.50000000E-01  8.50000000E-01  8.50000000E-01  8.50000000E-01
  8.50000000E-01  8.50000000E-01  8.50000000E-01  8.50000000E-01  8.50000000E-01
  8.50000000E-01  8.50000000E-01  8.50000000E-01  8.50000000E-01  8.50000000E-01
  8.50000000E-01  8.50000000E-01  8.50000000E-01  8.50000000E-01  8.50000000E-01
  8.50000000E-01  8.50000000E-01  8.50000000E-01  8.50000000E-01  8.50000000E-01
  8.50000000E-01  8.50000000E-01  8.50000000E-01  8.50000000E-01  8.50000000E-01
  8.50000000E-01  8.50000000E-01  8.50000000E-01  8.50000000E-01  8.50000000E-01
  8.50000000E-01  8.50000000E-01  8.50000000E-01  8.50000000E-01  8.50000000E-01
  8.50000000E-01  8.50000000E-01  8.50000000E-01  8.50000000E-01  8.50000000E-01
  8.50000000E-01  8.50000000E-01  8.50000000E-01  8.50000000E-01  8.50000000E-01
  8.50000000E-01  8.50000000E-01  8.50000000E-01  8.50000000E-01  8.50000000E-01
  8.50000000E-01  8.50000000E-01  8.50000000E-01  8.50000000E-01  8.50000000E-01
  8.50000000E-01  8.50000000E-01  8.50000000E-01  8.50000000E-01  8.50000000E-01
  8.50000000E-01  8.50000000E-01  8.50000000E-01  8.50000000E-01  8.50000000E-01
  8.50000000E-01  8.50000000E-01  8.50000000E-01  8.50000000E-01  8.50000000E-01
  8.50000000E-01  8.50000000E-01  8.50000000E-01  8.50000000E-01  8.50000000E-01
  8.50000000E-01  8.50000000E-01  8.50000000E-01  8.50000000E-01  8.50000000E-01
  8.50000000E-01  8.50000000E-01  8.50000000E-01  8.50000000E-01  8.50000000E-01
  8.50000000E-01  8.50000000E-01  8.50000000E-01  8.50000000E-01  8.50000000E-01
  8.50000000E-01  8.50000000E-01  8.50000000E-01  8.50000000E-01  8.50000000E-01
  8.50000000E-01  8.50000000E-01  8.50000000E-01  8.50000000E-01  8.50000000E-01
  8.50000000E-01  8.50000000E-01  8.50000000E-01  8.50000000E-01  8.50000000E-01
  8.50000000E-01  8.50000000E-01  8.50000000E-01  8.50000000E-01  8.50000000E-01
  8.50000000E-01  8.50000000E-01  8.50000000E-01  8.50000000E-01  8.50000000E-01
  8.50000000E-01  8.50000000E-01  8.50000000E-01  8.50000000E-01  8.50000000E-01
  8.50000000E-01  8.50000000E-01  8.50000000E-01  8.50000000E-01  8.50000000E-01
  8.50000000E-01  8.50000000E-01  8.50000000E-01  8.50000000E-01  8.50000000E-01
  8.50000000E-01  8.50000000E-01  8.50000000E-01  8.50000000E-01  8.50000000E-01
  8.50000000E-01  8.50000000E-01  8.50000000E-01  8.50000000E-01  8.50000000E-01
  8.50000000E-01  8.50000000E-01  8.50000000E-01  8.50000000E-01  8.50000000E-01
  8.50000000E-01  8.50000000E-01  8.50000000E-01  8.50000000E-01  8.50000000E-01
  8.50000000E-01  8.50000000E-01  8.50000000E-01  8.50000000E-01  8.50000000E-01
  8.50000000E-01  8.50000000E-01  8.50000000E-01  8.50000000E-01  8.50000000E-01
  8.50000000E-01  8.50000000E-01  8.50000000E-01  8.50000000E-01  8.50000000E-01
  8.50000000E-01  8.50000000E-01  8.50000000E-01  8.50000000E-01  8.50000000E-01
  8.50000000E-01  8.50000000E-01  8.50000000E-01  8.50000000E-01  8.50000000E-01
  8.50000000E-01  8.50000000E-01  8.50000000E-01  8.50000000E-01  8.50000000E-01
  8.50000000E-01  8.50000000E-01  8.50000000E-01  8.50000000E-01  8.50000000E-01
  8.50000000E-01  8.50000000E-01  8.50000000E-01  8.50000000E-01  8.50000000E-01
  8.50000000E-01  8.50000000E-01  8.50000000E-01  8.50000000E-01  8.50000000E-01
  8.50000000E-01  8.50000000E-01  8.50000000E-01  8.50000000E-01  8.50000000E-01
  8.50000000E-01  8.50000000E-01  8.50000000E-01  8.50000000E-01  8.50000000E-01
  8.50000000E-01  8.50000000E-01  8.50000000E-01  8.50000000E-01  8.50000000E-01
  8.50000000E-01  8.50000000E-01  8.50000000E-01  8.50000000E-01  8.50000000E-01
  8.50000000E-01  8.50000000E-01  8.50000000E-01  8.50000000E-01  8.50000000E-01
  8.50000000E-01  8.50000000E-01  8.50000000E-01  8.50000000E-01  8.50000000E-01
  8.50000000E-01  8.50000000E-01  8.50000000E-01  8.50000000E-01  8.50000000E-01
  8.50000000E-01  8.50000000E-01  8.50000000E-01  8.50000000E-01  8.50000000E-01
  8.50000000E-01  8.50000000E-01  8.50000000E-01  8.50000000E-01  8.50000000E-01
  8.50000000E-01  8.50000000E-01  8.50000000E-01  8.50000000E-01  8.50000000E-01
  8.50000000E-01  8.50000000E-01  8.50000000E-01  8.50000000E-01  8.50000000E-01
  8.50000000E-01  8.50000000E-01  8.50000000E-01  8.50000000E-01  8.50000000E-01
  8.50000000E-01  8.50000000E-01  8.50000000E-01  8.50000000E-01  8.50000000E-01
  8.50000000E-01  8.50000000E-01  8.50000000E-01  8.50000000E-01  8.50000000E-01
  8.50000000E-01  8.50000000E-01  8.50000000E-01  8.50000000E-01  8.50000000E-01
  8.50000000E-01  8.50000000E-01  8.50000000E-01  8.50000000E-01  8.50000000E-01
  8.50000000E-01  8.50000000E-01  8.50000000E-01  8.50000000E-01  8.50000000E-01
  8.50000000E-01  8.50000000E-01  8.50000000E-01  8.50000000E-01  8.50000000E-01
  8.50000000E-01  8.50000000E-01  8.50000000E-01  8.50000000E-01  8.50000000E-01
  8.50000000E-01  8.50000000E-01  8.50000000E-01  8.50000000E-01  8.50000000E-01
  8.50000000E-01  8.50000000E-01  8.50000000E-01  8.50000000E-01  8.50000000E-01
  8.50000000E-01  8.50000000E-01  8.50000000E-01  8.50000000E-01  8.50000000E-01
  8.50000000E-01  8.50000000E-01  8.50000000E-01  8.50000000E-01  8.50000000E-01
  8.50000000E-01  8.50000000E-01  8.50000000E-01  8.50000000E-01  8.50000000E-01
  8.50000000E-01  8.50000000E-01  8.50000000E-01  8.50000000E-01  8.50000000E-01
  8.50000000E-01  8.50000000E-01  8.50000000E-01  8.50000000E-01  8.50000000E-01
  8.50000000E-01  8.50000000E-01  8.50000000E-01  8.50000000E-01  8.50000000E-01
  8.50000000E-01  8.50000000E-01  8.50000000E-01  8.50000000E-01  8.50000000E-01
  8.50000000E-01  8.50000000E-01  8.50000000E-01  8.50000000E-01  8.50000000E-01
  8.50000000E-01  8.50000000E-01  8.50000000E-01  8.50000000E-01  8.50000000E-01
  8.50000000E-01  8.50000000E-01  8.50000000E-01  8.50000000E-01  8.50000000E-01
  8.50000000E-01  8.50000000E-01  8.50000000E-01  8.50000000E-01  8.50000000E-01
  8.50000000E-01  8.50000000E-01  8.50000000E-01  8.50000000E-01  8.50000000E-01
  8.50000000E-01  8.50000000E-01  8.50000000E-01  8.50000000E-01  8.50000000E-01
  8.50000000E-01  8.50000000E-01  8.50000000E-01  8.50000000E-01  8.50000000E-01
  8.50000000E-01  8.50000000E-01  8.50000000E-01  8.50000000E-01  8.50000000E-01
  8.50000000E-01  8.50000000E-01  8.50000000E-01  8.50000000E-01  8.50000000E-01
  8.50000000E-01  8.50000000E-01  8.50000000E-01  8.50000000E-01  8.50000000E-01
  8.50000000E-01  8.50000000E-01  8.50000000E-01  8.50000000E-01  8.50000000E-01
  8.50000000E-01  8.50000000E-01  8.50000000E-01  8.50000000E-01  8.50000000E-01
  8.50000000E-01  8.50000000E-01  8.50000000E-01  8.50000000E-01  8.50000000E-01
  8.50000000E-01  8.50000000E-01  8.50000000E-01  8.50000000E-01  8.50000000E-01
  8.50000000E-01  8.50000000E-01  8.50000000E-01  8.50000000E-01  8.50000000E-01
  8.50000000E-01  8.50000000E-01  8.50000000E-01  8.50000000E-01  8.50000000E-01
  8.50000000E-01  8.50000000E-01  8.50000000E-01  8.50000000E-01  8.50000000E-01
  8.50000000E-01  8.50000000E-01  8.50000000E-01  8.50000000E-01  8.50000000E-01
  8.50000000E-01  8.50000000E-01  8.50000000E-01  8.50000000E-01  8.50000000E-01
  8.50000000E-01  8.50000000E-01  8.50000000E-01  8.50000000E-01  8.50000000E-01
  8.50000000E-01  8.50000000E-01  8.50000000E-01  8.50000000E-01  8.50000000E-01
  8.50000000E-01  8.50000000E-01  8.50000000E-01  8.50000000E-01  8.50000000E-01
  8.50000000E-01  8.50000000E-01  8.50000000E-01  8.50000000E-01  8.50000000E-01
  8.50000000E-01  8.50000000E-01  8.50000000E-01  8.50000000E-01  8.50000000E-01
  8.50000000E-01  8.50000000E-01  8.50000000E-01  8.50000000E-01  8.50000000E-01
  8.50000000E-01  8.50000000E-01  8.50000000E-01  8.50000000E-01  8.50000000E-01
  8.50000000E-01  8.50000000E-01  8.50000000E-01  8.50000000E-01  8.50000000E-01
  8.50000000E-01  8.50000000E-01  8.50000000E-01  8.50000000E-01  8.50000000E-01
  8.50000000E-01  8.50000000E-01  8.50000000E-01  8.50000000E-01  8.50000000E-01
  8.50000000E-01  8.50000000E-01  8.50000000E-01  8.50000000E-01  8.50000000E-01
  8.50000000E-01  8.50000000E-01  8.50000000E-01  8.50000000E-01  8.50000000E-01
  8.50000000E-01  8.50000000E-01  8.50000000E-01  8.50000000E-01  8.50000000E-01
  8.50000000E-01  8.50000000E-01  8.50000000E-01  8.50000000E-01  8.50000000E-01
  8.50000000E-01  8.50000000E-01  8.50000000E-01  8.50000000E-01  8.50000000E-01
  8.50000000E-01  8.50000000E-01  8.50000000E-01  8.50000000E-01  8.50000000E-01
  8.50000000E-01  8.50000000E-01  8.50000000E-01  8.50000000E-01  8.50000000E-01
  8.50000000E-01  8.50000000E-01  8.50000000E-01  8.50000000E-01  8.50000000E-01
  8.50000000E-01  8.50000000E-01  8.50000000E-01  8.50000000E-01  8.50000000E-01
  8.50000000E-01  8.50000000E-01  8.50000000E-01  8.50000000E-01  8.50000000E-01
  8.50000000E-01  8.50000000E-01  8.50000000E-01  8.50000000E-01  8.50000000E-01
  8.50000000E-01  8.50000000E-01  8.50000000E-01  8.50000000E-01  8.50000000E-01
  8.50000000E-01  8.50000000E-01  8.50000000E-01  8.50000000E-01  8.50000000E-01
  8.50000000E-01  8.50000000E-01  8.50000000E-01  8.50000000E-01  8.50000000E-01
  8.50000000E-01  8.50000000E-01  8.50000000E-01  8.50000000E-01  8.50000000E-01
  8.50000000E-01  8.50000000E-01  8.50000000E-01  8.50000000E-01  8.50000000E-01
  8.50000000E-01  8.50000000E-01  8.50000000E-01  8.50000000E-01  8.50000000E-01
  8.50000000E-01  8.50000000E-01  8.50000000E-01  8.50000000E-01  8.50000000E-01
  8.50000000E-01  8.50000000E-01  8.50000000E-01  8.50000000E-01  8.50000000E-01
  8.50000000E-01  8.50000000E-01  8.50000000E-01  8.50000000E-01  8.50000000E-01
  8.50000000E-01  8.50000000E-01  8.50000000E-01  8.50000000E-01  8.50000000E-01
  8.50000000E-01  8.50000000E-01  8.50000000E-01  8.50000000E-01  8.50000000E-01
  8.50000000E-01  8.50000000E-01  8.50000000E-01  8.50000000E-01  8.50000000E-01
  8.50000000E-01  8.50000000E-01  8.50000000E-01  8.50000000E-01  8.50000000E-01
  8.50000000E-01  8.50000000E-01  8.50000000E-01  8.50000000E-01  8.50000000E-01
  8.50000000E-01  8.50000000E-01  8.50000000E-01  8.50000000E-01  8.50000000E-01
  8.50000000E-01  8.50000000E-01  8.50000000E-01  8.50000000E-01  8.50000000E-01
  8.50000000E-01  8.50000000E-01  8.50000000E-01  8.50000000E-01  8.50000000E-01
  8.50000000E-01  8.50000000E-01  8.50000000E-01  8.50000000E-01  8.50000000E-01
  8.50000000E-01  8.50000000E-01  8.50000000E-01  8.50000000E-01  8.50000000E-01
  8.50000000E-01  8.50000000E-01  8.50000000E-01  8.50000000E-01  8.50000000E-01
  8.50000000E-01  8.50000000E-01  8.50000000E-01  8.50000000E-01  8.50000000E-01
  8.50000000E-01  8.50000000E-01  8.50000000E-01  8.50000000E-01  8.50000000E-01
  8.50000000E-01  8.50000000E-01  8.50000000E-01  8.50000000E-01  8.50000000E-01
  8.50000000E-01  8.50000000E-01  8.50000000E-01  8.50000000E-01  8.50000000E-01
  8.50000000E-01  8.50000000E-01  8.50000000E-01  8.50000000E-01  8.50000000E-01
  8.50000000E-01  8.50000000E-01  8.50000000E-01  8.50000000E-01  8.50000000E-01
  8.50000000E-01  8.50000000E-01  8.50000000E-01  8.50000000E-01  8.50000000E-01
  8.50000000E-01  8.50000000E-01  8.50000000E-01  8.50000000E-01  8.50000000E-01
  8.50000000E-01  8.50000000E-01  8.50000000E-01  8.50000000E-01  8.50000000E-01
  8.50000000E-01  8.50000000E-01  8.50000000E-01  8.50000000E-01  8.50000000E-01
  8.50000000E-01  8.50000000E-01  8.50000000E-01  8.50000000E-01  8.50000000E-01
  8.50000000E-01  8.50000000E-01  8.50000000E-01  8.50000000E-01  8.50000000E-01
  8.50000000E-01  8.50000000E-01  8.50000000E-01  8.50000000E-01  8.50000000E-01
  8.50000000E-01  8.50000000E-01  8.50000000E-01  8.50000000E-01  8.50000000E-01
  8.50000000E-01  8.50000000E-01  8.50000000E-01  8.50000000E-01  8.50000000E-01
  8.50000000E-01  8.50000000E-01  8.50000000E-01  8.50000000E-01  8.50000000E-01
  8.50000000E-01  8.50000000E-01  8.50000000E-01  8.50000000E-01  8.50000000E-01
  8.50000000E-01  8.50000000E-01  8.50000000E-01  8.50000000E-01  8.50000000E-01
  8.50000000E-01  8.50000000E-01  8.50000000E-01  8.50000000E-01  8.50000000E-01
  8.50000000E-01  8.50000000E-01  8.50000000E-01  8.50000000E-01  8.50000000E-01
  8.50000000E-01  8.50000000E-01  8.50000000E-01  8.50000000E-01  8.50000000E-01
  8.50000000E-01  8.50000000E-01  8.50000000E-01  8.50000000E-01  8.50000000E-01
  8.50000000E-01  8.50000000E-01  8.50000000E-01  8.50000000E-01  8.50000000E-01
  8.50000000E-01  8.50000000E-01  8.50000000E-01  8.50000000E-01  8.50000000E-01
  8.50000000E-01  8.50000000E-01  8.50000000E-01  8.50000000E-01  8.50000000E-01
  8.50000000E-01  8.50000000E-01  8.50000000E-01  8.50000000E-01  8.50000000E-01
  8.50000000E-01  8.50000000E-01  8.50000000E-01  8.50000000E-01  8.50000000E-01
  8.50000000E-01  8.50000000E-01  8.50000000E-01  8.50000000E-01  8.50000000E-01
  8.50000000E-01  8.50000000E-01  8.50000000E-01  8.50000000E-01  8.50000000E-01
  8.50000000E-01  8.50000000E-01  8.50000000E-01  8.50000000E-01  8.50000000E-01
  8.50000000E-01  8.50000000E-01  8.50000000E-01  8.50000000E-01  8.50000000E-01
  8.50000000E-01  8.50000000E-01  8.50000000E-01  8.50000000E-01  8.50000000E-01
  8.50000000E-01  8.50000000E-01  8.50000000E-01  8.50000000E-01  8.50000000E-01
  8.50000000E-01  8.50000000E-01  8.50000000E-01  8.50000000E-01  8.50000000E-01
  8.50000000E-01  8.50000000E-01  8.50000000E-01  8.50000000E-01  8.50000000E-01
  8.50000000E-01  8.50000000E-01  8.50000000E-01  8.50000000E-01  8.50000000E-01
  8.50000000E-01  8.50000000E-01  8.50000000E-01  8.50000000E-01  8.50000000E-01
  8.50000000E-01  8.50000000E-01  8.50000000E-01  8.50000000E-01  8.50000000E-01
  8.50000000E-01  8.50000000E-01  8.50000000E-01  8.50000000E-01  8.50000000E-01
  8.50000000E-01  8.50000000E-01  8.50000000E-01  8.50000000E-01  8.50000000E-01
  8.50000000E-01  8.50000000E-01  8.50000000E-01  8.50000000E-01  8.50000000E-01
  8.50000000E-01  8.50000000E-01  8.50000000E-01  8.50000000E-01  8.50000000E-01
  8.50000000E-01  8.50000000E-01  8.50000000E-01  8.50000000E-01  8.50000000E-01
  8.50000000E-01  8.50000000E-01  8.50000000E-01  8.50000000E-01  8.50000000E-01
  8.50000000E-01  8.50000000E-01  8.50000000E-01  8.50000000E-01  8.50000000E-01
  8.50000000E-01  8.50000000E-01  8.50000000E-01  8.50000000E-01  8.50000000E-01
  8.50000000E-01  8.50000000E-01  8.50000000E-01  8.50000000E-01  8.50000000E-01
  8.50000000E-01  8.50000000E-01  8.50000000E-01  8.50000000E-01  8.50000000E-01
  8.50000000E-01  8.50000000E-01  8.50000000E-01  8.50000000E-01  8.50000000E-01
  8.50000000E-01  8.50000000E-01  8.50000000E-01  8.50000000E-01  8.50000000E-01
  8.50000000E-01  8.50000000E-01  8.50000000E-01  8.50000000E-01  8.50000000E-01
  8.50000000E-01  8.50000000E-01  8.50000000E-01  8.50000000E-01  8.50000000E-01
  8.50000000E-01  8.50000000E-01  8.50000000E-01  8.50000000E-01  8.50000000E-01
  8.50000000E-01  8.50000000E-01  8.50000000E-01  8.50000000E-01  8.50000000E-01
  8.50000000E-01  8.50000000E-01  8.50000000E-01  8.50000000E-01  8.50000000E-01
  8.50000000E-01  8.50000000E-01  8.50000000E-01  8.50000000E-01  8.50000000E-01
  8.50000000E-01  8.50000000E-01  8.50000000E-01  8.50000000E-01  8.50000000E-01
  8.50000000E-01  8.50000000E-01  8.50000000E-01  8.50000000E-01  8.50000000E-01
  8.50000000E-01  8.50000000E-01  8.50000000E-01  8.50000000E-01  8.50000000E-01
  8.50000000E-01  8.50000000E-01  8.50000000E-01  8.50000000E-01  8.50000000E-01
  8.50000000E-01  8.50000000E-01  8.50000000E-01  8.50000000E-01  8.50000000E-01
  8.50000000E-01  8.50000000E-01  8.50000000E-01  8.50000000E-01  8.50000000E-01
  8.50000000E-01  8.50000000E-01  8.50000000E-01  8.50000000E-01  8.50000000E-01
  8.50000000E-01  8.50000000E-01  8.50000000E-01  8.50000000E-01  8.50000000E-01
  8.50000000E-01  8.50000000E-01  8.50000000E-01  8.50000000E-01  8.50000000E-01
  8.50000000E-01  8.50000000E-01  8.50000000E-01  8.50000000E-01  8.50000000E-01
  8.50000000E-01  8.50000000E-01  8.50000000E-01  8.50000000E-01  8.50000000E-01
  8.50000000E-01  8.50000000E-01  8.50000000E-01  8.50000000E-01  8.50000000E-01
  8.50000000E-01  8.50000000E-01  8.50000000E-01  8.50000000E-01  8.50000000E-01
  8.50000000E-01  8.50000000E-01  8.50000000E-01  8.50000000E-01  8.50000000E-01
  8.50000000E-01  8.50000000E-01  8.50000000E-01  8.50000000E-01  8.50000000E-01
  8.50000000E-01  8.50000000E-01  8.50000000E-01  8.50000000E-01  8.50000000E-01
  8.50000000E-01  8.50000000E-01  8.50000000E-01  8.50000000E-01  8.50000000E-01
  8.50000000E-01  8.50000000E-01  8.50000000E-01  8.50000000E-01  8.50000000E-01
  8.50000000E-01  8.50000000E-01  8.50000000E-01  8.50000000E-01  8.50000000E-01
  8.50000000E-01  8.50000000E-01  8.50000000E-01  8.50000000E-01  8.50000000E-01
  8.50000000E-01  8.50000000E-01  8.50000000E-01  8.50000000E-01  8.50000000E-01
  8.50000000E-01  8.50000000E-01  8.50000000E-01  8.50000000E-01  8.50000000E-01
  8.50000000E-01  8.50000000E-01  8.50000000E-01  8.50000000E-01  8.50000000E-01
  8.50000000E-01  8.50000000E-01  8.50000000E-01  8.50000000E-01  8.50000000E-01
  8.50000000E-01  8.50000000E-01  8.50000000E-01  8.50000000E-01  8.50000000E-01
  8.50000000E-01  8.50000000E-01  8.50000000E-01  8.50000000E-01  8.50000000E-01
  8.50000000E-01  8.50000000E-01  8.50000000E-01  8.50000000E-01  8.50000000E-01
  8.50000000E-01  8.50000000E-01  8.50000000E-01  8.50000000E-01  8.50000000E-01
  8.50000000E-01  8.50000000E-01  8.50000000E-01  8.50000000E-01  8.50000000E-01
  8.50000000E-01  8.50000000E-01  8.50000000E-01  8.50000000E-01  8.50000000E-01
  8.50000000E-01  8.50000000E-01  8.50000000E-01  8.50000000E-01  8.50000000E-01
  8.50000000E-01  8.50000000E-01  8.50000000E-01  8.50000000E-01  8.50000000E-01
  8.50000000E-01  8.50000000E-01  8.50000000E-01  8.50000000E-01  8.50000000E-01
  8.50000000E-01  8.50000000E-01  8.50000000E-01  8.50000000E-01  8.50000000E-01
  8.50000000E-01  8.50000000E-01  8.50000000E-01  8.50000000E-01  8.50000000E-01
  8.50000000E-01  8.50000000E-01  8.50000000E-01  8.50000000E-01  8.50000000E-01
  8.50000000E-01  8.50000000E-01  8.50000000E-01  8.50000000E-01  8.50000000E-01
  8.50000000E-01  8.50000000E-01  8.50000000E-01  8.50000000E-01  8.50000000E-01
  8.50000000E-01  8.50000000E-01  8.50000000E-01  8.50000000E-01  8.50000000E-01
  8.50000000E-01  8.50000000E-01  8.50000000E-01  8.50000000E-01  8.50000000E-01
  8.50000000E-01  8.50000000E-01  8.50000000E-01  8.50000000E-01  8.50000000E-01
  8.50000000E-01  8.50000000E-01  8.50000000E-01  8.50000000E-01  8.50000000E-01
  8.50000000E-01  8.50000000E-01  8.50000000E-01  8.50000000E-01  8.50000000E-01
  8.50000000E-01  8.50000000E-01  8.50000000E-01  8.50000000E-01  8.50000000E-01
  8.50000000E-01  8.50000000E-01  8.50000000E-01  8.50000000E-01  8.50000000E-01
  8.50000000E-01  8.50000000E-01  8.50000000E-01  8.50000000E-01  8.50000000E-01
  8.50000000E-01  8.50000000E-01  8.50000000E-01  8.50000000E-01  8.50000000E-01
  8.50000000E-01  8.50000000E-01  8.50000000E-01  8.50000000E-01  8.50000000E-01
  8.50000000E-01  8.50000000E-01  8.50000000E-01  8.50000000E-01  8.50000000E-01
  8.50000000E-01  8.50000000E-01  8.50000000E-01  8.50000000E-01  8.50000000E-01
  8.50000000E-01  8.50000000E-01  8.50000000E-01  8.50000000E-01  8.50000000E-01
  8.50000000E-01  8.50000000E-01  8.50000000E-01  8.50000000E-01  8.50000000E-01
  8.50000000E-01  8.50000000E-01  8.50000000E-01  8.50000000E-01  8.50000000E-01
  8.50000000E-01  8.50000000E-01  8.50000000E-01  8.50000000E-01  8.50000000E-01
  8.50000000E-01  8.50000000E-01  8.50000000E-01  8.50000000E-01  8.50000000E-01
  8.50000000E-01  8.50000000E-01  8.50000000E-01  8.50000000E-01  8.50000000E-01
  8.50000000E-01  8.50000000E-01  8.50000000E-01  8.50000000E-01  8.50000000E-01
  8.50000000E-01  8.50000000E-01  8.50000000E-01  8.50000000E-01  8.50000000E-01
  8.50000000E-01  8.50000000E-01  8.50000000E-01  8.50000000E-01  8.50000000E-01
  8.50000000E-01  8.50000000E-01  8.50000000E-01  8.50000000E-01  8.50000000E-01
  8.50000000E-01  8.50000000E-01  8.50000000E-01  8.50000000E-01  8.50000000E-01
  8.50000000E-01  8.50000000E-01  8.50000000E-01  8.50000000E-01  8.50000000E-01
  8.50000000E-01  8.50000000E-01  8.50000000E-01  8.50000000E-01  8.50000000E-01
  8.50000000E-01  8.50000000E-01  8.50000000E-01  8.50000000E-01  8.50000000E-01
  8.50000000E-01  8.50000000E-01  8.50000000E-01  8.50000000E-01  8.50000000E-01
  8.50000000E-01  8.50000000E-01  8.50000000E-01  8.50000000E-01  8.50000000E-01
  8.50000000E-01  8.50000000E-01  8.50000000E-01  8.50000000E-01  8.50000000E-01
  8.50000000E-01  8.50000000E-01  8.50000000E-01  8.50000000E-01  8.50000000E-01
  8.50000000E-01  8.50000000E-01  8.50000000E-01  8.50000000E-01  8.50000000E-01
  8.50000000E-01  8.50000000E-01  8.50000000E-01  8.50000000E-01  8.50000000E-01
  8.50000000E-01  8.50000000E-01  8.50000000E-01  8.50000000E-01  8.50000000E-01
  8.50000000E-01  8.50000000E-01  8.50000000E-01  8.50000000E-01  8.50000000E-01
  8.50000000E-01  8.50000000E-01  8.50000000E-01  8.50000000E-01  8.50000000E-01
  8.50000000E-01  8.50000000E-01  8.50000000E-01  8.50000000E-01  8.50000000E-01
  8.50000000E-01  8.50000000E-01  8.50000000E-01  8.50000000E-01  8.50000000E-01
  8.50000000E-01  8.50000000E-01  8.50000000E-01  8.50000000E-01  8.50000000E-01
  8.50000000E-01  8.50000000E-01  8.50000000E-01  8.50000000E-01  8.50000000E-01
  8.50000000E-01  8.50000000E-01  8.50000000E-01  8.50000000E-01  8.50000000E-01
  8.50000000E-01  8.50000000E-01  8.50000000E-01  8.50000000E-01  8.50000000E-01
  8.50000000E-01  8.50000000E-01  8.50000000E-01  8.50000000E-01  8.50000000E-01
  8.50000000E-01  8.50000000E-01  8.50000000E-01  8.50000000E-01  8.50000000E-01
  8.50000000E-01  8.50000000E-01  8.50000000E-01  8.50000000E-01  8.50000000E-01
  8.50000000E-01  8.50000000E-01  8.50000000E-01  8.50000000E-01  8.50000000E-01
  8.50000000E-01  8.50000000E-01  8.50000000E-01  8.50000000E-01  8.50000000E-01
  8.50000000E-01  8.50000000E-01  8.50000000E-01  8.50000000E-01  8.50000000E-01
  8.50000000E-01  8.50000000E-01  8.50000000E-01  8.50000000E-01  8.50000000E-01
  8.50000000E-01  8.50000000E-01  8.50000000E-01  8.50000000E-01  8.50000000E-01
  8.50000000E-01  8.50000000E-01  8.50000000E-01  8.50000000E-01  8.50000000E-01
  8.50000000E-01  8.50000000E-01  8.50000000E-01  8.50000000E-01  8.50000000E-01
  8.50000000E-01  8.50000000E-01  8.50000000E-01  8.50000000E-01  8.50000000E-01
  8.50000000E-01  8.50000000E-01  8.50000000E-01  8.50000000E-01  8.50000000E-01
  8.50000000E-01  8.50000000E-01  8.50000000E-01  8.50000000E-01  8.50000000E-01
  8.50000000E-01  8.50000000E-01  8.50000000E-01  8.50000000E-01  8.50000000E-01
  8.50000000E-01  8.50000000E-01  8.50000000E-01  8.50000000E-01  8.50000000E-01
  8.50000000E-01  8.50000000E-01  8.50000000E-01  8.50000000E-01  8.50000000E-01
  8.50000000E-01  8.50000000E-01  8.50000000E-01  8.50000000E-01  8.50000000E-01
  8.50000000E-01  8.50000000E-01  8.50000000E-01  8.50000000E-01  8.50000000E-01
  8.50000000E-01  8.50000000E-01  8.50000000E-01  8.50000000E-01  8.50000000E-01
  8.50000000E-01  8.50000000E-01  8.50000000E-01  8.50000000E-01  8.50000000E-01
  8.50000000E-01  8.50000000E-01  8.50000000E-01  8.50000000E-01  8.50000000E-01
  8.50000000E-01  8.50000000E-01  8.50000000E-01  8.50000000E-01  8.50000000E-01
  8.50000000E-01  8.50000000E-01  8.50000000E-01  8.50000000E-01  8.50000000E-01
  8.50000000E-01  8.50000000E-01  8.50000000E-01  8.50000000E-01  8.50000000E-01
  8.50000000E-01  8.50000000E-01  8.50000000E-01  8.50000000E-01  8.50000000E-01
  8.50000000E-01  8.50000000E-01  8.50000000E-01  8.50000000E-01  8.50000000E-01
  8.50000000E-01  8.50000000E-01  8.50000000E-01  8.50000000E-01  8.50000000E-01
  8.50000000E-01  8.50000000E-01  8.50000000E-01  8.50000000E-01  8.50000000E-01
  8.50000000E-01  8.50000000E-01  8.50000000E-01  8.50000000E-01  8.50000000E-01
  8.50000000E-01  8.50000000E-01  8.50000000E-01  8.50000000E-01  8.50000000E-01
  8.50000000E-01  8.50000000E-01  8.50000000E-01  8.50000000E-01  8.50000000E-01
  8.50000000E-01  8.50000000E-01  8.50000000E-01  8.50000000E-01  8.50000000E-01
  8.50000000E-01  8.50000000E-01  8.50000000E-01  8.50000000E-01  8.50000000E-01
  8.50000000E-01  8.50000000E-01  8.50000000E-01  8.50000000E-01  8.50000000E-01
  8.50000000E-01  8.50000000E-01  8.50000000E-01  8.50000000E-01  8.50000000E-01
  8.50000000E-01  8.50000000E-01  8.50000000E-01  8.50000000E-01  8.50000000E-01
  8.50000000E-01  8.50000000E-01  8.50000000E-01  8.50000000E-01  8.50000000E-01
  8.50000000E-01  8.50000000E-01  8.50000000E-01  8.50000000E-01  8.50000000E-01
  8.50000000E-01  8.50000000E-01  8.50000000E-01  8.50000000E-01  8.50000000E-01
  8.50000000E-01  8.50000000E-01  8.50000000E-01  8.50000000E-01  8.50000000E-01
  8.50000000E-01  8.50000000E-01  8.50000000E-01  8.50000000E-01  8.50000000E-01
  8.50000000E-01  8.50000000E-01  8.50000000E-01  8.50000000E-01  8.50000000E-01
  8.50000000E-01  8.50000000E-01  8.50000000E-01  8.50000000E-01  8.50000000E-01
  8.50000000E-01  8.50000000E-01  8.50000000E-01  8.50000000E-01  8.50000000E-01
  8.50000000E-01  8.50000000E-01  8.50000000E-01  8.50000000E-01  8.50000000E-01
  8.50000000E-01  8.50000000E-01  8.50000000E-01  8.50000000E-01  8.50000000E-01
  8.50000000E-01  8.50000000E-01  8.50000000E-01  8.50000000E-01  8.50000000E-01
  8.50000000E-01  8.50000000E-01  8.50000000E-01  8.50000000E-01  8.50000000E-01
  8.50000000E-01  8.50000000E-01  8.50000000E-01  8.50000000E-01  8.50000000E-01
  8.50000000E-01  8.50000000E-01  8.50000000E-01  8.50000000E-01  8.50000000E-01
  8.50000000E-01  8.50000000E-01  8.50000000E-01  8.50000000E-01  8.50000000E-01
  8.50000000E-01  8.50000000E-01  8.50000000E-01  8.50000000E-01  8.50000000E-01
  8.50000000E-01  8.50000000E-01  8.50000000E-01  8.50000000E-01  8.50000000E-01
  8.50000000E-01  8.50000000E-01  8.50000000E-01  8.50000000E-01  8.50000000E-01
  8.50000000E-01  8.50000000E-01  8.50000000E-01  8.50000000E-01  8.50000000E-01
  8.50000000E-01  8.50000000E-01  8.50000000E-01  8.50000000E-01  8.50000000E-01
  8.50000000E-01  8.50000000E-01  8.50000000E-01  8.50000000E-01  8.50000000E-01
  8.50000000E-01  8.50000000E-01  8.50000000E-01  8.50000000E-01  8.50000000E-01
  8.50000000E-01  8.50000000E-01  8.50000000E-01  8.50000000E-01  8.50000000E-01
  8.50000000E-01  8.50000000E-01  8.50000000E-01  8.50000000E-01  8.50000000E-01
  8.50000000E-01  8.50000000E-01  8.50000000E-01  8.50000000E-01  8.50000000E-01
  8.50000000E-01  8.50000000E-01  8.50000000E-01  8.50000000E-01  8.50000000E-01
  8.50000000E-01  8.50000000E-01  8.50000000E-01  8.50000000E-01  8.50000000E-01
  8.50000000E-01  8.50000000E-01  8.50000000E-01  8.50000000E-01  8.50000000E-01
  8.50000000E-01  8.50000000E-01  8.50000000E-01  8.50000000E-01  8.50000000E-01
  8.50000000E-01  8.50000000E-01  8.50000000E-01  8.50000000E-01  8.50000000E-01
  8.50000000E-01  8.50000000E-01  8.50000000E-01  8.50000000E-01  8.50000000E-01
  8.50000000E-01  8.50000000E-01  8.50000000E-01  8.50000000E-01  8.50000000E-01
  8.50000000E-01  8.50000000E-01  8.50000000E-01  8.50000000E-01  8.50000000E-01
  8.50000000E-01  8.50000000E-01  8.50000000E-01  8.50000000E-01  8.50000000E-01
  8.50000000E-01  8.50000000E-01  8.50000000E-01  8.50000000E-01  8.50000000E-01
  8.50000000E-01  8.50000000E-01  8.50000000E-01  8.50000000E-01  8.50000000E-01
  8.50000000E-01  8.50000000E-01  8.50000000E-01  8.50000000E-01  8.50000000E-01
  8.50000000E-01  8.50000000E-01  8.50000000E-01  8.50000000E-01  8.50000000E-01
  8.50000000E-01  8.50000000E-01  8.50000000E-01  8.50000000E-01  8.50000000E-01
  8.50000000E-01  8.50000000E-01  8.50000000E-01  8.50000000E-01  8.50000000E-01
  8.50000000E-01  8.50000000E-01  8.50000000E-01  8.50000000E-01  8.50000000E-01
  8.50000000E-01  8.50000000E-01  8.50000000E-01  8.50000000E-01  8.50000000E-01
  8.50000000E-01  8.50000000E-01  8.50000000E-01  8.50000000E-01  8.50000000E-01
  8.50000000E-01  8.50000000E-01  8.50000000E-01  8.50000000E-01  8.50000000E-01
  8.50000000E-01  8.50000000E-01  8.50000000E-01  8.50000000E-01  8.50000000E-01
  8.50000000E-01  8.50000000E-01  8.50000000E-01  8.50000000E-01  8.50000000E-01
  8.50000000E-01  8.50000000E-01  8.50000000E-01  8.50000000E-01  8.50000000E-01
  8.50000000E-01  8.50000000E-01  8.50000000E-01  8.50000000E-01  8.50000000E-01
  8.50000000E-01  8.50000000E-01  8.50000000E-01  8.50000000E-01  8.50000000E-01
  8.50000000E-01  8.50000000E-01  8.50000000E-01  8.50000000E-01  8.50000000E-01
  8.50000000E-01  8.50000000E-01  8.50000000E-01  8.50000000E-01  8.50000000E-01
  8.50000000E-01  8.50000000E-01  8.50000000E-01  8.50000000E-01  8.50000000E-01
  8.50000000E-01  8.50000000E-01  8.50000000E-01  8.50000000E-01  8.50000000E-01
  8.50000000E-01  8.50000000E-01  8.50000000E-01  8.50000000E-01  8.50000000E-01
  8.50000000E-01  8.50000000E-01  8.50000000E-01  8.50000000E-01  8.50000000E-01
  8.50000000E-01  8.50000000E-01  8.50000000E-01  8.50000000E-01  8.50000000E-01
  8.50000000E-01  8.50000000E-01  8.50000000E-01  8.50000000E-01  8.50000000E-01
  8.50000000E-01  8.50000000E-01  8.50000000E-01  8.50000000E-01  8.50000000E-01
  8.50000000E-01  8.50000000E-01  8.50000000E-01  8.50000000E-01  8.50000000E-01
  8.50000000E-01  8.50000000E-01  8.50000000E-01  8.50000000E-01  8.50000000E-01
  8.50000000E-01  8.50000000E-01  8.50000000E-01  8.50000000E-01  8.50000000E-01
  8.50000000E-01  8.50000000E-01  8.50000000E-01  8.50000000E-01  8.50000000E-01
  8.50000000E-01  8.50000000E-01  8.50000000E-01  8.50000000E-01  8.50000000E-01
  8.50000000E-01  8.50000000E-01  8.50000000E-01  8.50000000E-01  8.50000000E-01
  8.50000000E-01  8.50000000E-01  8.50000000E-01  8.50000000E-01  8.50000000E-01
  8.50000000E-01  8.50000000E-01  8.50000000E-01  8.50000000E-01  8.50000000E-01
  8.50000000E-01  8.50000000E-01  8.50000000E-01  8.50000000E-01  8.50000000E-01
  8.50000000E-01  8.50000000E-01  8.50000000E-01  8.50000000E-01  8.50000000E-01
  8.50000000E-01  8.50000000E-01  8.50000000E-01  8.50000000E-01  8.50000000E-01
  8.50000000E-01  8.50000000E-01  8.50000000E-01  8.50000000E-01  8.50000000E-01
  8.50000000E-01  8.50000000E-01  8.50000000E-01  8.50000000E-01  8.50000000E-01
  8.50000000E-01  8.50000000E-01  8.50000000E-01  8.50000000E-01  8.50000000E-01
  8.50000000E-01  8.50000000E-01  8.50000000E-01  8.50000000E-01  8.50000000E-01
  8.50000000E-01  8.50000000E-01  8.50000000E-01  8.50000000E-01  8.50000000E-01
  8.50000000E-01  8.50000000E-01  8.50000000E-01  8.50000000E-01  8.50000000E-01
  8.50000000E-01  8.50000000E-01  8.50000000E-01  8.50000000E-01  8.50000000E-01
  8.50000000E-01  8.50000000E-01  8.50000000E-01  8.50000000E-01  8.50000000E-01
  8.50000000E-01  8.50000000E-01  8.50000000E-01  8.50000000E-01  8.50000000E-01
  8.50000000E-01  8.50000000E-01  8.50000000E-01  8.50000000E-01  8.50000000E-01
  8.50000000E-01  8.50000000E-01  8.50000000E-01  8.50000000E-01  8.50000000E-01
  8.50000000E-01  8.50000000E-01  8.50000000E-01  8.50000000E-01  8.50000000E-01
  8.50000000E-01  8.50000000E-01  8.50000000E-01  8.50000000E-01  8.50000000E-01
  8.50000000E-01  8.50000000E-01  8.50000000E-01  8.50000000E-01  8.50000000E-01
  8.50000000E-01  8.50000000E-01  8.50000000E-01  8.50000000E-01  8.50000000E-01
  8.50000000E-01  8.50000000E-01  8.50000000E-01  8.50000000E-01  8.50000000E-01
  8.50000000E-01  8.50000000E-01  8.50000000E-01  8.50000000E-01  8.50000000E-01
  8.50000000E-01  8.50000000E-01  8.50000000E-01  8.50000000E-01  8.50000000E-01
  8.50000000E-01  8.50000000E-01  8.50000000E-01  8.50000000E-01  8.50000000E-01
  8.50000000E-01  8.50000000E-01  8.50000000E-01  8.50000000E-01  8.50000000E-01
  8.50000000E-01  8.50000000E-01  8.50000000E-01  8.50000000E-01  8.50000000E-01
  8.50000000E-01  8.50000000E-01  8.50000000E-01  8.50000000E-01  8.50000000E-01
  8.50000000E-01  8.50000000E-01  8.50000000E-01  8.50000000E-01  8.50000000E-01
  8.50000000E-01  8.50000000E-01  8.50000000E-01  8.50000000E-01  8.50000000E-01
  8.50000000E-01  8.50000000E-01  8.50000000E-01  8.50000000E-01  8.50000000E-01
  8.50000000E-01  8.50000000E-01  8.50000000E-01  8.50000000E-01  8.50000000E-01
  8.50000000E-01  8.50000000E-01  8.50000000E-01  8.50000000E-01  8.50000000E-01
  8.50000000E-01  8.50000000E-01  8.50000000E-01  8.50000000E-01  8.50000000E-01
  8.50000000E-01  8.50000000E-01  8.50000000E-01  8.50000000E-01  8.50000000E-01
  8.50000000E-01  8.50000000E-01  8.50000000E-01  8.50000000E-01  8.50000000E-01
  8.50000000E-01  8.50000000E-01  8.50000000E-01  8.50000000E-01  8.50000000E-01
  8.50000000E-01  8.50000000E-01  8.50000000E-01  8.50000000E-01  8.50000000E-01
  8.50000000E-01  8.50000000E-01  8.50000000E-01  8.50000000E-01  8.50000000E-01
  8.50000000E-01  8.50000000E-01  8.50000000E-01  8.50000000E-01  8.50000000E-01
  8.50000000E-01  8.50000000E-01  8.50000000E-01  8.50000000E-01  8.50000000E-01
  8.50000000E-01  8.50000000E-01  8.50000000E-01  8.50000000E-01  8.50000000E-01
  8.50000000E-01  8.50000000E-01  8.50000000E-01  8.50000000E-01  8.50000000E-01
  8.50000000E-01  8.50000000E-01  8.50000000E-01  8.50000000E-01  8.50000000E-01
  8.50000000E-01  8.50000000E-01  8.50000000E-01  8.50000000E-01  8.50000000E-01
  8.50000000E-01  8.50000000E-01  8.50000000E-01  8.50000000E-01  8.50000000E-01
  8.50000000E-01  8.50000000E-01  8.50000000E-01  8.50000000E-01  8.50000000E-01
  8.50000000E-01  8.50000000E-01  8.50000000E-01  8.50000000E-01  8.50000000E-01
  8.50000000E-01  8.50000000E-01  8.50000000E-01  8.50000000E-01  8.50000000E-01
  8.50000000E-01  8.50000000E-01  8.50000000E-01  8.50000000E-01  8.50000000E-01
  8.50000000E-01  8.50000000E-01  8.50000000E-01  8.50000000E-01  8.50000000E-01
  8.50000000E-01  8.50000000E-01  8.50000000E-01  8.50000000E-01  8.50000000E-01
  8.50000000E-01  8.50000000E-01  8.50000000E-01  8.50000000E-01  8.50000000E-01
  8.50000000E-01  8.50000000E-01  8.50000000E-01  8.50000000E-01  8.50000000E-01
  8.50000000E-01  8.50000000E-01  8.50000000E-01  8.50000000E-01  8.50000000E-01
  8.50000000E-01  8.50000000E-01  8.50000000E-01  8.50000000E-01  8.50000000E-01
  8.50000000E-01  8.50000000E-01  8.50000000E-01  8.50000000E-01  8.50000000E-01
  8.50000000E-01  8.50000000E-01  8.50000000E-01  8.50000000E-01  8.50000000E-01
  8.50000000E-01  8.50000000E-01  8.50000000E-01  8.50000000E-01  8.50000000E-01
  8.50000000E-01  8.50000000E-01  8.50000000E-01  8.50000000E-01  8.50000000E-01
  8.50000000E-01  8.50000000E-01  8.50000000E-01  8.50000000E-01  8.50000000E-01
  8.50000000E-01  8.50000000E-01  8.50000000E-01  8.50000000E-01  8.50000000E-01
  8.50000000E-01  8.50000000E-01  8.50000000E-01  8.50000000E-01  8.50000000E-01
  8.50000000E-01  8.50000000E-01  8.50000000E-01  8.50000000E-01  8.50000000E-01
  8.50000000E-01  8.50000000E-01  8.50000000E-01  8.50000000E-01  8.50000000E-01
  8.50000000E-01  8.50000000E-01  8.50000000E-01  8.50000000E-01  8.50000000E-01
  8.50000000E-01  8.50000000E-01  8.50000000E-01  8.50000000E-01  8.50000000E-01
  8.50000000E-01  8.50000000E-01  8.50000000E-01  8.50000000E-01  8.50000000E-01
  8.50000000E-01  8.50000000E-01  8.50000000E-01  8.50000000E-01  8.50000000E-01
  8.50000000E-01  8.50000000E-01  8.50000000E-01  8.50000000E-01  8.50000000E-01
  8.50000000E-01  8.50000000E-01  8.50000000E-01  8.50000000E-01  8.50000000E-01
  8.50000000E-01  8.50000000E-01  8.50000000E-01  8.50000000E-01  8.50000000E-01
  8.50000000E-01  8.50000000E-01  8.50000000E-01  8.50000000E-01  8.50000000E-01
  8.50000000E-01  8.50000000E-01  8.50000000E-01  8.50000000E-01  8.50000000E-01
  8.50000000E-01  8.50000000E-01  8.50000000E-01  8.50000000E-01  8.50000000E-01
  8.50000000E-01  8.50000000E-01  8.50000000E-01  8.50000000E-01  8.50000000E-01
  8.50000000E-01  8.50000000E-01  8.50000000E-01  8.50000000E-01  8.50000000E-01
  8.50000000E-01  8.50000000E-01  8.50000000E-01  8.50000000E-01  8.50000000E-01
  8.50000000E-01  8.50000000E-01  8.50000000E-01  8.50000000E-01  8.50000000E-01
  8.50000000E-01  8.50000000E-01  8.50000000E-01  8.50000000E-01  8.50000000E-01
  8.50000000E-01  8.50000000E-01  8.50000000E-01  8.50000000E-01  8.50000000E-01
  8.50000000E-01  8.50000000E-01  8.50000000E-01  8.50000000E-01  8.50000000E-01
  8.50000000E-01  8.50000000E-01  8.50000000E-01  8.50000000E-01  8.50000000E-01
  8.50000000E-01  8.50000000E-01  8.50000000E-01  8.50000000E-01  8.50000000E-01
  8.50000000E-01  8.50000000E-01  8.50000000E-01  8.50000000E-01  8.50000000E-01
  8.50000000E-01  8.50000000E-01  8.50000000E-01  8.50000000E-01  8.50000000E-01
  8.50000000E-01  8.50000000E-01  8.50000000E-01  8.50000000E-01  8.50000000E-01
  8.50000000E-01  8.50000000E-01  8.50000000E-01  8.50000000E-01  8.50000000E-01
  8.50000000E-01  8.50000000E-01  8.50000000E-01  8.50000000E-01  8.50000000E-01
  8.50000000E-01  8.50000000E-01  8.50000000E-01  8.50000000E-01  8.50000000E-01
  8.50000000E-01  8.50000000E-01  8.50000000E-01  8.50000000E-01  8.50000000E-01
  8.50000000E-01  8.50000000E-01  8.50000000E-01  8.50000000E-01  8.50000000E-01
  8.50000000E-01  8.50000000E-01  8.50000000E-01  8.50000000E-01  8.50000000E-01
  8.50000000E-01  8.50000000E-01  8.50000000E-01  8.50000000E-01  8.50000000E-01
  8.50000000E-01  8.50000000E-01  8.50000000E-01  8.50000000E-01  8.50000000E-01
  8.50000000E-01  8.50000000E-01  8.50000000E-01  8.50000000E-01  8.50000000E-01
  8.50000000E-01  8.50000000E-01  8.50000000E-01  8.50000000E-01  8.50000000E-01
  8.50000000E-01  8.50000000E-01  8.50000000E-01  8.50000000E-01  8.50000000E-01
  8.50000000E-01  8.50000000E-01  8.50000000E-01  8.50000000E-01  8.50000000E-01
  8.50000000E-01  8.50000000E-01  8.50000000E-01  8.50000000E-01  8.50000000E-01
  8.50000000E-01  8.50000000E-01  8.50000000E-01  8.50000000E-01  8.50000000E-01
  8.50000000E-01  8.50000000E-01  8.50000000E-01  8.50000000E-01  8.50000000E-01
  8.50000000E-01  8.50000000E-01  8.50000000E-01  8.50000000E-01  8.50000000E-01
  8.50000000E-01  8.50000000E-01  8.50000000E-01  8.50000000E-01  8.50000000E-01
  8.50000000E-01  8.50000000E-01  8.50000000E-01  8.50000000E-01  8.50000000E-01
  8.50000000E-01  8.50000000E-01  8.50000000E-01  8.50000000E-01  8.50000000E-01
  8.50000000E-01  8.50000000E-01  8.50000000E-01  8.50000000E-01  8.50000000E-01
  8.50000000E-01  8.50000000E-01  8.50000000E-01  8.50000000E-01  8.50000000E-01
  8.50000000E-01  8.50000000E-01  8.50000000E-01  8.50000000E-01  8.50000000E-01
  8.50000000E-01  8.50000000E-01  8.50000000E-01  8.50000000E-01  8.50000000E-01
  8.50000000E-01  8.50000000E-01  8.50000000E-01  8.50000000E-01  8.50000000E-01
  8.50000000E-01  8.50000000E-01  8.50000000E-01  8.50000000E-01  8.50000000E-01
  8.50000000E-01  8.50000000E-01  8.50000000E-01  8.50000000E-01  8.50000000E-01
  8.50000000E-01  8.50000000E-01  8.50000000E-01  8.50000000E-01  8.50000000E-01
  8.50000000E-01  8.50000000E-01  8.50000000E-01  8.50000000E-01  8.50000000E-01
  8.50000000E-01  8.50000000E-01  8.50000000E-01  8.50000000E-01  8.50000000E-01
  8.50000000E-01  8.50000000E-01  8.50000000E-01  8.50000000E-01  8.50000000E-01
  8.50000000E-01  8.50000000E-01  8.50000000E-01  8.50000000E-01  8.50000000E-01
  8.50000000E-01  8.50000000E-01  8.50000000E-01  8.50000000E-01  8.50000000E-01
  8.50000000E-01  8.50000000E-01  8.50000000E-01  8.50000000E-01  8.50000000E-01
  8.50000000E-01  8.50000000E-01  8.50000000E-01  8.50000000E-01  8.50000000E-01
  8.50000000E-01  8.50000000E-01  8.50000000E-01  8.50000000E-01  8.50000000E-01
  8.50000000E-01  8.50000000E-01  8.50000000E-01  8.50000000E-01  8.50000000E-01
  8.50000000E-01  8.50000000E-01  8.50000000E-01  8.50000000E-01  8.50000000E-01
  8.50000000E-01  8.50000000E-01  8.50000000E-01  8.50000000E-01  8.50000000E-01
  8.50000000E-01  8.50000000E-01  8.50000000E-01  8.50000000E-01  8.50000000E-01
  8.50000000E-01  8.50000000E-01  8.50000000E-01  8.50000000E-01  8.50000000E-01
  8.50000000E-01  8.50000000E-01  8.50000000E-01  8.50000000E-01  8.50000000E-01
  8.50000000E-01  8.50000000E-01  8.50000000E-01  8.50000000E-01  8.50000000E-01
  8.50000000E-01  8.50000000E-01  8.50000000E-01  8.50000000E-01  8.50000000E-01
  8.50000000E-01  8.50000000E-01  8.50000000E-01  8.50000000E-01  8.50000000E-01
  8.50000000E-01  8.50000000E-01  8.50000000E-01  8.50000000E-01  8.50000000E-01
  8.50000000E-01  8.50000000E-01  8.50000000E-01  8.50000000E-01  8.50000000E-01
  8.50000000E-01  8.50000000E-01  8.50000000E-01  8.50000000E-01  8.50000000E-01
  8.50000000E-01  8.50000000E-01  8.50000000E-01  8.50000000E-01  8.50000000E-01
  8.50000000E-01  8.50000000E-01  8.50000000E-01  8.50000000E-01  8.50000000E-01
  8.50000000E-01  8.50000000E-01  8.50000000E-01  8.50000000E-01  8.50000000E-01
  8.50000000E-01  8.50000000E-01  8.50000000E-01  8.50000000E-01  8.50000000E-01
  8.50000000E-01  8.50000000E-01  8.50000000E-01  8.50000000E-01  8.50000000E-01
  8.50000000E-01  8.50000000E-01  8.50000000E-01  8.50000000E-01  8.50000000E-01
  8.50000000E-01  8.50000000E-01  8.50000000E-01  8.50000000E-01  8.50000000E-01
  8.50000000E-01  8.50000000E-01  8.50000000E-01  8.50000000E-01  8.50000000E-01
  8.50000000E-01  8.50000000E-01  8.50000000E-01  8.50000000E-01  8.50000000E-01
  8.50000000E-01  8.50000000E-01  8.50000000E-01  8.50000000E-01  8.50000000E-01
  8.50000000E-01  8.50000000E-01  8.50000000E-01  8.50000000E-01  8.50000000E-01
  8.50000000E-01  8.50000000E-01  8.50000000E-01  8.50000000E-01  8.50000000E-01
  8.50000000E-01  8.50000000E-01  8.50000000E-01  8.50000000E-01  8.50000000E-01
  8.50000000E-01  8.50000000E-01  8.50000000E-01  8.50000000E-01  8.50000000E-01
  8.50000000E-01  8.50000000E-01  8.50000000E-01  8.50000000E-01  8.50000000E-01
  8.50000000E-01  8.50000000E-01  8.50000000E-01  8.50000000E-01  8.50000000E-01
  8.50000000E-01  8.50000000E-01  8.50000000E-01  8.50000000E-01  8.50000000E-01
  8.50000000E-01  8.50000000E-01  8.50000000E-01  8.50000000E-01  8.50000000E-01
  8.50000000E-01  8.50000000E-01  8.50000000E-01  8.50000000E-01  8.50000000E-01
  8.50000000E-01  8.50000000E-01  8.50000000E-01  8.50000000E-01  8.50000000E-01
  8.50000000E-01  8.50000000E-01  8.50000000E-01  8.50000000E-01  8.50000000E-01
  8.50000000E-01  8.50000000E-01  8.50000000E-01  8.50000000E-01  8.50000000E-01
  8.50000000E-01  8.50000000E-01  8.50000000E-01  8.50000000E-01  8.50000000E-01
  8.50000000E-01  8.50000000E-01  8.50000000E-01  8.50000000E-01  8.50000000E-01
  8.50000000E-01  8.50000000E-01  8.50000000E-01  8.50000000E-01  8.50000000E-01
  8.50000000E-01  8.50000000E-01  8.50000000E-01  8.50000000E-01  8.50000000E-01
  8.50000000E-01  8.50000000E-01  8.50000000E-01  8.50000000E-01  8.50000000E-01
  8.50000000E-01  8.50000000E-01  8.50000000E-01  8.50000000E-01  8.50000000E-01
  8.50000000E-01  8.50000000E-01  8.50000000E-01  8.50000000E-01  8.50000000E-01
  8.50000000E-01  8.50000000E-01  8.50000000E-01  8.50000000E-01  8.50000000E-01
  8.50000000E-01  8.50000000E-01  8.50000000E-01  8.50000000E-01  8.50000000E-01
  8.50000000E-01  8.50000000E-01  8.50000000E-01  8.50000000E-01  8.50000000E-01
  8.50000000E-01  8.50000000E-01  8.50000000E-01  8.50000000E-01  8.50000000E-01
  8.50000000E-01  8.50000000E-01  8.50000000E-01  8.50000000E-01  8.50000000E-01
  8.50000000E-01  8.50000000E-01  8.50000000E-01  8.50000000E-01  8.50000000E-01
  8.50000000E-01  8.50000000E-01  8.50000000E-01  8.50000000E-01  8.50000000E-01
  8.50000000E-01  8.50000000E-01  8.50000000E-01  8.50000000E-01  8.50000000E-01
  8.50000000E-01  8.50000000E-01  8.50000000E-01  8.50000000E-01  8.50000000E-01
  8.50000000E-01  8.50000000E-01  8.50000000E-01  8.50000000E-01  8.50000000E-01
  8.50000000E-01  8.50000000E-01  8.50000000E-01  8.50000000E-01  8.50000000E-01
  8.50000000E-01  8.50000000E-01  8.50000000E-01  8.50000000E-01  8.50000000E-01
  8.50000000E-01  8.50000000E-01  8.50000000E-01  8.50000000E-01  8.50000000E-01
  8.50000000E-01  8.50000000E-01  8.50000000E-01  8.50000000E-01  8.50000000E-01
  8.50000000E-01  8.50000000E-01  8.50000000E-01  8.50000000E-01  8.50000000E-01
  8.50000000E-01  8.50000000E-01  8.50000000E-01  8.50000000E-01  8.50000000E-01
  8.50000000E-01  8.50000000E-01  8.50000000E-01  8.50000000E-01  8.50000000E-01
  8.50000000E-01  8.50000000E-01  8.50000000E-01  8.50000000E-01  8.50000000E-01
  8.50000000E-01  8.50000000E-01  8.50000000E-01  8.50000000E-01  8.50000000E-01
  8.50000000E-01  8.50000000E-01  8.50000000E-01  8.50000000E-01  8.50000000E-01
  8.50000000E-01  8.50000000E-01  8.50000000E-01  8.50000000E-01  8.50000000E-01
  8.50000000E-01  8.50000000E-01  8.50000000E-01  8.50000000E-01  8.50000000E-01
  8.50000000E-01  8.50000000E-01  8.50000000E-01  8.50000000E-01  8.50000000E-01
  8.50000000E-01  8.50000000E-01  8.50000000E-01  8.50000000E-01  8.50000000E-01
  8.50000000E-01  8.50000000E-01  8.50000000E-01  8.50000000E-01  8.50000000E-01
  8.50000000E-01  8.50000000E-01  8.50000000E-01  8.50000000E-01  8.50000000E-01
  8.50000000E-01  8.50000000E-01  8.50000000E-01  8.50000000E-01  8.50000000E-01
  8.50000000E-01  8.50000000E-01  8.50000000E-01  8.50000000E-01  8.50000000E-01
  8.50000000E-01  8.50000000E-01  8.50000000E-01  8.50000000E-01  8.50000000E-01
  8.50000000E-01  8.50000000E-01  8.50000000E-01  8.50000000E-01  8.50000000E-01
  8.50000000E-01  8.50000000E-01  8.50000000E-01  8.50000000E-01  8.50000000E-01
  8.50000000E-01  8.50000000E-01  8.50000000E-01  8.50000000E-01  8.50000000E-01
  8.50000000E-01  8.50000000E-01  8.50000000E-01  8.50000000E-01  8.50000000E-01
  8.50000000E-01  8.50000000E-01  8.50000000E-01  8.50000000E-01  8.50000000E-01
  8.50000000E-01  8.50000000E-01  8.50000000E-01  8.50000000E-01  8.50000000E-01
  8.50000000E-01  8.50000000E-01  8.50000000E-01  8.50000000E-01  8.50000000E-01
  8.50000000E-01  8.50000000E-01  8.50000000E-01  8.50000000E-01  8.50000000E-01
  8.50000000E-01  8.50000000E-01  8.50000000E-01  8.50000000E-01  8.50000000E-01
  8.50000000E-01  8.50000000E-01  8.50000000E-01  8.50000000E-01  8.50000000E-01
  8.50000000E-01  8.50000000E-01  8.50000000E-01  8.50000000E-01  8.50000000E-01
  8.50000000E-01  8.50000000E-01  8.50000000E-01  8.50000000E-01  8.50000000E-01
  8.50000000E-01  8.50000000E-01  8.50000000E-01  8.50000000E-01  8.50000000E-01
  8.50000000E-01  8.50000000E-01  8.50000000E-01  8.50000000E-01  8.50000000E-01
  8.50000000E-01  8.50000000E-01  8.50000000E-01  8.50000000E-01  8.50000000E-01
  8.50000000E-01  8.50000000E-01  8.50000000E-01  8.50000000E-01  8.50000000E-01
  8.50000000E-01  8.50000000E-01  8.50000000E-01  8.50000000E-01  8.50000000E-01
  8.50000000E-01  8.50000000E-01  8.50000000E-01  8.50000000E-01  8.50000000E-01
  8.50000000E-01  8.50000000E-01  8.50000000E-01  8.50000000E-01  8.50000000E-01
  8.50000000E-01  8.50000000E-01  8.50000000E-01  8.50000000E-01  8.50000000E-01
  8.50000000E-01  8.50000000E-01  8.50000000E-01  8.50000000E-01  8.50000000E-01
  8.50000000E-01  8.50000000E-01  8.50000000E-01  8.50000000E-01  8.50000000E-01
  8.50000000E-01  8.50000000E-01  8.50000000E-01  8.50000000E-01  8.50000000E-01
  8.50000000E-01  8.50000000E-01  8.50000000E-01  8.50000000E-01  8.50000000E-01
  8.50000000E-01  8.50000000E-01  8.50000000E-01  8.50000000E-01  8.50000000E-01
  8.50000000E-01  8.50000000E-01  8.50000000E-01  8.50000000E-01  8.50000000E-01
  8.50000000E-01  8.50000000E-01  8.50000000E-01  8.50000000E-01  8.50000000E-01
  8.50000000E-01  8.50000000E-01  8.50000000E-01  8.50000000E-01  8.50000000E-01
  8.50000000E-01  8.50000000E-01  8.50000000E-01  8.50000000E-01  8.50000000E-01
  8.50000000E-01  8.50000000E-01  8.50000000E-01  8.50000000E-01  8.50000000E-01
  8.50000000E-01  8.50000000E-01  8.50000000E-01  8.50000000E-01  8.50000000E-01
  8.50000000E-01  8.50000000E-01  8.50000000E-01  8.50000000E-01  8.50000000E-01
  8.50000000E-01  8.50000000E-01  8.50000000E-01  8.50000000E-01  8.50000000E-01
  8.50000000E-01  8.50000000E-01  8.50000000E-01  8.50000000E-01  8.50000000E-01
  8.50000000E-01  8.50000000E-01  8.50000000E-01  8.50000000E-01  8.50000000E-01
  8.50000000E-01  8.50000000E-01  8.50000000E-01  8.50000000E-01  8.50000000E-01
  8.50000000E-01  8.50000000E-01  8.50000000E-01  8.50000000E-01  8.50000000E-01
  8.50000000E-01  8.50000000E-01  8.50000000E-01  8.50000000E-01  8.50000000E-01
  8.50000000E-01  8.50000000E-01  8.50000000E-01  8.50000000E-01  8.50000000E-01
  8.50000000E-01  8.50000000E-01  8.50000000E-01  8.50000000E-01  8.50000000E-01
  8.50000000E-01  8.50000000E-01  8.50000000E-01  8.50000000E-01  8.50000000E-01
  8.50000000E-01  8.50000000E-01  8.50000000E-01  8.50000000E-01  8.50000000E-01
  8.50000000E-01  8.50000000E-01  8.50000000E-01  8.50000000E-01  8.50000000E-01
  8.50000000E-01  8.50000000E-01  8.50000000E-01  8.50000000E-01  8.50000000E-01
  8.50000000E-01  8.50000000E-01  8.50000000E-01  8.50000000E-01  8.50000000E-01
  8.50000000E-01  8.50000000E-01  8.50000000E-01  8.50000000E-01  8.50000000E-01
  8.50000000E-01  8.50000000E-01  8.50000000E-01  8.50000000E-01  8.50000000E-01
  8.50000000E-01  8.50000000E-01  8.50000000E-01  8.50000000E-01  8.50000000E-01
  8.50000000E-01  8.50000000E-01  8.50000000E-01  8.50000000E-01  8.50000000E-01
  8.50000000E-01  8.50000000E-01  8.50000000E-01  8.50000000E-01  8.50000000E-01
  8.50000000E-01  8.50000000E-01  8.50000000E-01  8.50000000E-01  8.50000000E-01
  8.50000000E-01  8.50000000E-01  8.50000000E-01  8.50000000E-01  8.50000000E-01
  8.50000000E-01  8.50000000E-01  8.50000000E-01  8.50000000E-01  8.50000000E-01
  8.50000000E-01  8.50000000E-01  8.50000000E-01  8.50000000E-01  8.50000000E-01
  8.50000000E-01  8.50000000E-01  8.50000000E-01  8.50000000E-01  8.50000000E-01
  8.50000000E-01  8.50000000E-01  8.50000000E-01  8.50000000E-01  8.50000000E-01
  8.50000000E-01  8.50000000E-01  8.50000000E-01  8.50000000E-01  8.50000000E-01
  8.50000000E-01  8.50000000E-01  8.50000000E-01  8.50000000E-01  8.50000000E-01
  8.50000000E-01  8.50000000E-01  8.50000000E-01  8.50000000E-01  8.50000000E-01
  8.50000000E-01  8.50000000E-01  8.50000000E-01  8.50000000E-01  8.50000000E-01
  8.50000000E-01  8.50000000E-01  8.50000000E-01  8.50000000E-01  8.50000000E-01
  8.50000000E-01  8.50000000E-01  8.50000000E-01  8.50000000E-01  8.50000000E-01
  8.50000000E-01  8.50000000E-01  8.50000000E-01  8.50000000E-01  8.50000000E-01
  8.50000000E-01  8.50000000E-01  8.50000000E-01  8.50000000E-01  8.50000000E-01
  8.50000000E-01  8.50000000E-01  8.50000000E-01  8.50000000E-01  8.50000000E-01
  8.50000000E-01  8.50000000E-01  8.50000000E-01  8.50000000E-01  8.50000000E-01
  8.50000000E-01  8.50000000E-01  8.50000000E-01  8.50000000E-01  8.50000000E-01
  8.50000000E-01  8.50000000E-01  8.50000000E-01  8.50000000E-01  8.50000000E-01
  8.50000000E-01  8.50000000E-01  8.50000000E-01  8.50000000E-01  8.50000000E-01
  8.50000000E-01  8.50000000E-01  8.50000000E-01  8.50000000E-01  8.50000000E-01
  8.50000000E-01  8.50000000E-01  8.50000000E-01  8.50000000E-01  8.50000000E-01
  8.50000000E-01  8.50000000E-01  8.50000000E-01  8.50000000E-01  8.50000000E-01
  8.50000000E-01  8.50000000E-01  8.50000000E-01  8.50000000E-01  8.50000000E-01
  8.50000000E-01  8.50000000E-01  8.50000000E-01  8.50000000E-01  8.50000000E-01
  8.50000000E-01  8.50000000E-01  8.50000000E-01  8.50000000E-01  8.50000000E-01
  8.50000000E-01  8.50000000E-01  8.50000000E-01  8.50000000E-01  8.50000000E-01
  8.50000000E-01  8.50000000E-01  8.50000000E-01  8.50000000E-01  8.50000000E-01
  8.50000000E-01  8.50000000E-01  8.50000000E-01  8.50000000E-01  8.50000000E-01
  8.50000000E-01  8.50000000E-01  8.50000000E-01  8.50000000E-01  8.50000000E-01
  8.50000000E-01  8.50000000E-01  8.50000000E-01  8.50000000E-01  8.50000000E-01
  8.50000000E-01  8.50000000E-01  8.50000000E-01  8.50000000E-01  8.50000000E-01
  8.50000000E-01  8.50000000E-01  8.50000000E-01  8.50000000E-01  8.50000000E-01
  8.50000000E-01  8.50000000E-01  8.50000000E-01  8.50000000E-01  8.50000000E-01
  8.50000000E-01  8.50000000E-01  8.50000000E-01  8.50000000E-01  8.50000000E-01
  8.50000000E-01  8.50000000E-01  8.50000000E-01  8.50000000E-01  8.50000000E-01
  8.50000000E-01  8.50000000E-01  8.50000000E-01  8.50000000E-01  8.50000000E-01
  8.50000000E-01  8.50000000E-01  8.50000000E-01  8.50000000E-01  8.50000000E-01
  8.50000000E-01  8.50000000E-01  8.50000000E-01  8.50000000E-01  8.50000000E-01
  8.50000000E-01  8.50000000E-01  8.50000000E-01  8.50000000E-01  8.50000000E-01
  8.50000000E-01  8.50000000E-01  8.50000000E-01  8.50000000E-01  8.50000000E-01
  8.50000000E-01  8.50000000E-01  8.50000000E-01  8.50000000E-01  8.50000000E-01
  8.50000000E-01  8.50000000E-01  8.50000000E-01  8.50000000E-01  8.50000000E-01
  8.50000000E-01  8.50000000E-01  8.50000000E-01  8.50000000E-01  8.50000000E-01
  8.50000000E-01  8.50000000E-01  8.50000000E-01  8.50000000E-01  8.50000000E-01
  8.50000000E-01  8.50000000E-01  8.50000000E-01  8.50000000E-01  8.50000000E-01
  8.50000000E-01  8.50000000E-01  8.50000000E-01  8.50000000E-01  8.50000000E-01
  8.50000000E-01  8.50000000E-01  8.50000000E-01  8.50000000E-01  8.50000000E-01
  8.50000000E-01  8.50000000E-01  8.50000000E-01  8.50000000E-01  8.50000000E-01
  8.50000000E-01  8.50000000E-01  8.50000000E-01  8.50000000E-01  8.50000000E-01
  8.50000000E-01  8.50000000E-01  8.50000000E-01  8.50000000E-01  8.50000000E-01
  8.50000000E-01  8.50000000E-01  8.50000000E-01  8.50000000E-01  8.50000000E-01
  8.50000000E-01  8.50000000E-01  8.50000000E-01  8.50000000E-01  8.50000000E-01
  8.50000000E-01  8.50000000E-01  8.50000000E-01  8.50000000E-01  8.50000000E-01
  8.50000000E-01  8.50000000E-01  8.50000000E-01  8.50000000E-01  8.50000000E-01
  8.50000000E-01  8.50000000E-01  8.50000000E-01  8.50000000E-01  8.50000000E-01
  8.50000000E-01  8.50000000E-01  8.50000000E-01  8.50000000E-01  8.50000000E-01
  8.50000000E-01  8.50000000E-01  8.50000000E-01  8.50000000E-01  8.50000000E-01
  8.50000000E-01  8.50000000E-01  8.50000000E-01  8.50000000E-01  8.50000000E-01
  8.50000000E-01  8.50000000E-01  8.50000000E-01  8.50000000E-01  8.50000000E-01
  8.50000000E-01  8.50000000E-01  8.50000000E-01  8.50000000E-01  8.50000000E-01
  8.50000000E-01  8.50000000E-01  8.50000000E-01  8.50000000E-01  8.50000000E-01
  8.50000000E-01  8.50000000E-01  8.50000000E-01  8.50000000E-01  8.50000000E-01
  8.50000000E-01  8.50000000E-01  8.50000000E-01  8.50000000E-01  8.50000000E-01
  8.50000000E-01  8.50000000E-01  8.50000000E-01  8.50000000E-01  8.50000000E-01
  8.50000000E-01  8.50000000E-01  8.50000000E-01  8.50000000E-01  8.50000000E-01
  8.50000000E-01  8.50000000E-01  8.50000000E-01  8.50000000E-01  8.50000000E-01
  8.50000000E-01  8.50000000E-01  8.50000000E-01  8.50000000E-01  8.50000000E-01
  8.50000000E-01  8.50000000E-01  8.50000000E-01  8.50000000E-01  8.50000000E-01
  8.50000000E-01  8.50000000E-01  8.50000000E-01  8.50000000E-01  8.50000000E-01
  8.50000000E-01  8.50000000E-01  8.50000000E-01  8.50000000E-01  8.50000000E-01
  8.50000000E-01  8.50000000E-01  8.50000000E-01  8.50000000E-01  8.50000000E-01
  8.50000000E-01  8.50000000E-01  8.50000000E-01  8.50000000E-01  8.50000000E-01
  8.50000000E-01  8.50000000E-01  8.50000000E-01  8.50000000E-01  8.50000000E-01
  8.50000000E-01  8.50000000E-01  8.50000000E-01  8.50000000E-01  8.50000000E-01
  8.50000000E-01  8.50000000E-01  8.50000000E-01  8.50000000E-01  8.50000000E-01
  8.50000000E-01  8.50000000E-01  8.50000000E-01  8.50000000E-01  8.50000000E-01
  8.50000000E-01  8.50000000E-01  8.50000000E-01  8.50000000E-01  8.50000000E-01
  8.50000000E-01  8.50000000E-01  8.50000000E-01  8.50000000E-01  8.50000000E-01
  8.50000000E-01  8.50000000E-01  8.50000000E-01  8.50000000E-01  8.50000000E-01
  8.50000000E-01  8.50000000E-01  8.50000000E-01  8.50000000E-01  8.50000000E-01
  8.50000000E-01  8.50000000E-01  8.50000000E-01  8.50000000E-01  8.50000000E-01
  8.50000000E-01  8.50000000E-01  8.50000000E-01  8.50000000E-01  8.50000000E-01
  8.50000000E-01  8.50000000E-01  8.50000000E-01  8.50000000E-01  8.50000000E-01
  8.50000000E-01  8.50000000E-01  8.50000000E-01  8.50000000E-01  8.50000000E-01
  8.50000000E-01  8.50000000E-01  8.50000000E-01  8.50000000E-01  8.50000000E-01
  8.50000000E-01  8.50000000E-01  8.50000000E-01  8.50000000E-01  8.50000000E-01
  8.50000000E-01  8.50000000E-01  8.50000000E-01  8.50000000E-01  8.50000000E-01
  8.50000000E-01  8.50000000E-01  8.50000000E-01  8.50000000E-01  8.50000000E-01
  8.50000000E-01  8.50000000E-01  8.50000000E-01  8.50000000E-01  8.50000000E-01
  8.50000000E-01  8.50000000E-01  8.50000000E-01  8.50000000E-01  8.50000000E-01
  8.50000000E-01  8.50000000E-01  8.50000000E-01  8.50000000E-01  8.50000000E-01
  8.50000000E-01  8.50000000E-01  8.50000000E-01  8.50000000E-01  8.50000000E-01
  8.50000000E-01  8.50000000E-01  8.50000000E-01  8.50000000E-01  8.50000000E-01
  8.50000000E-01  8.50000000E-01  8.50000000E-01  8.50000000E-01  8.50000000E-01
  8.50000000E-01  8.50000000E-01  8.50000000E-01  8.50000000E-01  8.50000000E-01
  8.50000000E-01  8.50000000E-01  8.50000000E-01  8.50000000E-01  8.50000000E-01
  8.50000000E-01  8.50000000E-01  8.50000000E-01  8.50000000E-01  8.50000000E-01
  8.50000000E-01  8.50000000E-01  8.50000000E-01  8.50000000E-01  8.50000000E-01
  8.50000000E-01  8.50000000E-01  8.50000000E-01  8.50000000E-01  8.50000000E-01
  8.50000000E-01  8.50000000E-01  8.50000000E-01  8.50000000E-01  8.50000000E-01
  8.50000000E-01  8.50000000E-01  8.50000000E-01  8.50000000E-01  8.50000000E-01
  8.50000000E-01  8.50000000E-01  8.50000000E-01  8.50000000E-01  8.50000000E-01
  8.50000000E-01  8.50000000E-01  8.50000000E-01  8.50000000E-01  8.50000000E-01
  8.50000000E-01  8.50000000E-01  8.50000000E-01  8.50000000E-01  8.50000000E-01
  8.50000000E-01  8.50000000E-01  8.50000000E-01  8.50000000E-01  8.50000000E-01
  8.50000000E-01  8.50000000E-01  8.50000000E-01  8.50000000E-01  8.50000000E-01
  8.50000000E-01  8.50000000E-01  8.50000000E-01  8.50000000E-01  8.50000000E-01
  8.50000000E-01  8.50000000E-01  8.50000000E-01  8.50000000E-01  8.50000000E-01
  8.50000000E-01  8.50000000E-01  8.50000000E-01  8.50000000E-01  8.50000000E-01
  8.50000000E-01  8.50000000E-01  8.50000000E-01  8.50000000E-01  8.50000000E-01
  8.50000000E-01  8.50000000E-01  8.50000000E-01  8.50000000E-01  8.50000000E-01
  8.50000000E-01  8.50000000E-01  8.50000000E-01  8.50000000E-01  8.50000000E-01
  8.50000000E-01  8.50000000E-01  8.50000000E-01  8.50000000E-01  8.50000000E-01
  8.50000000E-01  8.50000000E-01  8.50000000E-01  8.50000000E-01  8.50000000E-01
  8.50000000E-01  8.50000000E-01  8.50000000E-01  8.50000000E-01  8.50000000E-01
  8.50000000E-01  8.50000000E-01  8.50000000E-01  8.50000000E-01  8.50000000E-01
  8.50000000E-01  8.50000000E-01  8.50000000E-01  8.50000000E-01  8.50000000E-01
  8.50000000E-01  8.50000000E-01  8.50000000E-01  8.50000000E-01  8.50000000E-01
  8.50000000E-01  8.50000000E-01  8.50000000E-01  8.50000000E-01  8.50000000E-01
  8.50000000E-01  8.50000000E-01  8.50000000E-01  8.50000000E-01  8.50000000E-01
  8.50000000E-01  8.50000000E-01  8.50000000E-01  8.50000000E-01  8.50000000E-01
  8.50000000E-01  8.50000000E-01  8.50000000E-01  8.50000000E-01  8.50000000E-01
  8.50000000E-01  8.50000000E-01  8.50000000E-01  8.50000000E-01  8.50000000E-01
  8.50000000E-01  8.50000000E-01  8.50000000E-01  8.50000000E-01  8.50000000E-01
  8.50000000E-01  8.50000000E-01  8.50000000E-01  8.50000000E-01  8.50000000E-01
  8.50000000E-01  8.50000000E-01  8.50000000E-01  8.50000000E-01  8.50000000E-01
  8.50000000E-01  8.50000000E-01  8.50000000E-01  8.50000000E-01  8.50000000E-01
  8.50000000E-01  8.50000000E-01  8.50000000E-01  8.50000000E-01  8.50000000E-01
  8.50000000E-01  8.50000000E-01  8.50000000E-01  8.50000000E-01  8.50000000E-01
  8.50000000E-01  8.50000000E-01  8.50000000E-01  8.50000000E-01  8.50000000E-01
  8.50000000E-01  8.50000000E-01  8.50000000E-01  8.50000000E-01  8.50000000E-01
  8.50000000E-01  8.50000000E-01  8.50000000E-01  8.50000000E-01  8.50000000E-01
  8.50000000E-01  8.50000000E-01  8.50000000E-01  8.50000000E-01  8.50000000E-01
  8.50000000E-01  8.50000000E-01  8.50000000E-01  8.50000000E-01  8.50000000E-01
  8.50000000E-01  8.50000000E-01  8.50000000E-01  8.50000000E-01  8.50000000E-01
  8.50000000E-01  8.50000000E-01  8.50000000E-01  8.50000000E-01  8.50000000E-01
  8.50000000E-01  8.50000000E-01  8.50000000E-01  8.50000000E-01  8.50000000E-01
  8.50000000E-01  8.50000000E-01  8.50000000E-01  8.50000000E-01  8.50000000E-01
  8.50000000E-01  8.50000000E-01  8.50000000E-01  8.50000000E-01  8.50000000E-01
  8.50000000E-01  8.50000000E-01  8.50000000E-01  8.50000000E-01  8.50000000E-01
  8.50000000E-01  8.50000000E-01  8.50000000E-01  8.50000000E-01  8.50000000E-01
  8.50000000E-01  8.50000000E-01  8.50000000E-01  8.50000000E-01  8.50000000E-01
  8.50000000E-01  8.50000000E-01  8.50000000E-01  8.50000000E-01  8.50000000E-01
  8.50000000E-01  8.50000000E-01  8.50000000E-01  8.50000000E-01  8.50000000E-01
  8.50000000E-01  8.50000000E-01  8.50000000E-01  8.50000000E-01  8.50000000E-01
  8.50000000E-01  8.50000000E-01  8.50000000E-01  8.50000000E-01  8.50000000E-01
  8.50000000E-01  8.50000000E-01  8.50000000E-01  8.50000000E-01  8.50000000E-01
  8.50000000E-01  8.50000000E-01  8.50000000E-01  8.50000000E-01  8.50000000E-01
  8.50000000E-01  8.50000000E-01  8.50000000E-01  8.50000000E-01  8.50000000E-01
  8.50000000E-01  8.50000000E-01  8.50000000E-01  8.50000000E-01  8.50000000E-01
  8.50000000E-01  8.50000000E-01  8.50000000E-01  8.50000000E-01  8.50000000E-01
  8.50000000E-01  8.50000000E-01  8.50000000E-01  8.50000000E-01  8.50000000E-01
  8.50000000E-01  8.50000000E-01  8.50000000E-01  8.50000000E-01  8.50000000E-01
  8.50000000E-01  8.50000000E-01  8.50000000E-01  8.50000000E-01  8.50000000E-01
  8.50000000E-01  8.50000000E-01  8.50000000E-01  8.50000000E-01  8.50000000E-01
  8.50000000E-01  8.50000000E-01  8.50000000E-01  8.50000000E-01  8.50000000E-01
  8.50000000E-01  8.50000000E-01  8.50000000E-01  8.50000000E-01  8.50000000E-01
  8.50000000E-01  8.50000000E-01  8.50000000E-01  8.50000000E-01  8.50000000E-01
  8.50000000E-01  8.50000000E-01  8.50000000E-01  8.50000000E-01  8.50000000E-01
  8.50000000E-01  8.50000000E-01  8.50000000E-01  8.50000000E-01  8.50000000E-01
  8.50000000E-01  8.50000000E-01  8.50000000E-01  8.50000000E-01  8.50000000E-01
  8.50000000E-01  8.50000000E-01  8.50000000E-01  8.50000000E-01  8.50000000E-01
  8.50000000E-01  8.50000000E-01  8.50000000E-01  8.50000000E-01  8.50000000E-01
  8.50000000E-01  8.50000000E-01  8.50000000E-01  8.50000000E-01  8.50000000E-01
  8.50000000E-01  8.50000000E-01  8.50000000E-01  8.50000000E-01  8.50000000E-01
  8.50000000E-01  8.50000000E-01  8.50000000E-01  8.50000000E-01  8.50000000E-01
  8.50000000E-01  8.50000000E-01  8.50000000E-01  8.50000000E-01  8.50000000E-01
  8.50000000E-01  8.50000000E-01  8.50000000E-01  8.50000000E-01  8.50000000E-01
  8.50000000E-01  8.50000000E-01  8.50000000E-01  8.50000000E-01  8.50000000E-01
  8.50000000E-01  8.50000000E-01  8.50000000E-01  8.50000000E-01  8.50000000E-01
  8.50000000E-01  8.50000000E-01  8.50000000E-01  8.50000000E-01  8.50000000E-01
  8.50000000E-01  8.50000000E-01  8.50000000E-01  8.50000000E-01  8.50000000E-01
  8.50000000E-01  8.50000000E-01  8.50000000E-01  8.50000000E-01  8.50000000E-01
  8.50000000E-01  8.50000000E-01  8.50000000E-01  8.50000000E-01  8.50000000E-01
  8.50000000E-01  8.50000000E-01  8.50000000E-01  8.50000000E-01  8.50000000E-01
  8.50000000E-01  8.50000000E-01  8.50000000E-01  8.50000000E-01  8.50000000E-01
  8.50000000E-01  8.50000000E-01  8.50000000E-01  8.50000000E-01  8.50000000E-01
  8.50000000E-01  8.50000000E-01  8.50000000E-01  8.50000000E-01  8.50000000E-01
  8.50000000E-01  8.50000000E-01  8.50000000E-01  8.50000000E-01  8.50000000E-01
  8.50000000E-01  8.50000000E-01  8.50000000E-01  8.50000000E-01  8.50000000E-01
  8.50000000E-01  8.50000000E-01  8.50000000E-01  8.50000000E-01  8.50000000E-01
  8.50000000E-01  8.50000000E-01  8.50000000E-01  8.50000000E-01  8.50000000E-01
  8.50000000E-01  8.50000000E-01  8.50000000E-01  8.50000000E-01  8.50000000E-01
  8.50000000E-01  8.50000000E-01  8.50000000E-01  8.50000000E-01  8.50000000E-01
  8.50000000E-01  8.50000000E-01  8.50000000E-01  8.50000000E-01  8.50000000E-01
  8.50000000E-01  8.50000000E-01  8.50000000E-01  8.50000000E-01  8.50000000E-01
  8.50000000E-01  8.50000000E-01  8.50000000E-01  8.50000000E-01  8.50000000E-01
  8.50000000E-01  8.50000000E-01  8.50000000E-01  8.50000000E-01  8.50000000E-01
  8.50000000E-01  8.50000000E-01  8.50000000E-01  8.50000000E-01  8.50000000E-01
  8.50000000E-01  8.50000000E-01  8.50000000E-01  8.50000000E-01  8.50000000E-01
  8.50000000E-01  8.50000000E-01  8.50000000E-01  8.50000000E-01  8.50000000E-01
  8.50000000E-01  8.50000000E-01  8.50000000E-01  8.50000000E-01  8.50000000E-01
  8.50000000E-01  8.50000000E-01  8.50000000E-01  8.50000000E-01  8.50000000E-01
  8.50000000E-01  8.50000000E-01  8.50000000E-01  8.50000000E-01  8.50000000E-01
  8.50000000E-01  8.50000000E-01  8.50000000E-01  8.50000000E-01  8.50000000E-01
  8.50000000E-01  8.50000000E-01  8.50000000E-01  8.50000000E-01  8.50000000E-01
  8.50000000E-01  8.50000000E-01  8.50000000E-01  8.50000000E-01  8.50000000E-01
  8.50000000E-01  8.50000000E-01  8.50000000E-01  8.50000000E-01  8.50000000E-01
  8.50000000E-01  8.50000000E-01  8.50000000E-01  8.50000000E-01  8.50000000E-01
  8.50000000E-01  8.50000000E-01  8.50000000E-01  8.50000000E-01  8.50000000E-01
  8.50000000E-01  8.50000000E-01  8.50000000E-01  8.50000000E-01  8.50000000E-01
  8.50000000E-01  8.50000000E-01  8.50000000E-01  8.50000000E-01  8.50000000E-01
  8.50000000E-01  8.50000000E-01  8.50000000E-01  8.50000000E-01  8.50000000E-01
  8.50000000E-01  8.50000000E-01  8.50000000E-01  8.50000000E-01  8.50000000E-01
  8.50000000E-01  8.50000000E-01  8.50000000E-01  8.50000000E-01  8.50000000E-01
  8.50000000E-01  8.50000000E-01  8.50000000E-01  8.50000000E-01  8.50000000E-01
  8.50000000E-01  8.50000000E-01  8.50000000E-01  8.50000000E-01  8.50000000E-01
  8.50000000E-01  8.50000000E-01  8.50000000E-01  8.50000000E-01  8.50000000E-01
  8.50000000E-01  8.50000000E-01  8.50000000E-01  8.50000000E-01  8.50000000E-01
  8.50000000E-01  8.50000000E-01  8.50000000E-01  8.50000000E-01  8.50000000E-01
  8.50000000E-01  8.50000000E-01  8.50000000E-01  8.50000000E-01  8.50000000E-01
  8.50000000E-01  8.50000000E-01  8.50000000E-01  8.50000000E-01  8.50000000E-01
  8.50000000E-01  8.50000000E-01  8.50000000E-01  8.50000000E-01  8.50000000E-01
  8.50000000E-01  8.50000000E-01  8.50000000E-01  8.50000000E-01  8.50000000E-01
  8.50000000E-01  8.50000000E-01  8.50000000E-01  8.50000000E-01  8.50000000E-01
  8.50000000E-01  8.50000000E-01  8.50000000E-01  8.50000000E-01  8.50000000E-01
  8.50000000E-01  8.50000000E-01  8.50000000E-01  8.50000000E-01  8.50000000E-01
  8.50000000E-01  8.50000000E-01  8.50000000E-01  8.50000000E-01  8.50000000E-01
  8.50000000E-01  8.50000000E-01  8.50000000E-01  8.50000000E-01  8.50000000E-01
  8.50000000E-01  8.50000000E-01  8.50000000E-01  8.50000000E-01  8.50000000E-01
  8.50000000E-01  8.50000000E-01  8.50000000E-01  8.50000000E-01  8.50000000E-01
  8.50000000E-01  8.50000000E-01  8.50000000E-01  8.50000000E-01  8.50000000E-01
  8.50000000E-01  8.50000000E-01  8.50000000E-01  8.50000000E-01  8.50000000E-01
  8.50000000E-01  8.50000000E-01  8.50000000E-01  8.50000000E-01  8.50000000E-01
  8.50000000E-01  8.50000000E-01  8.50000000E-01  8.50000000E-01  8.50000000E-01
  8.50000000E-01  8.50000000E-01  8.50000000E-01  8.50000000E-01  8.50000000E-01
  8.50000000E-01  8.50000000E-01  8.50000000E-01  8.50000000E-01  8.50000000E-01
  8.50000000E-01  8.50000000E-01  8.50000000E-01  8.50000000E-01  8.50000000E-01
  8.50000000E-01  8.50000000E-01  8.50000000E-01  8.50000000E-01  8.50000000E-01
  8.50000000E-01  8.50000000E-01  8.50000000E-01  8.50000000E-01  8.50000000E-01
  8.50000000E-01  8.50000000E-01  8.50000000E-01  8.50000000E-01  8.50000000E-01
  8.50000000E-01  8.50000000E-01  8.50000000E-01  8.50000000E-01  8.50000000E-01
  8.50000000E-01  8.50000000E-01  8.50000000E-01  8.50000000E-01  8.50000000E-01
  8.50000000E-01  8.50000000E-01  8.50000000E-01  8.50000000E-01  8.50000000E-01
  8.50000000E-01  8.50000000E-01  8.50000000E-01  8.50000000E-01  8.50000000E-01
  8.50000000E-01  8.50000000E-01  8.50000000E-01  8.50000000E-01  8.50000000E-01
  8.50000000E-01  8.50000000E-01  8.50000000E-01  8.50000000E-01  8.50000000E-01
  8.50000000E-01  8.50000000E-01  8.50000000E-01  8.50000000E-01  8.50000000E-01
  8.50000000E-01  8.50000000E-01  8.50000000E-01  8.50000000E-01  8.50000000E-01
  8.50000000E-01  8.50000000E-01  8.50000000E-01  8.50000000E-01  8.50000000E-01
  8.50000000E-01  8.50000000E-01  8.50000000E-01  8.50000000E-01  8.50000000E-01
  8.50000000E-01  8.50000000E-01  8.50000000E-01  8.50000000E-01  8.50000000E-01
  8.50000000E-01  8.50000000E-01  8.50000000E-01  8.50000000E-01  8.50000000E-01
  8.50000000E-01  8.50000000E-01  8.50000000E-01  8.50000000E-01  8.50000000E-01
  8.50000000E-01  8.50000000E-01  8.50000000E-01  8.50000000E-01  8.50000000E-01
  8.50000000E-01  8.50000000E-01  8.50000000E-01  8.50000000E-01  8.50000000E-01
  8.50000000E-01  8.50000000E-01  8.50000000E-01  8.50000000E-01  8.50000000E-01
  8.50000000E-01  8.50000000E-01  8.50000000E-01  8.50000000E-01  8.50000000E-01
  8.50000000E-01  8.50000000E-01  8.50000000E-01  8.50000000E-01  8.50000000E-01
  8.50000000E-01  8.50000000E-01  8.50000000E-01  8.50000000E-01  8.50000000E-01
  8.50000000E-01  8.50000000E-01  8.50000000E-01  8.50000000E-01  8.50000000E-01
  8.50000000E-01  8.50000000E-01  8.50000000E-01  8.50000000E-01  8.50000000E-01
  8.50000000E-01  8.50000000E-01  8.50000000E-01  8.50000000E-01  8.50000000E-01
  8.50000000E-01  8.50000000E-01  8.50000000E-01  8.50000000E-01  8.50000000E-01
  8.50000000E-01  8.50000000E-01  8.50000000E-01  8.50000000E-01  8.50000000E-01
  8.50000000E-01  8.50000000E-01  8.50000000E-01  8.50000000E-01  8.50000000E-01
  8.50000000E-01  8.50000000E-01  8.50000000E-01  8.50000000E-01  8.50000000E-01
  8.50000000E-01  8.50000000E-01  8.50000000E-01  8.50000000E-01  8.50000000E-01
  8.50000000E-01  8.50000000E-01  8.50000000E-01  8.50000000E-01  8.50000000E-01
  8.50000000E-01  8.50000000E-01  8.50000000E-01  8.50000000E-01  8.50000000E-01
  8.50000000E-01  8.50000000E-01  8.50000000E-01  8.50000000E-01  8.50000000E-01
  8.50000000E-01  8.50000000E-01  8.50000000E-01  8.50000000E-01  8.50000000E-01
  8.50000000E-01  8.50000000E-01  8.50000000E-01  8.50000000E-01  8.50000000E-01
  8.50000000E-01  8.50000000E-01  8.50000000E-01  8.50000000E-01  8.50000000E-01
  8.50000000E-01  8.50000000E-01  8.50000000E-01  8.50000000E-01  8.50000000E-01
  8.50000000E-01  8.50000000E-01  8.50000000E-01  8.50000000E-01  8.50000000E-01
  8.50000000E-01  8.50000000E-01  8.50000000E-01  8.50000000E-01  8.50000000E-01
  8.50000000E-01  8.50000000E-01  8.50000000E-01  8.50000000E-01  8.50000000E-01
  8.50000000E-01  8.50000000E-01  8.50000000E-01  8.50000000E-01  8.50000000E-01
  8.50000000E-01  8.50000000E-01  8.50000000E-01  8.50000000E-01  8.50000000E-01
  8.50000000E-01  8.50000000E-01  8.50000000E-01  8.50000000E-01  8.50000000E-01
  8.50000000E-01  8.50000000E-01  8.50000000E-01  8.50000000E-01  8.50000000E-01
  8.50000000E-01  8.50000000E-01  8.50000000E-01  8.50000000E-01  8.50000000E-01
  8.50000000E-01  8.50000000E-01  8.50000000E-01  8.50000000E-01  8.50000000E-01
  8.50000000E-01  8.50000000E-01  8.50000000E-01  8.50000000E-01  8.50000000E-01
  8.50000000E-01  8.50000000E-01  8.50000000E-01  8.50000000E-01  8.50000000E-01
  8.50000000E-01  8.50000000E-01  8.50000000E-01  8.50000000E-01  8.50000000E-01
  8.50000000E-01  8.50000000E-01  8.50000000E-01  8.50000000E-01  8.50000000E-01
  8.50000000E-01  8.50000000E-01  8.50000000E-01  8.50000000E-01  8.50000000E-01
  8.50000000E-01  8.50000000E-01  8.50000000E-01  8.50000000E-01  8.50000000E-01
  8.50000000E-01  8.50000000E-01  8.50000000E-01  8.50000000E-01  8.50000000E-01
  8.50000000E-01  8.50000000E-01  8.50000000E-01  8.50000000E-01  8.50000000E-01
  8.50000000E-01  8.50000000E-01  8.50000000E-01  8.50000000E-01  8.50000000E-01
  8.50000000E-01  8.50000000E-01  8.50000000E-01  8.50000000E-01  8.50000000E-01
  8.50000000E-01  8.50000000E-01  8.50000000E-01  8.50000000E-01  8.50000000E-01
  8.50000000E-01  8.50000000E-01  8.50000000E-01  8.50000000E-01  8.50000000E-01
  8.50000000E-01  8.50000000E-01  8.50000000E-01  8.50000000E-01  8.50000000E-01
  8.50000000E-01  8.50000000E-01  8.50000000E-01  8.50000000E-01  8.50000000E-01
  8.50000000E-01  8.50000000E-01  8.50000000E-01  8.50000000E-01  8.50000000E-01
  8.50000000E-01  8.50000000E-01  8.50000000E-01  8.50000000E-01  8.50000000E-01
  8.50000000E-01  8.50000000E-01  8.50000000E-01  8.50000000E-01  8.50000000E-01
  8.50000000E-01  8.50000000E-01  8.50000000E-01  8.50000000E-01  8.50000000E-01
  8.50000000E-01  8.50000000E-01  8.50000000E-01  8.50000000E-01  8.50000000E-01
  8.50000000E-01  8.50000000E-01  8.50000000E-01  8.50000000E-01  8.50000000E-01
  8.50000000E-01  8.50000000E-01  8.50000000E-01  8.50000000E-01  8.50000000E-01
  8.50000000E-01  8.50000000E-01  8.50000000E-01  8.50000000E-01  8.50000000E-01
  8.50000000E-01  8.50000000E-01  8.50000000E-01  8.50000000E-01  8.50000000E-01
  8.50000000E-01  8.50000000E-01  8.50000000E-01  8.50000000E-01  8.50000000E-01
  8.50000000E-01  8.50000000E-01  8.50000000E-01  8.50000000E-01  8.50000000E-01
  8.50000000E-01  8.50000000E-01  8.50000000E-01  8.50000000E-01  8.50000000E-01
  8.50000000E-01  8.50000000E-01  8.50000000E-01  8.50000000E-01  8.50000000E-01
  8.50000000E-01  8.50000000E-01  8.50000000E-01  8.50000000E-01  8.50000000E-01
  8.50000000E-01  8.50000000E-01  8.50000000E-01  8.50000000E-01  8.50000000E-01
  8.50000000E-01  8.50000000E-01  8.50000000E-01  8.50000000E-01  8.50000000E-01
  8.50000000E-01  8.50000000E-01  8.50000000E-01  8.50000000E-01  8.50000000E-01
  8.50000000E-01  8.50000000E-01  8.50000000E-01  8.50000000E-01  8.50000000E-01
  8.50000000E-01  8.50000000E-01  8.50000000E-01  8.50000000E-01  8.50000000E-01
  8.50000000E-01  8.50000000E-01  8.50000000E-01  8.50000000E-01  8.50000000E-01
  8.50000000E-01  8.50000000E-01  8.50000000E-01  8.50000000E-01  8.50000000E-01
  8.50000000E-01  8.50000000E-01  8.50000000E-01  8.50000000E-01  8.50000000E-01
  8.50000000E-01  8.50000000E-01  8.50000000E-01  8.50000000E-01  8.50000000E-01
  8.50000000E-01  8.50000000E-01  8.50000000E-01  8.50000000E-01  8.50000000E-01
  8.50000000E-01  8.50000000E-01  8.50000000E-01  8.50000000E-01  8.50000000E-01
  8.50000000E-01  8.50000000E-01  8.50000000E-01  8.50000000E-01  8.50000000E-01
  8.50000000E-01  8.50000000E-01  8.50000000E-01  8.50000000E-01  8.50000000E-01
  8.50000000E-01  8.50000000E-01  8.50000000E-01  8.50000000E-01  8.50000000E-01
  8.50000000E-01  8.50000000E-01  8.50000000E-01  8.50000000E-01  8.50000000E-01
  8.50000000E-01  8.50000000E-01  8.50000000E-01  8.50000000E-01  8.50000000E-01
  8.50000000E-01  8.50000000E-01  8.50000000E-01  8.50000000E-01  8.50000000E-01
  8.50000000E-01  8.50000000E-01  8.50000000E-01  8.50000000E-01  8.50000000E-01
  8.50000000E-01  8.50000000E-01  8.50000000E-01  8.50000000E-01  8.50000000E-01
  8.50000000E-01  8.50000000E-01  8.50000000E-01  8.50000000E-01  8.50000000E-01
  8.50000000E-01  8.50000000E-01  8.50000000E-01  8.50000000E-01  8.50000000E-01
  8.50000000E-01  8.50000000E-01  8.50000000E-01  8.50000000E-01  8.50000000E-01
  8.50000000E-01  8.50000000E-01  8.50000000E-01  8.50000000E-01  8.50000000E-01
  8.50000000E-01  8.50000000E-01  8.50000000E-01  8.50000000E-01  8.50000000E-01
  8.50000000E-01  8.50000000E-01  8.50000000E-01  8.50000000E-01  8.50000000E-01
  8.50000000E-01  8.50000000E-01  8.50000000E-01  8.50000000E-01  8.50000000E-01
  8.50000000E-01  8.50000000E-01  8.50000000E-01  8.50000000E-01  8.50000000E-01
  8.50000000E-01  8.50000000E-01  8.50000000E-01  8.50000000E-01  8.50000000E-01
  8.50000000E-01  8.50000000E-01  8.50000000E-01  8.50000000E-01  8.50000000E-01
  8.50000000E-01  8.50000000E-01  8.50000000E-01  8.50000000E-01  8.50000000E-01
  8.50000000E-01  8.50000000E-01  8.50000000E-01  8.50000000E-01  8.50000000E-01
  8.50000000E-01  8.50000000E-01  8.50000000E-01  8.50000000E-01  8.50000000E-01
  8.50000000E-01  8.50000000E-01  8.50000000E-01  8.50000000E-01  8.50000000E-01
  8.50000000E-01  8.50000000E-01  8.50000000E-01  8.50000000E-01  8.50000000E-01
  8.50000000E-01  8.50000000E-01  8.50000000E-01  8.50000000E-01  8.50000000E-01
  8.50000000E-01  8.50000000E-01  8.50000000E-01  8.50000000E-01  8.50000000E-01
  8.50000000E-01  8.50000000E-01  8.50000000E-01  8.50000000E-01  8.50000000E-01
  8.50000000E-01  8.50000000E-01  8.50000000E-01  8.50000000E-01  8.50000000E-01
  8.50000000E-01  8.50000000E-01  8.50000000E-01  8.50000000E-01  8.50000000E-01
  8.50000000E-01  8.50000000E-01  8.50000000E-01  8.50000000E-01  8.50000000E-01
  8.50000000E-01  8.50000000E-01  8.50000000E-01  8.50000000E-01  8.50000000E-01
  8.50000000E-01  8.50000000E-01  8.50000000E-01  8.50000000E-01  8.50000000E-01
  8.50000000E-01  8.50000000E-01  8.50000000E-01  8.50000000E-01  8.50000000E-01
  8.50000000E-01  8.50000000E-01  8.50000000E-01  8.50000000E-01  8.50000000E-01
  8.50000000E-01  8.50000000E-01  8.50000000E-01  8.50000000E-01  8.50000000E-01
  8.50000000E-01  8.50000000E-01  8.50000000E-01  8.50000000E-01  8.50000000E-01
  8.50000000E-01  8.50000000E-01  8.50000000E-01  8.50000000E-01  8.50000000E-01
  8.50000000E-01  8.50000000E-01  8.50000000E-01  8.50000000E-01  8.50000000E-01
  8.50000000E-01  8.50000000E-01  8.50000000E-01  8.50000000E-01  8.50000000E-01
  8.50000000E-01  8.50000000E-01  8.50000000E-01  8.50000000E-01  8.50000000E-01
  8.50000000E-01  8.50000000E-01  8.50000000E-01  8.50000000E-01  8.50000000E-01
  8.50000000E-01  8.50000000E-01  8.50000000E-01  8.50000000E-01  8.50000000E-01
  8.50000000E-01  8.50000000E-01  8.50000000E-01  8.50000000E-01  8.50000000E-01
  8.50000000E-01  8.50000000E-01  8.50000000E-01  8.50000000E-01  8.50000000E-01
  8.50000000E-01  8.50000000E-01  8.50000000E-01  8.50000000E-01  8.50000000E-01
  8.50000000E-01  8.50000000E-01  8.50000000E-01  8.50000000E-01  8.50000000E-01
  8.50000000E-01  8.50000000E-01  8.50000000E-01  8.50000000E-01  8.50000000E-01
  8.50000000E-01  8.50000000E-01  8.50000000E-01  8.50000000E-01  8.50000000E-01
  8.50000000E-01  8.50000000E-01  8.50000000E-01  8.50000000E-01  8.50000000E-01
  8.50000000E-01  8.50000000E-01  8.50000000E-01  8.50000000E-01  8.50000000E-01
  8.50000000E-01  8.50000000E-01  8.50000000E-01  8.50000000E-01  8.50000000E-01
  8.50000000E-01  8.50000000E-01  8.50000000E-01  8.50000000E-01  8.50000000E-01
  8.50000000E-01  8.50000000E-01  8.50000000E-01  8.50000000E-01  8.50000000E-01
  8.50000000E-01  8.50000000E-01  8.50000000E-01  8.50000000E-01  8.50000000E-01
  8.50000000E-01  8.50000000E-01  8.50000000E-01  8.50000000E-01  8.50000000E-01
  8.50000000E-01  8.50000000E-01  8.50000000E-01  8.50000000E-01  8.50000000E-01
  8.50000000E-01  8.50000000E-01  8.50000000E-01  8.50000000E-01  8.50000000E-01
  8.50000000E-01  8.50000000E-01  8.50000000E-01  8.50000000E-01  8.50000000E-01
  8.50000000E-01  8.50000000E-01  8.50000000E-01  8.50000000E-01  8.50000000E-01
  8.50000000E-01  8.50000000E-01  8.50000000E-01  8.50000000E-01  8.50000000E-01
  8.50000000E-01  8.50000000E-01  8.50000000E-01  8.50000000E-01  8.50000000E-01
  8.50000000E-01  8.50000000E-01  8.50000000E-01  8.50000000E-01  8.50000000E-01
  8.50000000E-01  8.50000000E-01  8.50000000E-01  8.50000000E-01  8.50000000E-01
  8.50000000E-01  8.50000000E-01  8.50000000E-01  8.50000000E-01  8.50000000E-01
  8.50000000E-01  8.50000000E-01  8.50000000E-01  8.50000000E-01  8.50000000E-01
  8.50000000E-01  8.50000000E-01  8.50000000E-01  8.50000000E-01  8.50000000E-01
  8.50000000E-01  8.50000000E-01  8.50000000E-01  8.50000000E-01  8.50000000E-01
  8.50000000E-01  8.50000000E-01  8.50000000E-01  8.50000000E-01  8.50000000E-01
  8.50000000E-01  8.50000000E-01  8.50000000E-01  8.50000000E-01  8.50000000E-01
  8.50000000E-01  8.50000000E-01  8.50000000E-01  8.50000000E-01  8.50000000E-01
  8.50000000E-01  8.50000000E-01  8.50000000E-01  8.50000000E-01  8.50000000E-01
  8.50000000E-01  8.50000000E-01  8.50000000E-01  8.50000000E-01  8.50000000E-01
  8.50000000E-01  8.50000000E-01  8.50000000E-01  8.50000000E-01  8.50000000E-01
  8.50000000E-01  8.50000000E-01  8.50000000E-01  8.50000000E-01  8.50000000E-01
  8.50000000E-01  8.50000000E-01  8.50000000E-01  8.50000000E-01  8.50000000E-01
  8.50000000E-01  8.50000000E-01  8.50000000E-01  8.50000000E-01  8.50000000E-01
  8.50000000E-01  8.50000000E-01  8.50000000E-01  8.50000000E-01  8.50000000E-01
  8.50000000E-01  8.50000000E-01  8.50000000E-01  8.50000000E-01  8.50000000E-01
  8.50000000E-01  8.50000000E-01  8.50000000E-01  8.50000000E-01  8.50000000E-01
  8.50000000E-01  8.50000000E-01  8.50000000E-01  8.50000000E-01  8.50000000E-01
  8.50000000E-01  8.50000000E-01  8.50000000E-01  8.50000000E-01  8.50000000E-01
  8.50000000E-01  8.50000000E-01  8.50000000E-01  8.50000000E-01  8.50000000E-01
  8.50000000E-01  8.50000000E-01  8.50000000E-01  8.50000000E-01  8.50000000E-01
  8.50000000E-01  8.50000000E-01  8.50000000E-01  8.50000000E-01  8.50000000E-01
  8.50000000E-01  8.50000000E-01  8.50000000E-01  8.50000000E-01  8.50000000E-01
  8.50000000E-01  8.50000000E-01  8.50000000E-01  8.50000000E-01  8.50000000E-01
  8.50000000E-01  8.50000000E-01  8.50000000E-01  8.50000000E-01  8.50000000E-01
  8.50000000E-01  8.50000000E-01  8.50000000E-01  8.50000000E-01  8.50000000E-01
  8.50000000E-01  8.50000000E-01  8.50000000E-01  8.50000000E-01  8.50000000E-01
  8.50000000E-01  8.50000000E-01  8.50000000E-01  8.50000000E-01  8.50000000E-01
  8.50000000E-01  8.50000000E-01  8.50000000E-01  8.50000000E-01  8.50000000E-01
  8.50000000E-01  8.50000000E-01  8.50000000E-01  8.50000000E-01  8.50000000E-01
  8.50000000E-01  8.50000000E-01  8.50000000E-01  8.50000000E-01  8.50000000E-01
  8.50000000E-01  8.50000000E-01  8.50000000E-01  8.50000000E-01  8.50000000E-01
  8.50000000E-01  8.50000000E-01  8.50000000E-01  8.50000000E-01  8.50000000E-01
  8.50000000E-01  8.50000000E-01  8.50000000E-01  8.50000000E-01  8.50000000E-01
  8.50000000E-01  8.50000000E-01  8.50000000E-01  8.50000000E-01  8.50000000E-01
  8.50000000E-01  8.50000000E-01  8.50000000E-01  8.50000000E-01  8.50000000E-01
  8.50000000E-01  8.50000000E-01  8.50000000E-01  8.50000000E-01  8.50000000E-01
  8.50000000E-01  8.50000000E-01  8.50000000E-01  8.50000000E-01  8.50000000E-01
  8.50000000E-01  8.50000000E-01  8.50000000E-01  8.50000000E-01  8.50000000E-01
  8.50000000E-01  8.50000000E-01  8.50000000E-01  8.50000000E-01  8.50000000E-01
  8.50000000E-01  8.50000000E-01  8.50000000E-01  8.50000000E-01  8.50000000E-01
  8.50000000E-01  8.50000000E-01  8.50000000E-01  8.50000000E-01  8.50000000E-01
  8.50000000E-01  8.50000000E-01  8.50000000E-01  8.50000000E-01  8.50000000E-01
  8.50000000E-01  8.50000000E-01  8.50000000E-01  8.50000000E-01  8.50000000E-01
  8.50000000E-01  8.50000000E-01  8.50000000E-01  8.50000000E-01  8.50000000E-01
  8.50000000E-01  8.50000000E-01  8.50000000E-01  8.50000000E-01  8.50000000E-01
  8.50000000E-01  8.50000000E-01  8.50000000E-01  8.50000000E-01  8.50000000E-01
  8.50000000E-01  8.50000000E-01  8.50000000E-01  8.50000000E-01  8.50000000E-01
  8.50000000E-01  8.50000000E-01  8.50000000E-01  8.50000000E-01  8.50000000E-01
  8.50000000E-01  8.50000000E-01  8.50000000E-01  8.50000000E-01  8.50000000E-01
  8.50000000E-01  8.50000000E-01  8.50000000E-01  8.50000000E-01  8.50000000E-01
  8.50000000E-01  8.50000000E-01  8.50000000E-01  8.50000000E-01  8.50000000E-01
  8.50000000E-01  8.50000000E-01  8.50000000E-01  8.50000000E-01  8.50000000E-01
  8.50000000E-01  8.50000000E-01  8.50000000E-01  8.50000000E-01  8.50000000E-01
  8.50000000E-01  8.50000000E-01  8.50000000E-01  8.50000000E-01  8.50000000E-01
  8.50000000E-01  8.50000000E-01  8.50000000E-01  8.50000000E-01  8.50000000E-01
  8.50000000E-01  8.50000000E-01  8.50000000E-01  8.50000000E-01  8.50000000E-01
  8.50000000E-01  8.50000000E-01  8.50000000E-01  8.50000000E-01  8.50000000E-01
  8.50000000E-01  8.50000000E-01  8.50000000E-01  8.50000000E-01  8.50000000E-01
  8.50000000E-01  8.50000000E-01  8.50000000E-01  8.50000000E-01  8.50000000E-01
  8.50000000E-01  8.50000000E-01  8.50000000E-01  8.50000000E-01  8.50000000E-01
  8.50000000E-01  8.50000000E-01  8.50000000E-01  8.50000000E-01  8.50000000E-01
  8.50000000E-01  8.50000000E-01  8.50000000E-01  8.50000000E-01  8.50000000E-01
  8.50000000E-01  8.50000000E-01  8.50000000E-01  8.50000000E-01  8.50000000E-01
  8.50000000E-01  8.50000000E-01  8.50000000E-01  8.50000000E-01  8.50000000E-01
  8.50000000E-01  8.50000000E-01  8.50000000E-01  8.50000000E-01  8.50000000E-01
  8.50000000E-01  8.50000000E-01  8.50000000E-01  8.50000000E-01  8.50000000E-01
  8.50000000E-01  8.50000000E-01  8.50000000E-01  8.50000000E-01  8.50000000E-01
  8.50000000E-01  8.50000000E-01  8.50000000E-01  8.50000000E-01  8.50000000E-01
  8.50000000E-01  8.50000000E-01  8.50000000E-01  8.50000000E-01  8.50000000E-01
  8.50000000E-01  8.50000000E-01  8.50000000E-01  8.50000000E-01  8.50000000E-01
  8.50000000E-01  8.50000000E-01  8.50000000E-01  8.50000000E-01  8.50000000E-01
  8.50000000E-01  8.50000000E-01  8.50000000E-01  8.50000000E-01  8.50000000E-01
  8.50000000E-01  8.50000000E-01  8.50000000E-01  8.50000000E-01  8.50000000E-01
  8.50000000E-01  8.50000000E-01  8.50000000E-01  8.50000000E-01  8.50000000E-01
  8.50000000E-01  8.50000000E-01  8.50000000E-01  8.50000000E-01  8.50000000E-01
  8.50000000E-01  8.50000000E-01  8.50000000E-01  8.50000000E-01  8.50000000E-01
  8.50000000E-01  8.50000000E-01  8.50000000E-01  8.50000000E-01  8.50000000E-01
  8.50000000E-01  8.50000000E-01  8.50000000E-01  8.50000000E-01  8.50000000E-01
  8.50000000E-01  8.50000000E-01  8.50000000E-01  8.50000000E-01  8.50000000E-01
  8.50000000E-01  8.50000000E-01  8.50000000E-01  8.50000000E-01  8.50000000E-01
  8.50000000E-01  8.50000000E-01  8.50000000E-01  8.50000000E-01  8.50000000E-01
  8.50000000E-01  8.50000000E-01  8.50000000E-01  8.50000000E-01  8.50000000E-01
  8.50000000E-01  8.50000000E-01  8.50000000E-01  8.50000000E-01  8.50000000E-01
  8.50000000E-01  8.50000000E-01  8.50000000E-01  8.50000000E-01  8.50000000E-01
  8.50000000E-01  8.50000000E-01  8.50000000E-01  8.50000000E-01  8.50000000E-01
  8.50000000E-01  8.50000000E-01  8.50000000E-01  8.50000000E-01  8.50000000E-01
  8.50000000E-01  8.50000000E-01  8.50000000E-01  8.50000000E-01  8.50000000E-01
  8.50000000E-01  8.50000000E-01  8.50000000E-01  8.50000000E-01  8.50000000E-01
  8.50000000E-01  8.50000000E-01  8.50000000E-01  8.50000000E-01  8.50000000E-01
  8.50000000E-01  8.50000000E-01  8.50000000E-01  8.50000000E-01  8.50000000E-01
  8.50000000E-01  8.50000000E-01  8.50000000E-01  8.50000000E-01  8.50000000E-01
  8.50000000E-01  8.50000000E-01  8.50000000E-01  8.50000000E-01  8.50000000E-01
  8.50000000E-01  8.50000000E-01  8.50000000E-01  8.50000000E-01  8.50000000E-01
  8.50000000E-01  8.50000000E-01  8.50000000E-01  8.50000000E-01  8.50000000E-01
  8.50000000E-01  8.50000000E-01  8.50000000E-01  8.50000000E-01  8.50000000E-01
  8.50000000E-01  8.50000000E-01  8.50000000E-01  8.50000000E-01  8.50000000E-01
  8.50000000E-01  8.50000000E-01  8.50000000E-01  8.50000000E-01  8.50000000E-01
  8.50000000E-01  8.50000000E-01  8.50000000E-01  8.50000000E-01  8.50000000E-01
  8.50000000E-01  8.50000000E-01  8.50000000E-01  8.50000000E-01  8.50000000E-01
  8.50000000E-01  8.50000000E-01  8.50000000E-01  8.50000000E-01  8.50000000E-01
  8.50000000E-01  8.50000000E-01  8.50000000E-01  8.50000000E-01  8.50000000E-01
  8.50000000E-01  8.50000000E-01  8.50000000E-01  8.50000000E-01  8.50000000E-01
  8.50000000E-01  8.50000000E-01  8.50000000E-01  8.50000000E-01  8.50000000E-01
  8.50000000E-01  8.50000000E-01  8.50000000E-01  8.50000000E-01  8.50000000E-01
  8.50000000E-01  8.50000000E-01  8.50000000E-01  8.50000000E-01  8.50000000E-01
  8.50000000E-01  8.50000000E-01  8.50000000E-01  8.50000000E-01  8.50000000E-01
  8.50000000E-01  8.50000000E-01  8.50000000E-01  8.50000000E-01  8.50000000E-01
  8.50000000E-01  8.50000000E-01  8.50000000E-01  8.50000000E-01  8.50000000E-01
  8.50000000E-01  8.50000000E-01  8.50000000E-01  8.50000000E-01  8.50000000E-01
  8.50000000E-01  8.50000000E-01  8.50000000E-01  8.50000000E-01  8.50000000E-01
  8.50000000E-01  8.50000000E-01  8.50000000E-01  8.50000000E-01  8.50000000E-01
  8.50000000E-01  8.50000000E-01  8.50000000E-01  8.50000000E-01  8.50000000E-01
  8.50000000E-01  8.50000000E-01  8.50000000E-01  8.50000000E-01  8.50000000E-01
  8.50000000E-01  8.50000000E-01  8.50000000E-01  8.50000000E-01  8.50000000E-01
  8.50000000E-01  8.50000000E-01  8.50000000E-01  8.50000000E-01  8.50000000E-01
  8.50000000E-01  8.50000000E-01  8.50000000E-01  8.50000000E-01  8.50000000E-01
  8.50000000E-01  8.50000000E-01  8.50000000E-01  8.50000000E-01  8.50000000E-01
  8.50000000E-01  8.50000000E-01  8.50000000E-01  8.50000000E-01  8.50000000E-01
  8.50000000E-01  8.50000000E-01  8.50000000E-01  8.50000000E-01  8.50000000E-01
  8.50000000E-01  8.50000000E-01  8.50000000E-01  8.50000000E-01  8.50000000E-01
  8.50000000E-01  8.50000000E-01  8.50000000E-01  8.50000000E-01  8.50000000E-01
  8.50000000E-01  8.50000000E-01  8.50000000E-01  8.50000000E-01  8.50000000E-01
  8.50000000E-01  8.50000000E-01  8.50000000E-01  8.50000000E-01  8.50000000E-01
  8.50000000E-01  8.50000000E-01  8.50000000E-01  8.50000000E-01  8.50000000E-01
  8.50000000E-01  8.50000000E-01  8.50000000E-01  8.50000000E-01  8.50000000E-01
  8.50000000E-01  8.50000000E-01  8.50000000E-01  8.50000000E-01  8.50000000E-01
  8.50000000E-01  8.50000000E-01  8.50000000E-01  8.50000000E-01  8.50000000E-01
  8.50000000E-01  8.50000000E-01  8.50000000E-01  8.50000000E-01  8.50000000E-01
  8.50000000E-01  8.50000000E-01  8.50000000E-01  8.50000000E-01  8.50000000E-01
  8.50000000E-01  8.50000000E-01  8.50000000E-01  8.50000000E-01  8.50000000E-01
  8.50000000E-01  8.50000000E-01  8.50000000E-01  8.50000000E-01  8.50000000E-01
  8.50000000E-01  8.50000000E-01  8.50000000E-01  8.50000000E-01  8.50000000E-01
  8.50000000E-01  8.50000000E-01  8.50000000E-01  8.50000000E-01  8.50000000E-01
  8.50000000E-01  8.50000000E-01  8.50000000E-01  8.50000000E-01  8.50000000E-01
  8.50000000E-01  8.50000000E-01  8.50000000E-01  8.50000000E-01  8.50000000E-01
  8.50000000E-01  8.50000000E-01  8.50000000E-01  8.50000000E-01  8.50000000E-01
  8.50000000E-01  8.50000000E-01  8.50000000E-01  8.50000000E-01  8.50000000E-01
  8.50000000E-01  8.50000000E-01  8.50000000E-01  8.50000000E-01  8.50000000E-01
  8.50000000E-01  8.50000000E-01  8.50000000E-01  8.50000000E-01  8.50000000E-01
  8.50000000E-01  8.50000000E-01  8.50000000E-01  8.50000000E-01  8.50000000E-01
  8.50000000E-01  8.50000000E-01  8.50000000E-01  8.50000000E-01  8.50000000E-01
  8.50000000E-01  8.50000000E-01  8.50000000E-01  8.50000000E-01  8.50000000E-01
  8.50000000E-01  8.50000000E-01  8.50000000E-01  8.50000000E-01  8.50000000E-01
  8.50000000E-01  8.50000000E-01  8.50000000E-01  8.50000000E-01  8.50000000E-01
  8.50000000E-01  8.50000000E-01  8.50000000E-01  8.50000000E-01  8.50000000E-01
  8.50000000E-01  8.50000000E-01  8.50000000E-01  8.50000000E-01  8.50000000E-01
  8.50000000E-01  8.50000000E-01  8.50000000E-01  8.50000000E-01  8.50000000E-01
  8.50000000E-01  8.50000000E-01  8.50000000E-01  8.50000000E-01  8.50000000E-01
  8.50000000E-01  8.50000000E-01  8.50000000E-01  8.50000000E-01  8.50000000E-01
  8.50000000E-01  8.50000000E-01  8.50000000E-01  8.50000000E-01  8.50000000E-01
  8.50000000E-01  8.50000000E-01  8.50000000E-01  8.50000000E-01  8.50000000E-01
  8.50000000E-01  8.50000000E-01  8.50000000E-01  8.50000000E-01  8.50000000E-01
  8.50000000E-01  8.50000000E-01  8.50000000E-01  8.50000000E-01  8.50000000E-01
  8.50000000E-01  8.50000000E-01  8.50000000E-01  8.50000000E-01  8.50000000E-01
  8.50000000E-01  8.50000000E-01  8.50000000E-01  8.50000000E-01  8.50000000E-01
  8.50000000E-01  8.50000000E-01  8.50000000E-01  8.50000000E-01  8.50000000E-01
  8.50000000E-01  8.50000000E-01  8.50000000E-01  8.50000000E-01  8.50000000E-01
  8.50000000E-01  8.50000000E-01  8.50000000E-01  8.50000000E-01  8.50000000E-01
  8.50000000E-01  8.50000000E-01  8.50000000E-01  8.50000000E-01  8.50000000E-01
  8.50000000E-01  8.50000000E-01  8.50000000E-01  8.50000000E-01  8.50000000E-01
  8.50000000E-01  8.50000000E-01  8.50000000E-01  8.50000000E-01  8.50000000E-01
  8.50000000E-01  8.50000000E-01  8.50000000E-01  8.50000000E-01  8.50000000E-01
  8.50000000E-01  8.50000000E-01  8.50000000E-01  8.50000000E-01  8.50000000E-01
  8.50000000E-01  8.50000000E-01  8.50000000E-01  8.50000000E-01  8.50000000E-01
  8.50000000E-01  8.50000000E-01  8.50000000E-01  8.50000000E-01  8.50000000E-01
  8.50000000E-01  8.50000000E-01  8.50000000E-01  8.50000000E-01  8.50000000E-01
  8.50000000E-01  8.50000000E-01  8.50000000E-01  8.50000000E-01  8.50000000E-01
  8.50000000E-01  8.50000000E-01  8.50000000E-01  8.50000000E-01  8.50000000E-01
  8.50000000E-01  8.50000000E-01  8.50000000E-01  8.50000000E-01  8.50000000E-01
  8.50000000E-01  8.50000000E-01  8.50000000E-01  8.50000000E-01  8.50000000E-01
  8.50000000E-01  8.50000000E-01  8.50000000E-01  8.50000000E-01  8.50000000E-01
  8.50000000E-01  8.50000000E-01  8.50000000E-01  8.50000000E-01  8.50000000E-01
  8.50000000E-01  8.50000000E-01  8.50000000E-01  8.50000000E-01  8.50000000E-01
  8.50000000E-01  8.50000000E-01  8.50000000E-01  8.50000000E-01  8.50000000E-01
  8.50000000E-01  8.50000000E-01  8.50000000E-01  8.50000000E-01  8.50000000E-01
  8.50000000E-01  8.50000000E-01  8.50000000E-01  8.50000000E-01  8.50000000E-01
  8.50000000E-01  8.50000000E-01  8.50000000E-01  8.50000000E-01  8.50000000E-01
  8.50000000E-01  8.50000000E-01  8.50000000E-01  8.50000000E-01  8.50000000E-01
  8.50000000E-01  8.50000000E-01  8.50000000E-01  8.50000000E-01  8.50000000E-01
  8.50000000E-01  8.50000000E-01  8.50000000E-01  8.50000000E-01  8.50000000E-01
  8.50000000E-01  8.50000000E-01  8.50000000E-01  8.50000000E-01  8.50000000E-01
  8.50000000E-01  8.50000000E-01  8.50000000E-01  8.50000000E-01  8.50000000E-01
  8.50000000E-01  8.50000000E-01  8.50000000E-01  8.50000000E-01  8.50000000E-01
  8.50000000E-01  8.50000000E-01  8.50000000E-01  8.50000000E-01  8.50000000E-01
  8.50000000E-01  8.50000000E-01  8.50000000E-01  8.50000000E-01  8.50000000E-01
  8.50000000E-01  8.50000000E-01  8.50000000E-01  8.50000000E-01  8.50000000E-01
  8.50000000E-01  8.50000000E-01  8.50000000E-01  8.50000000E-01  8.50000000E-01
  8.50000000E-01  8.50000000E-01  8.50000000E-01  8.50000000E-01  8.50000000E-01
  8.50000000E-01  8.50000000E-01  8.50000000E-01  8.50000000E-01  8.50000000E-01
  8.50000000E-01  8.50000000E-01  8.50000000E-01  8.50000000E-01  8.50000000E-01
  8.50000000E-01  8.50000000E-01  8.50000000E-01  8.50000000E-01  8.50000000E-01
  8.50000000E-01  8.50000000E-01  8.50000000E-01  8.50000000E-01  8.50000000E-01
  8.50000000E-01  8.50000000E-01  8.50000000E-01  8.50000000E-01  8.50000000E-01
  8.50000000E-01  8.50000000E-01  8.50000000E-01  8.50000000E-01  8.50000000E-01
  8.50000000E-01  8.50000000E-01  8.50000000E-01  8.50000000E-01  8.50000000E-01
  8.50000000E-01  8.50000000E-01  8.50000000E-01  8.50000000E-01  8.50000000E-01
  8.50000000E-01  8.50000000E-01  8.50000000E-01  8.50000000E-01  8.50000000E-01
  8.50000000E-01  8.50000000E-01  8.50000000E-01  8.50000000E-01  8.50000000E-01
  8.50000000E-01  8.50000000E-01  8.50000000E-01  8.50000000E-01  8.50000000E-01
  8.50000000E-01  8.50000000E-01  8.50000000E-01  8.50000000E-01  8.50000000E-01
  8.50000000E-01  8.50000000E-01  8.50000000E-01  8.50000000E-01  8.50000000E-01
  8.50000000E-01  8.50000000E-01  8.50000000E-01  8.50000000E-01  8.50000000E-01
  8.50000000E-01  8.50000000E-01  8.50000000E-01  8.50000000E-01  8.50000000E-01
  8.50000000E-01  8.50000000E-01  8.50000000E-01  8.50000000E-01  8.50000000E-01
  8.50000000E-01  8.50000000E-01  8.50000000E-01  8.50000000E-01  8.50000000E-01
  8.50000000E-01  8.50000000E-01  8.50000000E-01  8.50000000E-01  8.50000000E-01
  8.50000000E-01  8.50000000E-01  8.50000000E-01  8.50000000E-01  8.50000000E-01
  8.50000000E-01  8.50000000E-01  8.50000000E-01  8.50000000E-01  8.50000000E-01
  8.50000000E-01  8.50000000E-01  8.50000000E-01  8.50000000E-01  8.50000000E-01
  8.50000000E-01  8.50000000E-01  8.50000000E-01  8.50000000E-01  8.50000000E-01
  8.50000000E-01  8.50000000E-01  8.50000000E-01  8.50000000E-01  8.50000000E-01
  8.50000000E-01  8.50000000E-01  8.50000000E-01  8.50000000E-01  8.50000000E-01
  8.50000000E-01  8.50000000E-01  8.50000000E-01  8.50000000E-01  8.50000000E-01
  8.50000000E-01  8.50000000E-01  8.50000000E-01  8.50000000E-01  8.50000000E-01
  8.50000000E-01  8.50000000E-01  8.50000000E-01  8.50000000E-01  8.50000000E-01
  8.50000000E-01  8.50000000E-01  8.50000000E-01  8.50000000E-01  8.50000000E-01
  8.50000000E-01  8.50000000E-01  8.50000000E-01  8.50000000E-01  8.50000000E-01
  8.50000000E-01  8.50000000E-01  8.50000000E-01  8.50000000E-01  8.50000000E-01
  8.50000000E-01  8.50000000E-01  8.50000000E-01  8.50000000E-01  8.50000000E-01
  8.50000000E-01  8.50000000E-01  8.50000000E-01  8.50000000E-01  8.50000000E-01
  8.50000000E-01  8.50000000E-01  8.50000000E-01  8.50000000E-01  8.50000000E-01
  8.50000000E-01  8.50000000E-01  8.50000000E-01  8.50000000E-01  8.50000000E-01
  8.50000000E-01  8.50000000E-01  8.50000000E-01  8.50000000E-01  8.50000000E-01
  8.50000000E-01  8.50000000E-01  8.50000000E-01  8.50000000E-01  8.50000000E-01
  8.50000000E-01  8.50000000E-01  8.50000000E-01  8.50000000E-01  8.50000000E-01
  8.50000000E-01  8.50000000E-01  8.50000000E-01  8.50000000E-01  8.50000000E-01
  8.50000000E-01  8.50000000E-01  8.50000000E-01  8.50000000E-01  8.50000000E-01
  8.50000000E-01  8.50000000E-01  8.50000000E-01  8.50000000E-01  8.50000000E-01
  8.50000000E-01  8.50000000E-01  8.50000000E-01  8.50000000E-01  8.50000000E-01
  8.50000000E-01  8.50000000E-01  8.50000000E-01  8.50000000E-01  8.50000000E-01
  8.50000000E-01  8.50000000E-01  8.50000000E-01  8.50000000E-01  8.50000000E-01
  8.50000000E-01  8.50000000E-01  8.50000000E-01  8.50000000E-01  8.50000000E-01
  8.50000000E-01  8.50000000E-01  8.50000000E-01  8.50000000E-01  8.50000000E-01
  8.50000000E-01  8.50000000E-01  8.50000000E-01  8.50000000E-01  8.50000000E-01
  8.50000000E-01  8.50000000E-01  8.50000000E-01  8.50000000E-01  8.50000000E-01
  8.50000000E-01  8.50000000E-01  8.50000000E-01  8.50000000E-01  8.50000000E-01
  8.50000000E-01  8.50000000E-01  8.50000000E-01  8.50000000E-01  8.50000000E-01
  8.50000000E-01  8.50000000E-01  8.50000000E-01  8.50000000E-01  8.50000000E-01
  8.50000000E-01  8.50000000E-01  8.50000000E-01  8.50000000E-01  8.50000000E-01
  8.50000000E-01  8.50000000E-01  8.50000000E-01  8.50000000E-01  8.50000000E-01
  8.50000000E-01  8.50000000E-01  8.50000000E-01  8.50000000E-01  8.50000000E-01
  8.50000000E-01  8.50000000E-01  8.50000000E-01  8.50000000E-01  8.50000000E-01
  8.50000000E-01  8.50000000E-01  8.50000000E-01  8.50000000E-01  8.50000000E-01
  8.50000000E-01  8.50000000E-01  8.50000000E-01  8.50000000E-01  8.50000000E-01
  8.50000000E-01  8.50000000E-01  8.50000000E-01  8.50000000E-01  8.50000000E-01
  8.50000000E-01  8.50000000E-01  8.50000000E-01  8.50000000E-01  8.50000000E-01
  8.50000000E-01  8.50000000E-01  8.50000000E-01  8.50000000E-01  8.50000000E-01
  8.50000000E-01  8.50000000E-01  8.50000000E-01  8.50000000E-01  8.50000000E-01
  8.50000000E-01  8.50000000E-01  8.50000000E-01  8.50000000E-01  8.50000000E-01
  8.50000000E-01  8.50000000E-01  8.50000000E-01  8.50000000E-01  8.50000000E-01
  8.50000000E-01  8.50000000E-01  8.50000000E-01  8.50000000E-01  8.50000000E-01
  8.50000000E-01  8.50000000E-01  8.50000000E-01  8.50000000E-01  8.50000000E-01
  8.50000000E-01  8.50000000E-01  8.50000000E-01  8.50000000E-01  8.50000000E-01
  8.50000000E-01  8.50000000E-01  8.50000000E-01  8.50000000E-01  8.50000000E-01
  8.50000000E-01  8.50000000E-01  8.50000000E-01  8.50000000E-01  8.50000000E-01
  8.50000000E-01  8.50000000E-01  8.50000000E-01  8.50000000E-01  8.50000000E-01
  8.50000000E-01  8.50000000E-01  8.50000000E-01  8.50000000E-01  8.50000000E-01
  8.50000000E-01  8.50000000E-01  8.50000000E-01  8.50000000E-01  8.50000000E-01
  8.50000000E-01  8.50000000E-01  8.50000000E-01  8.50000000E-01  8.50000000E-01
  8.50000000E-01  8.50000000E-01  8.50000000E-01  8.50000000E-01  8.50000000E-01
  8.50000000E-01  8.50000000E-01  8.50000000E-01  8.50000000E-01  8.50000000E-01
  8.50000000E-01  8.50000000E-01  8.50000000E-01  8.50000000E-01  8.50000000E-01
  8.50000000E-01  8.50000000E-01  8.50000000E-01  8.50000000E-01  8.50000000E-01
  8.50000000E-01  8.50000000E-01  8.50000000E-01  8.50000000E-01  8.50000000E-01
  8.50000000E-01  8.50000000E-01  8.50000000E-01  8.50000000E-01  8.50000000E-01
  8.50000000E-01  8.50000000E-01  8.50000000E-01  8.50000000E-01  8.50000000E-01
  8.50000000E-01  8.50000000E-01  8.50000000E-01  8.50000000E-01  8.50000000E-01
  8.50000000E-01
%FLAG IPOL                                                                      
%FORMAT(1I8)                                                                    
       0
